# Residuals   
# Time        	p             	Ux            	Uy            
1             	1.000000e+00	1.000000e+00	1.000000e+00
2             	2.337565e-01	5.994900e-02	1.496293e-01
3             	2.551219e-01	2.053571e-02	1.851265e-02
4             	1.847383e-01	8.464281e-03	1.003093e-02
5             	1.458856e-01	2.449037e-02	4.784075e-02
6             	2.742257e-01	1.766484e-02	1.039072e-01
7             	1.756457e-01	1.469354e-02	1.460910e-01
8             	1.473706e-01	1.711145e-02	3.661494e-02
9             	4.291595e-01	7.890617e-03	1.109028e-02
10            	1.667997e-01	6.931937e-03	1.210346e-02
11            	1.552955e-01	7.798810e-03	2.111307e-02
12            	3.592100e-01	5.520475e-03	2.158026e-02
13            	2.846915e-01	6.544390e-03	2.298106e-02
14            	2.993106e-01	6.013480e-03	1.515763e-02
15            	3.890459e-01	4.039784e-03	8.393707e-03
16            	2.006739e-01	3.904251e-03	9.444664e-03
17            	2.084527e-01	3.655827e-03	9.724935e-03
18            	3.690446e-01	3.450397e-03	9.575680e-03
19            	6.057852e-01	3.679989e-03	1.037288e-02
20            	5.387178e-01	3.306274e-03	8.530101e-03
21            	2.482939e-01	2.875082e-03	6.651829e-03
22            	1.793253e-01	2.685053e-03	6.819948e-03
23            	1.926112e-01	2.524762e-03	6.820263e-03
24            	2.580657e-01	2.449780e-03	7.221428e-03
25            	2.662236e-01	2.458348e-03	7.262727e-03
26            	2.058400e-01	2.407111e-03	6.572297e-03
27            	1.580026e-01	2.293908e-03	6.094532e-03
28            	1.395243e-01	2.161150e-03	5.950444e-03
29            	1.444850e-01	2.064351e-03	6.085373e-03
30            	1.502344e-01	2.032968e-03	6.318334e-03
31            	1.352829e-01	2.029629e-03	6.158302e-03
32            	1.152005e-01	2.001641e-03	5.812185e-03
33            	1.003317e-01	1.939242e-03	5.607904e-03
34            	9.295734e-02	1.868389e-03	5.557056e-03
35            	9.120681e-02	1.823225e-03	5.590031e-03
36            	8.933713e-02	1.801539e-03	5.566240e-03
37            	8.145109e-02	1.783172e-03	5.422530e-03
38            	7.378245e-02	1.751217e-03	5.280857e-03
39            	6.864049e-02	1.707354e-03	5.210634e-03
40            	6.410917e-02	1.667013e-03	5.172593e-03
41            	6.118561e-02	1.640315e-03	5.119415e-03
42            	5.836068e-02	1.618167e-03	5.043055e-03
43            	5.409745e-02	1.592803e-03	4.946209e-03
44            	4.968603e-02	1.561705e-03	4.859545e-03
45            	4.650471e-02	1.527356e-03	4.803971e-03
46            	4.400563e-02	1.497246e-03	4.767243e-03
47            	4.095169e-02	1.471968e-03	4.727827e-03
48            	3.846459e-02	1.447924e-03	4.659549e-03
49            	3.623317e-02	1.422222e-03	4.578502e-03
50            	3.378720e-02	1.395266e-03	4.506047e-03
51            	3.161729e-02	1.369702e-03	4.438199e-03
52            	2.978961e-02	1.347468e-03	4.367018e-03
53            	2.802295e-02	1.325699e-03	4.303465e-03
54            	2.639039e-02	1.303252e-03	4.247702e-03
55            	2.480972e-02	1.279833e-03	4.183202e-03
56            	2.320773e-02	1.255771e-03	4.118585e-03
57            	2.179000e-02	1.231757e-03	4.051549e-03
58            	2.065084e-02	1.210280e-03	3.988476e-03
59            	1.963359e-02	1.189133e-03	3.914872e-03
60            	1.867326e-02	1.167635e-03	3.837328e-03
61            	1.789846e-02	1.145567e-03	3.767799e-03
62            	1.691716e-02	1.122953e-03	3.709009e-03
63            	1.592484e-02	1.100600e-03	3.655307e-03
64            	1.523635e-02	1.079160e-03	3.599930e-03
65            	1.455514e-02	1.059999e-03	3.543978e-03
66            	1.397216e-02	1.041539e-03	3.480669e-03
67            	1.335455e-02	1.022838e-03	3.419375e-03
68            	1.269807e-02	1.004030e-03	3.363926e-03
69            	1.211049e-02	9.858036e-04	3.317421e-03
70            	1.161057e-02	9.685531e-04	3.271471e-03
71            	1.109512e-02	9.526903e-04	3.226028e-03
72            	1.060183e-02	9.373609e-04	3.182572e-03
73            	1.009154e-02	9.228256e-04	3.142248e-03
74            	9.572017e-03	9.086831e-04	3.103683e-03
75            	9.120450e-03	8.958849e-04	3.068819e-03
76            	8.781025e-03	8.841519e-04	3.038703e-03
77            	8.417193e-03	8.739083e-04	3.005261e-03
78            	8.052150e-03	8.640489e-04	2.974305e-03
79            	7.702872e-03	8.546578e-04	2.945610e-03
80            	7.351284e-03	8.457317e-04	2.918571e-03
81            	7.017385e-03	8.368637e-04	2.888203e-03
82            	6.734107e-03	8.283333e-04	2.854618e-03
83            	6.496600e-03	8.199176e-04	2.822891e-03
84            	6.261419e-03	8.123128e-04	2.795021e-03
85            	6.036323e-03	8.044997e-04	2.766292e-03
86            	5.828720e-03	7.961375e-04	2.733449e-03
87            	5.637990e-03	7.874960e-04	2.698627e-03
88            	5.471548e-03	7.786745e-04	2.659929e-03
89            	5.322857e-03	7.697770e-04	2.624197e-03
90            	5.189127e-03	7.605406e-04	2.591603e-03
91            	5.086658e-03	7.510205e-04	2.558734e-03
92            	4.973290e-03	7.414331e-04	2.525640e-03
93            	4.863023e-03	7.318409e-04	2.490752e-03
94            	4.755056e-03	7.213962e-04	2.450390e-03
95            	4.642934e-03	7.110477e-04	2.411152e-03
96            	4.531468e-03	7.017445e-04	2.381569e-03
97            	4.443970e-03	6.917111e-04	2.345335e-03
98            	4.365136e-03	6.820852e-04	2.312692e-03
99            	4.267891e-03	6.724403e-04	2.277148e-03
100           	4.154204e-03	6.633568e-04	2.245250e-03
101           	4.044663e-03	6.541382e-04	2.213579e-03
102           	3.937157e-03	6.446693e-04	2.183339e-03
103           	3.830592e-03	6.356548e-04	2.152920e-03
104           	3.717772e-03	6.271714e-04	2.128498e-03
105           	3.607552e-03	6.186208e-04	2.101674e-03
106           	3.504821e-03	6.105268e-04	2.080699e-03
107           	3.411808e-03	6.029309e-04	2.060151e-03
108           	3.315410e-03	5.962491e-04	2.042153e-03
109           	3.217846e-03	5.903361e-04	2.027996e-03
110           	3.128027e-03	5.850535e-04	2.014290e-03
111           	3.048697e-03	5.803721e-04	2.003438e-03
112           	2.974559e-03	5.757699e-04	1.996841e-03
113           	2.910616e-03	5.715868e-04	1.991234e-03
114           	2.855044e-03	5.677795e-04	1.987233e-03
115           	2.806980e-03	5.639105e-04	1.984960e-03
116           	2.758152e-03	5.600597e-04	1.982335e-03
117           	2.697423e-03	5.564998e-04	1.980390e-03
118           	2.640932e-03	5.533244e-04	1.981735e-03
119           	2.592109e-03	5.504159e-04	1.984583e-03
120           	2.546731e-03	5.474499e-04	1.988261e-03
121           	2.518481e-03	5.449443e-04	1.990816e-03
122           	2.488404e-03	5.424034e-04	1.992967e-03
123           	2.457667e-03	5.402361e-04	1.997124e-03
124           	2.421057e-03	5.384353e-04	2.002896e-03
125           	2.380883e-03	5.365141e-04	2.012905e-03
126           	2.340259e-03	5.347172e-04	2.024031e-03
127           	2.300523e-03	5.333226e-04	2.032975e-03
128           	2.263438e-03	5.320194e-04	2.040616e-03
129           	2.234647e-03	5.310988e-04	2.048009e-03
130           	2.212670e-03	5.306012e-04	2.059259e-03
131           	2.203328e-03	5.303170e-04	2.070097e-03
132           	2.192594e-03	5.298323e-04	2.078396e-03
133           	2.179023e-03	5.296459e-04	2.091178e-03
134           	2.158854e-03	5.296894e-04	2.105626e-03
135           	2.138565e-03	5.295722e-04	2.118805e-03
136           	2.113507e-03	5.297913e-04	2.131550e-03
137           	2.102321e-03	5.298107e-04	2.146119e-03
138           	2.100682e-03	5.299931e-04	2.164496e-03
139           	2.098770e-03	5.301275e-04	2.182225e-03
140           	2.091009e-03	5.303029e-04	2.202448e-03
141           	2.079708e-03	5.304502e-04	2.224052e-03
142           	2.071883e-03	5.305086e-04	2.243623e-03
143           	2.065383e-03	5.307332e-04	2.258756e-03
144           	2.066584e-03	5.309500e-04	2.278826e-03
145           	2.073339e-03	5.310906e-04	2.304560e-03
146           	2.072101e-03	5.309861e-04	2.331616e-03
147           	2.062847e-03	5.310131e-04	2.358478e-03
148           	2.062840e-03	5.311346e-04	2.389274e-03
149           	2.089140e-03	5.312622e-04	2.418212e-03
150           	2.118183e-03	5.313720e-04	2.449287e-03
151           	2.130931e-03	5.313017e-04	2.486087e-03
152           	2.144973e-03	5.314127e-04	2.521818e-03
153           	2.169767e-03	5.315756e-04	2.558765e-03
154           	2.194643e-03	5.316145e-04	2.600593e-03
155           	2.215216e-03	5.317963e-04	2.644337e-03
156           	2.232418e-03	5.321121e-04	2.689403e-03
157           	2.266827e-03	5.326223e-04	2.735598e-03
158           	2.296285e-03	5.331395e-04	2.787145e-03
159           	2.317421e-03	5.337005e-04	2.840180e-03
160           	2.352676e-03	5.346043e-04	2.892218e-03
161           	2.373563e-03	5.359281e-04	2.950388e-03
162           	2.400411e-03	5.372115e-04	3.009232e-03
163           	2.431034e-03	5.386672e-04	3.067207e-03
164           	2.459364e-03	5.402713e-04	3.132000e-03
165           	2.500556e-03	5.423401e-04	3.201349e-03
166           	2.508986e-03	5.447126e-04	3.268595e-03
167           	2.547934e-03	5.471749e-04	3.340945e-03
168           	2.581984e-03	5.497699e-04	3.415108e-03
169           	2.600436e-03	5.526223e-04	3.487320e-03
170           	2.643555e-03	5.559165e-04	3.567989e-03
171           	2.660305e-03	5.594453e-04	3.650316e-03
172           	2.700401e-03	5.628698e-04	3.728965e-03
173           	2.727486e-03	5.667682e-04	3.811021e-03
174           	2.771176e-03	5.710992e-04	3.899231e-03
175           	2.802814e-03	5.758094e-04	3.985202e-03
176           	2.836796e-03	5.806772e-04	4.070470e-03
177           	2.880329e-03	5.857171e-04	4.160071e-03
178           	2.919228e-03	5.909578e-04	4.250325e-03
179           	2.966380e-03	5.965938e-04	4.339190e-03
180           	3.000506e-03	6.024815e-04	4.428745e-03
181           	3.058253e-03	6.084021e-04	4.513595e-03
182           	3.098542e-03	6.146425e-04	4.594182e-03
183           	3.154035e-03	6.206311e-04	4.679366e-03
184           	3.202235e-03	6.274919e-04	4.755688e-03
185           	3.271691e-03	6.341158e-04	4.822059e-03
186           	3.314422e-03	6.409913e-04	4.891392e-03
187           	3.397053e-03	6.479608e-04	4.952122e-03
188           	3.449910e-03	6.550589e-04	5.012743e-03
189           	3.528623e-03	6.624808e-04	5.069403e-03
190           	3.597616e-03	6.699343e-04	5.123377e-03
191           	3.679350e-03	6.775142e-04	5.173014e-03
192           	3.752097e-03	6.851871e-04	5.219918e-03
193           	3.829703e-03	6.929447e-04	5.266386e-03
194           	3.896377e-03	7.009027e-04	5.304112e-03
195           	3.982163e-03	7.089273e-04	5.350949e-03
196           	4.056359e-03	7.173256e-04	5.392069e-03
197           	4.176318e-03	7.256197e-04	5.427760e-03
198           	4.269188e-03	7.341083e-04	5.463519e-03
199           	4.375550e-03	7.430442e-04	5.499700e-03
200           	4.472900e-03	7.524620e-04	5.537442e-03
201           	4.574222e-03	7.620234e-04	5.570331e-03
202           	4.677360e-03	7.717547e-04	5.603725e-03
203           	4.778649e-03	7.815768e-04	5.636912e-03
204           	4.879664e-03	7.917272e-04	5.667023e-03
205           	4.984154e-03	8.017768e-04	5.699013e-03
206           	5.083722e-03	8.122748e-04	5.733018e-03
207           	5.191433e-03	8.234464e-04	5.764457e-03
208           	5.303755e-03	8.350873e-04	5.792669e-03
209           	5.404877e-03	8.468331e-04	5.828187e-03
210           	5.538306e-03	8.588410e-04	5.861390e-03
211           	5.637702e-03	8.701566e-04	5.906224e-03
212           	5.703129e-03	8.817112e-04	5.947484e-03
213           	5.792735e-03	8.939455e-04	5.973797e-03
214           	5.884446e-03	9.073759e-04	6.001745e-03
215           	5.995419e-03	9.214085e-04	6.041772e-03
216           	6.093781e-03	9.355285e-04	6.082538e-03
217           	6.171786e-03	9.495671e-04	6.119232e-03
218           	6.255174e-03	9.635832e-04	6.158158e-03
219           	6.313991e-03	9.778421e-04	6.194624e-03
220           	6.402053e-03	9.928032e-04	6.230583e-03
221           	6.481218e-03	1.008207e-03	6.265136e-03
222           	6.531459e-03	1.024091e-03	6.305568e-03
223           	6.603808e-03	1.040246e-03	6.351728e-03
224           	6.649621e-03	1.056522e-03	6.395832e-03
225           	6.678887e-03	1.073056e-03	6.440205e-03
226           	6.737678e-03	1.089170e-03	6.487197e-03
227           	6.775024e-03	1.105826e-03	6.531725e-03
228           	6.809316e-03	1.123873e-03	6.572993e-03
229           	6.871805e-03	1.141889e-03	6.620824e-03
230           	6.883758e-03	1.159734e-03	6.674954e-03
231           	6.867616e-03	1.177154e-03	6.722707e-03
232           	6.787745e-03	1.194816e-03	6.766684e-03
233           	6.722368e-03	1.213088e-03	6.808946e-03
234           	6.712231e-03	1.232023e-03	6.855150e-03
235           	6.725985e-03	1.250450e-03	6.898944e-03
236           	6.719610e-03	1.268202e-03	6.941659e-03
237           	6.722027e-03	1.285458e-03	6.986970e-03
238           	6.718935e-03	1.302519e-03	7.028097e-03
239           	6.721949e-03	1.319456e-03	7.071692e-03
240           	6.692759e-03	1.335725e-03	7.115045e-03
241           	6.697406e-03	1.352024e-03	7.159888e-03
242           	6.685204e-03	1.368084e-03	7.204337e-03
243           	6.657788e-03	1.384105e-03	7.242661e-03
244           	6.647939e-03	1.399736e-03	7.283196e-03
245           	6.617393e-03	1.414088e-03	7.327781e-03
246           	6.608754e-03	1.427834e-03	7.366781e-03
247           	6.612885e-03	1.441829e-03	7.403830e-03
248           	6.590674e-03	1.456004e-03	7.436649e-03
249           	6.568017e-03	1.469541e-03	7.474609e-03
250           	6.526558e-03	1.482424e-03	7.519372e-03
251           	6.498162e-03	1.493559e-03	7.556082e-03
252           	6.487403e-03	1.504837e-03	7.592301e-03
253           	6.449083e-03	1.516977e-03	7.632628e-03
254           	6.424997e-03	1.528169e-03	7.673985e-03
255           	6.389528e-03	1.537948e-03	7.710857e-03
256           	6.355054e-03	1.547900e-03	7.752507e-03
257           	6.328060e-03	1.557963e-03	7.791652e-03
258           	6.307378e-03	1.567313e-03	7.828484e-03
259           	6.275582e-03	1.576091e-03	7.868402e-03
260           	6.243197e-03	1.584292e-03	7.904858e-03
261           	6.234963e-03	1.593378e-03	7.940366e-03
262           	6.222432e-03	1.601878e-03	7.972872e-03
263           	6.212508e-03	1.609791e-03	8.002792e-03
264           	6.171618e-03	1.617471e-03	8.031585e-03
265           	6.130473e-03	1.624868e-03	8.051978e-03
266           	6.087901e-03	1.631869e-03	8.069215e-03
267           	6.063435e-03	1.638475e-03	8.082521e-03
268           	6.061265e-03	1.644695e-03	8.087003e-03
269           	6.049655e-03	1.650938e-03	8.088127e-03
270           	6.047348e-03	1.656406e-03	8.081269e-03
271           	6.030651e-03	1.661663e-03	8.073255e-03
272           	6.046384e-03	1.666314e-03	8.052425e-03
273           	6.051611e-03	1.670540e-03	8.027836e-03
274           	6.049314e-03	1.674616e-03	7.995742e-03
275           	6.045254e-03	1.678911e-03	7.959262e-03
276           	6.077169e-03	1.682723e-03	7.912013e-03
277           	6.088505e-03	1.685441e-03	7.856789e-03
278           	6.032305e-03	1.687399e-03	7.801917e-03
279           	5.947585e-03	1.690758e-03	7.750506e-03
280           	5.877140e-03	1.694475e-03	7.693900e-03
281           	5.818346e-03	1.697598e-03	7.632182e-03
282           	5.766778e-03	1.700234e-03	7.569366e-03
283           	5.728864e-03	1.702428e-03	7.504242e-03
284           	5.724999e-03	1.704617e-03	7.443360e-03
285           	5.692011e-03	1.707170e-03	7.381270e-03
286           	5.635015e-03	1.709859e-03	7.316548e-03
287           	5.601644e-03	1.711923e-03	7.250683e-03
288           	5.562367e-03	1.713549e-03	7.182081e-03
289           	5.484934e-03	1.715593e-03	7.109796e-03
290           	5.426202e-03	1.717981e-03	7.039024e-03
291           	5.372870e-03	1.720061e-03	6.968502e-03
292           	5.325911e-03	1.722269e-03	6.896604e-03
293           	5.306608e-03	1.724177e-03	6.818540e-03
294           	5.249650e-03	1.725799e-03	6.737753e-03
295           	5.194124e-03	1.727963e-03	6.661837e-03
296           	5.142280e-03	1.730136e-03	6.593976e-03
297           	5.073306e-03	1.731713e-03	6.524112e-03
298           	5.025801e-03	1.733112e-03	6.450283e-03
299           	4.967833e-03	1.734547e-03	6.375603e-03
300           	4.905766e-03	1.736053e-03	6.306361e-03
301           	4.862376e-03	1.738169e-03	6.246335e-03
302           	4.822874e-03	1.739753e-03	6.183578e-03
303           	4.784835e-03	1.741006e-03	6.120541e-03
304           	4.739758e-03	1.742204e-03	6.058595e-03
305           	4.670435e-03	1.744436e-03	6.000800e-03
306           	4.627621e-03	1.746554e-03	5.946923e-03
307           	4.606343e-03	1.748213e-03	5.893628e-03
308           	4.567542e-03	1.750247e-03	5.841378e-03
309           	4.530434e-03	1.753131e-03	5.793577e-03
310           	4.494161e-03	1.756099e-03	5.744905e-03
311           	4.458180e-03	1.759511e-03	5.699955e-03
312           	4.430676e-03	1.763805e-03	5.659153e-03
313           	4.411285e-03	1.768398e-03	5.618167e-03
314           	4.406580e-03	1.772896e-03	5.577634e-03
315           	4.361810e-03	1.778483e-03	5.535469e-03
316           	4.338830e-03	1.785389e-03	5.497556e-03
317           	4.330543e-03	1.793307e-03	5.464477e-03
318           	4.323549e-03	1.802737e-03	5.433170e-03
319           	4.326300e-03	1.813945e-03	5.398557e-03
320           	4.338818e-03	1.826705e-03	5.364523e-03
321           	4.331045e-03	1.841452e-03	5.333248e-03
322           	4.329009e-03	1.857837e-03	5.308524e-03
323           	4.350943e-03	1.876435e-03	5.282937e-03
324           	4.374670e-03	1.896863e-03	5.256618e-03
325           	4.379078e-03	1.919428e-03	5.234232e-03
326           	4.398207e-03	1.944640e-03	5.214800e-03
327           	4.430272e-03	1.972723e-03	5.200325e-03
328           	4.441763e-03	2.004249e-03	5.187806e-03
329           	4.469398e-03	2.038686e-03	5.177889e-03
330           	4.513924e-03	2.076555e-03	5.170282e-03
331           	4.560628e-03	2.117896e-03	5.167458e-03
332           	4.632404e-03	2.162175e-03	5.171207e-03
333           	4.698055e-03	2.210804e-03	5.181409e-03
334           	4.735184e-03	2.263427e-03	5.193597e-03
335           	4.772826e-03	2.319615e-03	5.207674e-03
336           	4.850932e-03	2.379838e-03	5.227723e-03
337           	4.939299e-03	2.444237e-03	5.254054e-03
338           	5.019186e-03	2.513268e-03	5.283002e-03
339           	5.105469e-03	2.587934e-03	5.313582e-03
340           	5.177806e-03	2.666648e-03	5.346909e-03
341           	5.277609e-03	2.749263e-03	5.384744e-03
342           	5.383097e-03	2.835996e-03	5.425361e-03
343           	5.478739e-03	2.928020e-03	5.469772e-03
344           	5.571553e-03	3.025235e-03	5.515579e-03
345           	5.691198e-03	3.127632e-03	5.564189e-03
346           	5.809954e-03	3.234840e-03	5.615636e-03
347           	5.929262e-03	3.346971e-03	5.669343e-03
348           	6.034856e-03	3.463441e-03	5.723316e-03
349           	6.147625e-03	3.584246e-03	5.778682e-03
350           	6.273568e-03	3.710532e-03	5.839258e-03
351           	6.386152e-03	3.843041e-03	5.901848e-03
352           	6.505908e-03	3.979019e-03	5.962354e-03
353           	6.615762e-03	4.117456e-03	6.027095e-03
354           	6.756504e-03	4.263351e-03	6.096548e-03
355           	6.878403e-03	4.412809e-03	6.171689e-03
356           	6.992864e-03	4.566268e-03	6.252032e-03
357           	7.124845e-03	4.725040e-03	6.335559e-03
358           	7.321731e-03	4.887550e-03	6.423641e-03
359           	7.502385e-03	5.053464e-03	6.515924e-03
360           	7.664076e-03	5.225342e-03	6.611351e-03
361           	7.833772e-03	5.402376e-03	6.711385e-03
362           	8.048716e-03	5.581672e-03	6.814556e-03
363           	8.255228e-03	5.765370e-03	6.919812e-03
364           	8.465497e-03	5.952265e-03	7.028156e-03
365           	8.689870e-03	6.143364e-03	7.143428e-03
366           	8.916609e-03	6.337925e-03	7.266814e-03
367           	9.160561e-03	6.534803e-03	7.399613e-03
368           	9.399475e-03	6.735943e-03	7.542442e-03
369           	9.677038e-03	6.939080e-03	7.693396e-03
370           	9.938986e-03	7.145904e-03	7.854458e-03
371           	1.015163e-02	7.356719e-03	8.025867e-03
372           	1.040561e-02	7.567778e-03	8.205393e-03
373           	1.066829e-02	7.780539e-03	8.392229e-03
374           	1.095772e-02	7.994580e-03	8.588840e-03
375           	1.125025e-02	8.212338e-03	8.802258e-03
376           	1.156409e-02	8.428580e-03	9.026206e-03
377           	1.186914e-02	8.650556e-03	9.261391e-03
378           	1.215371e-02	8.876661e-03	9.510017e-03
379           	1.245435e-02	9.103244e-03	9.774543e-03
380           	1.276400e-02	9.331042e-03	1.006026e-02
381           	1.306523e-02	9.559013e-03	1.036856e-02
382           	1.336279e-02	9.785457e-03	1.069677e-02
383           	1.366949e-02	1.001300e-02	1.104016e-02
384           	1.401542e-02	1.024107e-02	1.139984e-02
385           	1.436500e-02	1.046548e-02	1.177179e-02
386           	1.476805e-02	1.069170e-02	1.216054e-02
387           	1.522050e-02	1.091588e-02	1.256958e-02
388           	1.561977e-02	1.113735e-02	1.300538e-02
389           	1.604680e-02	1.135985e-02	1.347118e-02
390           	1.643088e-02	1.157906e-02	1.395947e-02
391           	1.675592e-02	1.179390e-02	1.446876e-02
392           	1.711774e-02	1.201022e-02	1.499439e-02
393           	1.753291e-02	1.222588e-02	1.554026e-02
394           	1.799140e-02	1.244592e-02	1.611802e-02
395           	1.843454e-02	1.266724e-02	1.672631e-02
396           	1.883106e-02	1.288541e-02	1.736489e-02
397           	1.925072e-02	1.310236e-02	1.803193e-02
398           	1.968598e-02	1.331739e-02	1.872340e-02
399           	2.012415e-02	1.352748e-02	1.943787e-02
400           	2.058049e-02	1.373131e-02	2.017269e-02
401           	2.103118e-02	1.392688e-02	2.092636e-02
402           	2.148156e-02	1.411390e-02	2.168928e-02
403           	2.196090e-02	1.430138e-02	2.245451e-02
404           	2.243800e-02	1.448111e-02	2.320425e-02
405           	2.291695e-02	1.465197e-02	2.392548e-02
406           	2.344145e-02	1.481468e-02	2.459897e-02
407           	2.396802e-02	1.496972e-02	2.518449e-02
408           	2.453099e-02	1.511691e-02	2.563571e-02
409           	2.507822e-02	1.525460e-02	2.589102e-02
410           	2.567167e-02	1.538595e-02	2.586916e-02
411           	2.623805e-02	1.551285e-02	2.561546e-02
412           	2.683411e-02	1.563337e-02	2.514943e-02
413           	2.747122e-02	1.574691e-02	2.451878e-02
414           	2.817046e-02	1.585354e-02	2.378472e-02
415           	2.879348e-02	1.595758e-02	2.296803e-02
416           	2.950475e-02	1.605069e-02	2.209374e-02
417           	3.024044e-02	1.613310e-02	2.119994e-02
418           	3.099462e-02	1.621473e-02	2.029492e-02
419           	3.179435e-02	1.629139e-02	1.940279e-02
420           	3.265380e-02	1.635437e-02	1.852532e-02
421           	3.350918e-02	1.641041e-02	1.769074e-02
422           	3.426890e-02	1.647378e-02	1.690697e-02
423           	3.507479e-02	1.651925e-02	1.617632e-02
424           	3.587981e-02	1.656244e-02	1.549495e-02
425           	3.674269e-02	1.660101e-02	1.486844e-02
426           	3.755826e-02	1.662894e-02	1.429723e-02
427           	3.828710e-02	1.665282e-02	1.377870e-02
428           	3.886511e-02	1.667023e-02	1.331232e-02
429           	3.935149e-02	1.668785e-02	1.289060e-02
430           	3.942892e-02	1.669536e-02	1.250797e-02
431           	3.911804e-02	1.669656e-02	1.215895e-02
432           	3.886664e-02	1.669583e-02	1.184499e-02
433           	3.807161e-02	1.668194e-02	1.156179e-02
434           	3.724766e-02	1.667573e-02	1.131492e-02
435           	3.618651e-02	1.666883e-02	1.109255e-02
436           	3.514243e-02	1.665814e-02	1.089064e-02
437           	3.401183e-02	1.665039e-02	1.070990e-02
438           	3.284813e-02	1.664699e-02	1.054799e-02
439           	3.166926e-02	1.664973e-02	1.040851e-02
440           	3.067932e-02	1.665682e-02	1.029423e-02
441           	2.964528e-02	1.667045e-02	1.019677e-02
442           	2.867216e-02	1.668715e-02	1.011738e-02
443           	2.794504e-02	1.670365e-02	1.005532e-02
444           	2.714190e-02	1.672363e-02	1.000514e-02
445           	2.627953e-02	1.674726e-02	9.973588e-03
446           	2.562389e-02	1.676659e-02	9.953999e-03
447           	2.499556e-02	1.678426e-02	9.942418e-03
448           	2.427029e-02	1.679511e-02	9.947697e-03
449           	2.372325e-02	1.680334e-02	9.964441e-03
450           	2.316164e-02	1.680270e-02	9.984863e-03
451           	2.255117e-02	1.679297e-02	1.002410e-02
452           	2.207028e-02	1.677832e-02	1.006941e-02
453           	2.156198e-02	1.675084e-02	1.012419e-02
454           	2.098824e-02	1.670928e-02	1.019513e-02
455           	2.048359e-02	1.665145e-02	1.026854e-02
456           	1.998774e-02	1.658289e-02	1.035860e-02
457           	1.940811e-02	1.650320e-02	1.045667e-02
458           	1.887333e-02	1.641475e-02	1.055989e-02
459           	1.836082e-02	1.631902e-02	1.068247e-02
460           	1.787600e-02	1.621294e-02	1.080793e-02
461           	1.746518e-02	1.610187e-02	1.094777e-02
462           	1.712451e-02	1.598453e-02	1.109838e-02
463           	1.682721e-02	1.586303e-02	1.125431e-02
464           	1.661509e-02	1.573670e-02	1.141912e-02
465           	1.636890e-02	1.560338e-02	1.158441e-02
466           	1.612164e-02	1.547179e-02	1.176368e-02
467           	1.595874e-02	1.533388e-02	1.194809e-02
468           	1.576367e-02	1.519476e-02	1.213660e-02
469           	1.561456e-02	1.505873e-02	1.233377e-02
470           	1.544813e-02	1.492052e-02	1.253348e-02
471           	1.522439e-02	1.478789e-02	1.273961e-02
472           	1.509173e-02	1.465090e-02	1.295122e-02
473           	1.497658e-02	1.451596e-02	1.317027e-02
474           	1.481395e-02	1.438544e-02	1.339802e-02
475           	1.472673e-02	1.425304e-02	1.362601e-02
476           	1.458111e-02	1.411859e-02	1.385492e-02
477           	1.444484e-02	1.398042e-02	1.408197e-02
478           	1.432575e-02	1.384037e-02	1.429926e-02
479           	1.417922e-02	1.369804e-02	1.451628e-02
480           	1.401961e-02	1.355137e-02	1.471569e-02
481           	1.387074e-02	1.340427e-02	1.490258e-02
482           	1.369343e-02	1.325906e-02	1.507079e-02
483           	1.354600e-02	1.310907e-02	1.521362e-02
484           	1.338861e-02	1.295627e-02	1.533241e-02
485           	1.320300e-02	1.280478e-02	1.541206e-02
486           	1.301937e-02	1.264997e-02	1.546330e-02
487           	1.281510e-02	1.249309e-02	1.545616e-02
488           	1.259205e-02	1.233007e-02	1.540896e-02
489           	1.237925e-02	1.216501e-02	1.529995e-02
490           	1.210971e-02	1.199737e-02	1.515813e-02
491           	1.182517e-02	1.182506e-02	1.495352e-02
492           	1.153109e-02	1.164703e-02	1.473099e-02
493           	1.121011e-02	1.146265e-02	1.445674e-02
494           	1.092581e-02	1.127018e-02	1.414725e-02
495           	1.061982e-02	1.107120e-02	1.378824e-02
496           	1.034160e-02	1.086916e-02	1.339673e-02
497           	1.004223e-02	1.066423e-02	1.297476e-02
498           	9.725944e-03	1.045334e-02	1.252874e-02
499           	9.411257e-03	1.023572e-02	1.208698e-02
500           	9.068147e-03	1.001499e-02	1.162715e-02
501           	8.754475e-03	9.788295e-03	1.119477e-02
502           	8.501812e-03	9.558103e-03	1.075526e-02
503           	8.275899e-03	9.323618e-03	1.034496e-02
504           	8.067344e-03	9.090938e-03	9.945701e-03
505           	7.929594e-03	8.857099e-03	9.564909e-03
506           	7.749771e-03	8.625407e-03	9.200576e-03
507           	7.558966e-03	8.396567e-03	8.844934e-03
508           	7.389866e-03	8.170915e-03	8.537624e-03
509           	7.222220e-03	7.949133e-03	8.241557e-03
510           	7.073054e-03	7.732320e-03	7.962970e-03
511           	6.918136e-03	7.522671e-03	7.712370e-03
512           	6.771137e-03	7.319112e-03	7.462466e-03
513           	6.634614e-03	7.121241e-03	7.234389e-03
514           	6.485504e-03	6.928559e-03	7.029752e-03
515           	6.344184e-03	6.743650e-03	6.825380e-03
516           	6.204300e-03	6.561913e-03	6.629824e-03
517           	6.049670e-03	6.389600e-03	6.458362e-03
518           	5.880946e-03	6.224068e-03	6.285650e-03
519           	5.712961e-03	6.063688e-03	6.115771e-03
520           	5.560964e-03	5.912494e-03	5.948766e-03
521           	5.423440e-03	5.771054e-03	5.798220e-03
522           	5.286750e-03	5.642805e-03	5.653700e-03
523           	5.148282e-03	5.525493e-03	5.514754e-03
524           	4.997454e-03	5.417341e-03	5.387485e-03
525           	4.829473e-03	5.318983e-03	5.264403e-03
526           	4.667951e-03	5.226442e-03	5.142667e-03
527           	4.501228e-03	5.144670e-03	5.020230e-03
528           	4.339081e-03	5.071233e-03	4.909794e-03
529           	4.196640e-03	5.010510e-03	4.809181e-03
530           	4.069736e-03	4.959352e-03	4.707255e-03
531           	3.939599e-03	4.913390e-03	4.607146e-03
532           	3.814269e-03	4.874678e-03	4.506849e-03
533           	3.708476e-03	4.842545e-03	4.408614e-03
534           	3.609351e-03	4.814038e-03	4.317013e-03
535           	3.517315e-03	4.789059e-03	4.225544e-03
536           	3.423657e-03	4.765810e-03	4.137580e-03
537           	3.343430e-03	4.746041e-03	4.046733e-03
538           	3.251514e-03	4.726256e-03	3.954182e-03
539           	3.167433e-03	4.708831e-03	3.864851e-03
540           	3.085270e-03	4.696338e-03	3.775762e-03
541           	3.009071e-03	4.684820e-03	3.688993e-03
542           	2.943864e-03	4.674180e-03	3.604196e-03
543           	2.896068e-03	4.661684e-03	3.524358e-03
544           	2.856182e-03	4.652130e-03	3.452572e-03
545           	2.835978e-03	4.643808e-03	3.383629e-03
546           	2.817426e-03	4.631489e-03	3.313400e-03
547           	2.801503e-03	4.617404e-03	3.247606e-03
548           	2.794050e-03	4.604513e-03	3.180230e-03
549           	2.767040e-03	4.590855e-03	3.112315e-03
550           	2.756610e-03	4.574323e-03	3.053597e-03
551           	2.741761e-03	4.556212e-03	2.995739e-03
552           	2.736650e-03	4.536725e-03	2.936887e-03
553           	2.736033e-03	4.514247e-03	2.884234e-03
554           	2.734468e-03	4.488932e-03	2.834158e-03