/*--------------------------------*- C++ -*----------------------------------*\
  =========                 |
  \\      /  F ield         | OpenFOAM: The Open Source CFD Toolbox
   \\    /   O peration     | Website:  https://openfoam.org
    \\  /    A nd           | Version:  7
     \\/     M anipulation  |
\*---------------------------------------------------------------------------*/
FoamFile
{
    version     2.0;
    format      ascii;
    class       volScalarField;
    location    "200";
    object      nut;
}
// * * * * * * * * * * * * * * * * * * * * * * * * * * * * * * * * * * * * * //

dimensions      [0 2 -1 0 0 0 0];

internalField   nonuniform List<scalar> 
92256
(
5.21478e-06
5.21328e-06
5.22417e-06
5.21322e-06
5.22325e-06
5.23073e-06
5.21283e-06
5.22286e-06
5.22919e-06
5.23211e-06
5.21269e-06
5.22237e-06
5.22811e-06
5.22869e-06
5.22785e-06
5.21257e-06
5.22196e-06
5.22682e-06
5.22674e-06
5.22426e-06
5.22582e-06
5.2125e-06
5.22147e-06
5.22543e-06
5.22458e-06
5.22323e-06
5.22638e-06
5.23289e-06
5.21244e-06
5.22093e-06
5.22395e-06
5.22269e-06
5.2225e-06
5.22795e-06
5.23602e-06
5.24143e-06
5.21239e-06
5.22031e-06
5.22243e-06
5.22111e-06
5.22267e-06
5.2296e-06
5.23736e-06
5.24204e-06
5.24267e-06
5.21233e-06
5.21961e-06
5.22092e-06
5.21997e-06
5.22352e-06
5.23136e-06
5.23835e-06
5.24091e-06
5.23889e-06
5.23655e-06
5.21226e-06
5.21884e-06
5.2195e-06
5.21932e-06
5.2247e-06
5.2329e-06
5.2386e-06
5.23928e-06
5.23599e-06
5.2313e-06
5.23042e-06
5.21217e-06
5.21799e-06
5.21821e-06
5.2192e-06
5.22606e-06
5.23406e-06
5.23815e-06
5.23703e-06
5.23291e-06
5.2293e-06
5.22784e-06
5.22918e-06
5.21204e-06
5.2171e-06
5.21713e-06
5.21961e-06
5.22746e-06
5.23475e-06
5.23708e-06
5.23448e-06
5.23014e-06
5.22749e-06
5.22769e-06
5.22888e-06
5.23008e-06
5.21188e-06
5.2162e-06
5.21632e-06
5.22047e-06
5.22875e-06
5.23492e-06
5.23549e-06
5.23186e-06
5.22787e-06
5.22659e-06
5.22747e-06
5.22879e-06
5.22927e-06
5.22909e-06
5.21168e-06
5.21529e-06
5.21579e-06
5.22143e-06
5.22981e-06
5.23457e-06
5.23355e-06
5.22937e-06
5.22622e-06
5.22613e-06
5.22745e-06
5.22841e-06
5.2281e-06
5.2265e-06
5.22529e-06
5.21145e-06
5.21443e-06
5.21559e-06
5.22249e-06
5.23053e-06
5.23376e-06
5.23142e-06
5.22719e-06
5.22521e-06
5.22597e-06
5.22733e-06
5.22774e-06
5.2267e-06
5.22447e-06
5.22163e-06
5.22052e-06
5.21117e-06
5.21364e-06
5.21572e-06
5.22356e-06
5.23091e-06
5.23257e-06
5.22925e-06
5.22544e-06
5.2247e-06
5.22593e-06
5.22702e-06
5.22676e-06
5.22502e-06
5.22241e-06
5.21971e-06
5.21743e-06
5.21716e-06
5.21087e-06
5.21295e-06
5.21616e-06
5.22455e-06
5.23092e-06
5.23109e-06
5.22719e-06
5.22418e-06
5.22443e-06
5.22586e-06
5.22648e-06
5.22553e-06
5.22324e-06
5.22042e-06
5.21793e-06
5.21642e-06
5.21547e-06
5.21594e-06
5.21054e-06
5.21239e-06
5.21687e-06
5.22541e-06
5.23058e-06
5.22943e-06
5.22536e-06
5.2234e-06
5.22433e-06
5.22567e-06
5.22571e-06
5.22413e-06
5.22146e-06
5.21866e-06
5.21656e-06
5.21549e-06
5.21532e-06
5.2154e-06
5.21618e-06
5.21018e-06
5.21196e-06
5.21761e-06
5.22607e-06
5.22993e-06
5.22769e-06
5.22383e-06
5.22298e-06
5.22429e-06
5.22532e-06
5.22475e-06
5.22264e-06
5.21978e-06
5.21718e-06
5.21558e-06
5.21494e-06
5.21499e-06
5.21559e-06
5.21621e-06
5.21711e-06
5.20982e-06
5.2117e-06
5.21838e-06
5.22649e-06
5.22902e-06
5.22598e-06
5.22265e-06
5.22274e-06
5.22422e-06
5.2248e-06
5.22364e-06
5.22114e-06
5.21826e-06
5.21601e-06
5.21486e-06
5.21458e-06
5.2149e-06
5.21554e-06
5.21646e-06
5.2173e-06
5.21827e-06
5.20945e-06
5.2116e-06
5.21915e-06
5.22667e-06
5.22791e-06
5.22436e-06
5.22184e-06
5.22262e-06
5.22404e-06
5.22411e-06
5.22244e-06
5.21969e-06
5.21695e-06
5.21513e-06
5.21435e-06
5.21436e-06
5.21484e-06
5.2156e-06
5.21649e-06
5.21754e-06
5.21847e-06
5.21949e-06
5.20909e-06
5.21167e-06
5.21988e-06
5.22662e-06
5.22667e-06
5.22292e-06
5.22135e-06
5.22258e-06
5.22376e-06
5.2233e-06
5.22121e-06
5.21836e-06
5.21586e-06
5.21445e-06
5.21401e-06
5.21422e-06
5.21482e-06
5.21564e-06
5.21659e-06
5.21759e-06
5.2187e-06
5.21969e-06
5.22074e-06
5.20874e-06
5.21192e-06
5.22055e-06
5.22636e-06
5.22534e-06
5.22169e-06
5.22106e-06
5.22252e-06
5.22335e-06
5.22239e-06
5.21999e-06
5.21716e-06
5.21499e-06
5.21394e-06
5.21376e-06
5.21413e-06
5.21482e-06
5.21568e-06
5.21665e-06
5.2177e-06
5.21877e-06
5.21993e-06
5.22094e-06
5.22202e-06
5.20842e-06
5.21234e-06
5.22112e-06
5.2259e-06
5.22401e-06
5.22071e-06
5.22087e-06
5.22242e-06
5.22283e-06
5.22143e-06
5.21883e-06
5.21611e-06
5.21431e-06
5.21357e-06
5.21359e-06
5.21407e-06
5.21482e-06
5.21572e-06
5.21672e-06
5.21778e-06
5.21889e-06
5.22e-06
5.2212e-06
5.22224e-06
5.22333e-06
5.20814e-06
5.21289e-06
5.22157e-06
5.22526e-06
5.22271e-06
5.21998e-06
5.22078e-06
5.22224e-06
5.22222e-06
5.22045e-06
5.21774e-06
5.21523e-06
5.21377e-06
5.21328e-06
5.21346e-06
5.21403e-06
5.21483e-06
5.21576e-06
5.21678e-06
5.21786e-06
5.21898e-06
5.22014e-06
5.22129e-06
5.22252e-06
5.22356e-06
5.22465e-06
5.20789e-06
5.21345e-06
5.22189e-06
5.22449e-06
5.22149e-06
5.2195e-06
5.22072e-06
5.22199e-06
5.22153e-06
5.21948e-06
5.21676e-06
5.21449e-06
5.21334e-06
5.21307e-06
5.21337e-06
5.214e-06
5.21484e-06
5.21579e-06
5.21684e-06
5.21794e-06
5.21909e-06
5.22025e-06
5.22144e-06
5.22261e-06
5.22384e-06
5.22488e-06
5.22597e-06
5.20769e-06
5.21401e-06
5.22206e-06
5.22362e-06
5.2204e-06
5.21923e-06
5.22068e-06
5.22165e-06
5.2208e-06
5.21854e-06
5.21588e-06
5.2139e-06
5.213e-06
5.2129e-06
5.2133e-06
5.21399e-06
5.21485e-06
5.21584e-06
5.21691e-06
5.21803e-06
5.21919e-06
5.22037e-06
5.22156e-06
5.22276e-06
5.22393e-06
5.22516e-06
5.22619e-06
5.22726e-06
5.20755e-06
5.21455e-06
5.22209e-06
5.22269e-06
5.21944e-06
5.21901e-06
5.2206e-06
5.22123e-06
5.22004e-06
5.21765e-06
5.2151e-06
5.21341e-06
5.21273e-06
5.21277e-06
5.21324e-06
5.21398e-06
5.21488e-06
5.21589e-06
5.21698e-06
5.21812e-06
5.2193e-06
5.22049e-06
5.22169e-06
5.22288e-06
5.22407e-06
5.22523e-06
5.22645e-06
5.22746e-06
5.22852e-06
5.20745e-06
5.21506e-06
5.22199e-06
5.22172e-06
5.21865e-06
5.21888e-06
5.22048e-06
5.22076e-06
5.21928e-06
5.21682e-06
5.21443e-06
5.213e-06
5.21251e-06
5.21267e-06
5.2132e-06
5.21398e-06
5.21491e-06
5.21595e-06
5.21706e-06
5.21822e-06
5.21941e-06
5.2206e-06
5.2218e-06
5.22299e-06
5.22417e-06
5.22534e-06
5.22648e-06
5.22769e-06
5.22867e-06
5.22974e-06
5.20742e-06
5.21554e-06
5.22177e-06
5.22075e-06
5.21801e-06
5.21879e-06
5.2203e-06
5.22024e-06
5.21853e-06
5.21607e-06
5.21386e-06
5.21266e-06
5.21234e-06
5.21258e-06
5.21318e-06
5.21399e-06
5.21496e-06
5.21602e-06
5.21716e-06
5.21832e-06
5.21951e-06
5.22071e-06
5.22189e-06
5.22307e-06
5.22424e-06
5.2254e-06
5.22655e-06
5.22767e-06
5.22886e-06
5.22982e-06
5.23089e-06
5.20746e-06
5.21599e-06
5.22144e-06
5.21981e-06
5.21755e-06
5.21873e-06
5.22008e-06
5.21969e-06
5.21781e-06
5.21538e-06
5.21338e-06
5.21238e-06
5.21219e-06
5.21252e-06
5.21316e-06
5.21402e-06
5.21501e-06
5.2161e-06
5.21725e-06
5.21843e-06
5.21962e-06
5.2208e-06
5.22198e-06
5.22314e-06
5.22429e-06
5.22543e-06
5.22656e-06
5.22769e-06
5.22878e-06
5.22995e-06
5.2309e-06
5.23197e-06
5.20756e-06
5.21638e-06
5.22102e-06
5.21892e-06
5.21723e-06
5.21867e-06
5.21981e-06
5.21912e-06
5.21713e-06
5.21477e-06
5.21296e-06
5.21215e-06
5.21207e-06
5.21247e-06
5.21316e-06
5.21406e-06
5.21508e-06
5.21619e-06
5.21735e-06
5.21853e-06
5.21971e-06
5.22089e-06
5.22204e-06
5.22318e-06
5.22431e-06
5.22543e-06
5.22653e-06
5.22763e-06
5.22874e-06
5.22981e-06
5.23097e-06
5.2319e-06
5.23299e-06
5.20774e-06
5.21672e-06
5.22052e-06
5.21809e-06
5.21704e-06
5.21861e-06
5.21949e-06
5.21855e-06
5.21648e-06
5.21422e-06
5.21262e-06
5.21195e-06
5.21197e-06
5.21243e-06
5.21317e-06
5.2141e-06
5.21516e-06
5.21629e-06
5.21746e-06
5.21863e-06
5.2198e-06
5.22096e-06
5.22209e-06
5.2232e-06
5.2243e-06
5.22539e-06
5.22647e-06
5.22754e-06
5.22862e-06
5.2297e-06
5.23076e-06
5.23191e-06
5.23282e-06
5.23393e-06
5.20799e-06
5.217e-06
5.21996e-06
5.21733e-06
5.21687e-06
5.21853e-06
5.21913e-06
5.21798e-06
5.21588e-06
5.21373e-06
5.21231e-06
5.21179e-06
5.21189e-06
5.21241e-06
5.2132e-06
5.21416e-06
5.21525e-06
5.21639e-06
5.21756e-06
5.21873e-06
5.21988e-06
5.22101e-06
5.22212e-06
5.2232e-06
5.22427e-06
5.22532e-06
5.22637e-06
5.22741e-06
5.22846e-06
5.22951e-06
5.23059e-06
5.23163e-06
5.23278e-06
5.23368e-06
5.23481e-06
5.20835e-06
5.21721e-06
5.21934e-06
5.21667e-06
5.21675e-06
5.21841e-06
5.21875e-06
5.21742e-06
5.21533e-06
5.2133e-06
5.21205e-06
5.21164e-06
5.21183e-06
5.2124e-06
5.21323e-06
5.21424e-06
5.21534e-06
5.21649e-06
5.21766e-06
5.21882e-06
5.21995e-06
5.22105e-06
5.22213e-06
5.22318e-06
5.22421e-06
5.22522e-06
5.22623e-06
5.22725e-06
5.22826e-06
5.22929e-06
5.23033e-06
5.23139e-06
5.23243e-06
5.23358e-06
5.23447e-06
5.23563e-06
5.20881e-06
5.21735e-06
5.2187e-06
5.2161e-06
5.21665e-06
5.21826e-06
5.21835e-06
5.21688e-06
5.21482e-06
5.21291e-06
5.21182e-06
5.21152e-06
5.21178e-06
5.21241e-06
5.21328e-06
5.21431e-06
5.21544e-06
5.21659e-06
5.21776e-06
5.21889e-06
5.22e-06
5.22108e-06
5.22212e-06
5.22313e-06
5.22412e-06
5.2251e-06
5.22608e-06
5.22705e-06
5.22804e-06
5.22903e-06
5.23005e-06
5.23108e-06
5.23213e-06
5.23317e-06
5.23432e-06
5.23521e-06
5.23639e-06
5.20932e-06
5.2174e-06
5.21804e-06
5.21564e-06
5.21658e-06
5.21809e-06
5.21793e-06
5.21637e-06
5.21435e-06
5.21257e-06
5.21162e-06
5.21142e-06
5.21175e-06
5.21243e-06
5.21334e-06
5.2144e-06
5.21554e-06
5.21669e-06
5.21784e-06
5.21896e-06
5.22004e-06
5.22108e-06
5.22209e-06
5.22307e-06
5.22402e-06
5.22497e-06
5.2259e-06
5.22684e-06
5.22779e-06
5.22875e-06
5.22973e-06
5.23073e-06
5.23176e-06
5.23281e-06
5.23385e-06
5.23501e-06
5.23589e-06
5.2371e-06
5.20972e-06
5.21737e-06
5.21739e-06
5.21527e-06
5.21652e-06
5.21789e-06
5.21752e-06
5.21588e-06
5.21393e-06
5.21228e-06
5.21145e-06
5.21134e-06
5.21173e-06
5.21246e-06
5.21341e-06
5.21449e-06
5.21564e-06
5.21679e-06
5.21792e-06
5.21902e-06
5.22007e-06
5.22108e-06
5.22205e-06
5.22299e-06
5.22391e-06
5.22482e-06
5.22572e-06
5.22662e-06
5.22753e-06
5.22845e-06
5.2294e-06
5.23037e-06
5.23136e-06
5.23238e-06
5.23344e-06
5.23448e-06
5.23565e-06
5.23654e-06
5.23776e-06
5.21008e-06
5.21726e-06
5.21674e-06
5.21499e-06
5.21646e-06
5.21766e-06
5.2171e-06
5.21542e-06
5.21354e-06
5.21201e-06
5.2113e-06
5.21127e-06
5.21172e-06
5.2125e-06
5.21349e-06
5.21459e-06
5.21574e-06
5.21688e-06
5.21799e-06
5.21906e-06
5.22008e-06
5.22106e-06
5.222e-06
5.2229e-06
5.22379e-06
5.22466e-06
5.22552e-06
5.22638e-06
5.22726e-06
5.22814e-06
5.22905e-06
5.22998e-06
5.23095e-06
5.23194e-06
5.23296e-06
5.23403e-06
5.23507e-06
5.23626e-06
5.23714e-06
5.23839e-06
5.21041e-06
5.21709e-06
5.21613e-06
5.2148e-06
5.2164e-06
5.21741e-06
5.21668e-06
5.21499e-06
5.21319e-06
5.21178e-06
5.21117e-06
5.21121e-06
5.21172e-06
5.21255e-06
5.21357e-06
5.21469e-06
5.21583e-06
5.21697e-06
5.21806e-06
5.2191e-06
5.22009e-06
5.22103e-06
5.22194e-06
5.22281e-06
5.22366e-06
5.22449e-06
5.22532e-06
5.22615e-06
5.22698e-06
5.22783e-06
5.2287e-06
5.22959e-06
5.23052e-06
5.23148e-06
5.23247e-06
5.2335e-06
5.23457e-06
5.23563e-06
5.23682e-06
5.23771e-06
5.23897e-06
5.21071e-06
5.21687e-06
5.21555e-06
5.21467e-06
5.21633e-06
5.21714e-06
5.21628e-06
5.21459e-06
5.21287e-06
5.21157e-06
5.21105e-06
5.21117e-06
5.21174e-06
5.21261e-06
5.21366e-06
5.21478e-06
5.21593e-06
5.21704e-06
5.21811e-06
5.21912e-06
5.22008e-06
5.22099e-06
5.22187e-06
5.22271e-06
5.22353e-06
5.22433e-06
5.22512e-06
5.22591e-06
5.22671e-06
5.22752e-06
5.22834e-06
5.2292e-06
5.23008e-06
5.23101e-06
5.23197e-06
5.23297e-06
5.234e-06
5.23508e-06
5.23615e-06
5.23736e-06
5.23825e-06
5.23953e-06
5.21097e-06
5.2166e-06
5.215e-06
5.21455e-06
5.21624e-06
5.21686e-06
5.21588e-06
5.21421e-06
5.21257e-06
5.21138e-06
5.21095e-06
5.21114e-06
5.21177e-06
5.21268e-06
5.21375e-06
5.21488e-06
5.21601e-06
5.21711e-06
5.21815e-06
5.21914e-06
5.22007e-06
5.22095e-06
5.2218e-06
5.22261e-06
5.2234e-06
5.22417e-06
5.22492e-06
5.22568e-06
5.22644e-06
5.22721e-06
5.228e-06
5.22881e-06
5.22965e-06
5.23053e-06
5.23145e-06
5.23242e-06
5.23343e-06
5.23447e-06
5.23556e-06
5.23665e-06
5.23787e-06
5.23877e-06
5.24005e-06
5.2112e-06
5.21629e-06
5.21451e-06
5.21444e-06
5.21613e-06
5.21657e-06
5.21551e-06
5.21386e-06
5.21231e-06
5.21122e-06
5.21087e-06
5.21113e-06
5.2118e-06
5.21275e-06
5.21384e-06
5.21498e-06
5.2161e-06
5.21717e-06
5.21819e-06
5.21914e-06
5.22005e-06
5.2209e-06
5.22172e-06
5.2225e-06
5.22326e-06
5.224e-06
5.22473e-06
5.22545e-06
5.22618e-06
5.22691e-06
5.22765e-06
5.22842e-06
5.22922e-06
5.23006e-06
5.23094e-06
5.23186e-06
5.23283e-06
5.23385e-06
5.23491e-06
5.23602e-06
5.23711e-06
5.23835e-06
5.23926e-06
5.24054e-06
5.21139e-06
5.21595e-06
5.21406e-06
5.21435e-06
5.216e-06
5.21628e-06
5.21514e-06
5.21353e-06
5.21206e-06
5.21107e-06
5.2108e-06
5.21112e-06
5.21185e-06
5.21283e-06
5.21393e-06
5.21507e-06
5.21617e-06
5.21722e-06
5.21822e-06
5.21915e-06
5.22002e-06
5.22085e-06
5.22164e-06
5.2224e-06
5.22314e-06
5.22385e-06
5.22455e-06
5.22524e-06
5.22592e-06
5.22662e-06
5.22732e-06
5.22805e-06
5.22881e-06
5.2296e-06
5.23043e-06
5.23131e-06
5.23224e-06
5.23322e-06
5.23425e-06
5.23532e-06
5.23645e-06
5.23756e-06
5.23882e-06
5.23973e-06
5.24101e-06
5.21156e-06
5.21559e-06
5.21366e-06
5.21427e-06
5.21587e-06
5.21598e-06
5.2148e-06
5.21323e-06
5.21184e-06
5.21093e-06
5.21074e-06
5.21113e-06
5.2119e-06
5.21291e-06
5.21403e-06
5.21515e-06
5.21624e-06
5.21727e-06
5.21824e-06
5.21914e-06
5.21999e-06
5.2208e-06
5.22157e-06
5.2223e-06
5.22301e-06
5.2237e-06
5.22437e-06
5.22503e-06
5.22568e-06
5.22634e-06
5.227e-06
5.22769e-06
5.2284e-06
5.22914e-06
5.22993e-06
5.23076e-06
5.23164e-06
5.23258e-06
5.23358e-06
5.23462e-06
5.23571e-06
5.23686e-06
5.23799e-06
5.23926e-06
5.24019e-06
5.24146e-06
5.21169e-06
5.21521e-06
5.21331e-06
5.2142e-06
5.21571e-06
5.21569e-06
5.21447e-06
5.21295e-06
5.21163e-06
5.21081e-06
5.2107e-06
5.21114e-06
5.21197e-06
5.213e-06
5.21412e-06
5.21523e-06
5.2163e-06
5.21731e-06
5.21825e-06
5.21913e-06
5.21996e-06
5.22075e-06
5.22149e-06
5.22221e-06
5.22289e-06
5.22355e-06
5.2242e-06
5.22483e-06
5.22545e-06
5.22607e-06
5.2267e-06
5.22734e-06
5.22801e-06
5.22871e-06
5.22944e-06
5.23022e-06
5.23106e-06
5.23195e-06
5.2329e-06
5.23391e-06
5.23497e-06
5.23608e-06
5.23725e-06
5.23839e-06
5.23968e-06
5.24062e-06
5.24188e-06
5.21179e-06
5.21483e-06
5.21301e-06
5.21414e-06
5.21555e-06
5.2154e-06
5.21416e-06
5.21269e-06
5.21144e-06
5.21071e-06
5.21066e-06
5.21117e-06
5.21203e-06
5.21309e-06
5.21421e-06
5.21531e-06
5.21636e-06
5.21734e-06
5.21826e-06
5.21912e-06
5.21993e-06
5.2207e-06
5.22142e-06
5.22211e-06
5.22278e-06
5.22342e-06
5.22403e-06
5.22464e-06
5.22523e-06
5.22582e-06
5.22641e-06
5.22701e-06
5.22764e-06
5.22829e-06
5.22897e-06
5.2297e-06
5.23048e-06
5.23132e-06
5.23223e-06
5.23319e-06
5.23422e-06
5.2353e-06
5.23644e-06
5.23762e-06
5.23878e-06
5.24009e-06
5.24104e-06
5.24228e-06
5.21187e-06
5.21444e-06
5.21276e-06
5.21407e-06
5.21538e-06
5.21511e-06
5.21386e-06
5.21244e-06
5.21127e-06
5.21061e-06
5.21064e-06
5.2112e-06
5.2121e-06
5.21317e-06
5.21429e-06
5.21538e-06
5.21641e-06
5.21737e-06
5.21827e-06
5.21911e-06
5.2199e-06
5.22064e-06
5.22135e-06
5.22203e-06
5.22267e-06
5.22329e-06
5.22388e-06
5.22446e-06
5.22502e-06
5.22558e-06
5.22613e-06
5.2267e-06
5.22728e-06
5.22788e-06
5.22852e-06
5.2292e-06
5.22993e-06
5.23071e-06
5.23156e-06
5.23248e-06
5.23346e-06
5.23451e-06
5.23562e-06
5.23677e-06
5.23798e-06
5.23916e-06
5.24049e-06
5.24145e-06
5.24267e-06
5.21191e-06
5.21405e-06
5.21255e-06
5.21401e-06
5.21519e-06
5.21484e-06
5.21358e-06
5.21221e-06
5.21111e-06
5.21053e-06
5.21062e-06
5.21124e-06
5.21218e-06
5.21326e-06
5.21437e-06
5.21545e-06
5.21646e-06
5.2174e-06
5.21827e-06
5.21909e-06
5.21987e-06
5.2206e-06
5.22129e-06
5.22194e-06
5.22257e-06
5.22316e-06
5.22373e-06
5.22429e-06
5.22482e-06
5.22535e-06
5.22588e-06
5.2264e-06
5.22694e-06
5.2275e-06
5.22809e-06
5.22872e-06
5.22939e-06
5.23012e-06
5.23091e-06
5.23177e-06
5.23271e-06
5.23371e-06
5.23478e-06
5.23591e-06
5.23709e-06
5.23832e-06
5.23953e-06
5.24087e-06
5.24184e-06
5.24303e-06
5.21193e-06
5.21366e-06
5.21239e-06
5.21394e-06
5.21501e-06
5.21456e-06
5.21331e-06
5.212e-06
5.21096e-06
5.21046e-06
5.21062e-06
5.21129e-06
5.21225e-06
5.21334e-06
5.21445e-06
5.21551e-06
5.2165e-06
5.21742e-06
5.21827e-06
5.21908e-06
5.21983e-06
5.22055e-06
5.22122e-06
5.22186e-06
5.22247e-06
5.22305e-06
5.2236e-06
5.22413e-06
5.22464e-06
5.22514e-06
5.22563e-06
5.22613e-06
5.22663e-06
5.22714e-06
5.22769e-06
5.22826e-06
5.22888e-06
5.22955e-06
5.23029e-06
5.23109e-06
5.23197e-06
5.23292e-06
5.23394e-06
5.23504e-06
5.2362e-06
5.2374e-06
5.23866e-06
5.23988e-06
5.24124e-06
5.24222e-06
5.24338e-06
5.21193e-06
5.21329e-06
5.21227e-06
5.21387e-06
5.21481e-06
5.2143e-06
5.21306e-06
5.2118e-06
5.21083e-06
5.2104e-06
5.21062e-06
5.21134e-06
5.21233e-06
5.21343e-06
5.21452e-06
5.21556e-06
5.21653e-06
5.21743e-06
5.21827e-06
5.21906e-06
5.2198e-06
5.2205e-06
5.22116e-06
5.22179e-06
5.22238e-06
5.22294e-06
5.22347e-06
5.22398e-06
5.22447e-06
5.22494e-06
5.22541e-06
5.22587e-06
5.22633e-06
5.22681e-06
5.22731e-06
5.22783e-06
5.2284e-06
5.22901e-06
5.22969e-06
5.23043e-06
5.23125e-06
5.23214e-06
5.23311e-06
5.23417e-06
5.23529e-06
5.23648e-06
5.23771e-06
5.23899e-06
5.24023e-06
5.2416e-06
5.24259e-06
5.2437e-06
5.2119e-06
5.21293e-06
5.21218e-06
5.21379e-06
5.21462e-06
5.21405e-06
5.21282e-06
5.21161e-06
5.21071e-06
5.21035e-06
5.21063e-06
5.21139e-06
5.21241e-06
5.21351e-06
5.21459e-06
5.21561e-06
5.21656e-06
5.21745e-06
5.21827e-06
5.21905e-06
5.21977e-06
5.22046e-06
5.22111e-06
5.22172e-06
5.22229e-06
5.22284e-06
5.22335e-06
5.22384e-06
5.22431e-06
5.22476e-06
5.2252e-06
5.22563e-06
5.22606e-06
5.2265e-06
5.22695e-06
5.22743e-06
5.22794e-06
5.2285e-06
5.22912e-06
5.2298e-06
5.23055e-06
5.23139e-06
5.2323e-06
5.2333e-06
5.23438e-06
5.23553e-06
5.23675e-06
5.23801e-06
5.23931e-06
5.24057e-06
5.24195e-06
5.24295e-06
5.24402e-06
5.21185e-06
5.21258e-06
5.21208e-06
5.2137e-06
5.21442e-06
5.2138e-06
5.21259e-06
5.21143e-06
5.2106e-06
5.2103e-06
5.21065e-06
5.21145e-06
5.21248e-06
5.21358e-06
5.21465e-06
5.21566e-06
5.21659e-06
5.21746e-06
5.21827e-06
5.21903e-06
5.21975e-06
5.22042e-06
5.22105e-06
5.22165e-06
5.22221e-06
5.22274e-06
5.22324e-06
5.22371e-06
5.22416e-06
5.22459e-06
5.225e-06
5.22541e-06
5.22581e-06
5.22621e-06
5.22662e-06
5.22706e-06
5.22752e-06
5.22803e-06
5.22858e-06
5.2292e-06
5.22989e-06
5.23066e-06
5.23151e-06
5.23245e-06
5.23348e-06
5.23459e-06
5.23577e-06
5.23702e-06
5.2383e-06
5.23963e-06
5.2409e-06
5.24229e-06
5.2433e-06
5.24431e-06
5.21178e-06
5.21225e-06
5.21199e-06
5.21361e-06
5.21422e-06
5.21356e-06
5.21238e-06
5.21126e-06
5.21049e-06
5.21027e-06
5.21068e-06
5.21151e-06
5.21256e-06
5.21365e-06
5.21471e-06
5.2157e-06
5.21662e-06
5.21747e-06
5.21827e-06
5.21902e-06
5.21972e-06
5.22038e-06
5.221e-06
5.22159e-06
5.22214e-06
5.22265e-06
5.22314e-06
5.22359e-06
5.22402e-06
5.22443e-06
5.22483e-06
5.2252e-06
5.22558e-06
5.22595e-06
5.22632e-06
5.22671e-06
5.22713e-06
5.22759e-06
5.22809e-06
5.22864e-06
5.22927e-06
5.22997e-06
5.23075e-06
5.23163e-06
5.23259e-06
5.23365e-06
5.23479e-06
5.23601e-06
5.23729e-06
5.2386e-06
5.23995e-06
5.24123e-06
5.24263e-06
5.24364e-06
5.24459e-06
5.21169e-06
5.21194e-06
5.2119e-06
5.21351e-06
5.21402e-06
5.21334e-06
5.21217e-06
5.21111e-06
5.2104e-06
5.21024e-06
5.21071e-06
5.21158e-06
5.21264e-06
5.21372e-06
5.21477e-06
5.21574e-06
5.21664e-06
5.21748e-06
5.21826e-06
5.219e-06
5.21969e-06
5.22035e-06
5.22096e-06
5.22153e-06
5.22207e-06
5.22257e-06
5.22304e-06
5.22348e-06
5.2239e-06
5.22429e-06
5.22466e-06
5.22502e-06
5.22536e-06
5.2257e-06
5.22605e-06
5.2264e-06
5.22678e-06
5.22718e-06
5.22762e-06
5.22812e-06
5.22868e-06
5.22931e-06
5.23003e-06
5.23084e-06
5.23174e-06
5.23273e-06
5.23382e-06
5.235e-06
5.23625e-06
5.23755e-06
5.23889e-06
5.24026e-06
5.24156e-06
5.24296e-06
5.24397e-06
5.24485e-06
5.21159e-06
5.21165e-06
5.21182e-06
5.2134e-06
5.21383e-06
5.21312e-06
5.21198e-06
5.21096e-06
5.21032e-06
5.21022e-06
5.21074e-06
5.21164e-06
5.21271e-06
5.21379e-06
5.21482e-06
5.21577e-06
5.21666e-06
5.21749e-06
5.21826e-06
5.21899e-06
5.21967e-06
5.22031e-06
5.22091e-06
5.22148e-06
5.222e-06
5.22249e-06
5.22295e-06
5.22338e-06
5.22378e-06
5.22416e-06
5.22451e-06
5.22485e-06
5.22517e-06
5.22548e-06
5.2258e-06
5.22612e-06
5.22645e-06
5.22681e-06
5.2272e-06
5.22764e-06
5.22814e-06
5.2287e-06
5.22935e-06
5.23008e-06
5.23091e-06
5.23184e-06
5.23287e-06
5.234e-06
5.23521e-06
5.23649e-06
5.23783e-06
5.23919e-06
5.24058e-06
5.24189e-06
5.24329e-06
5.2443e-06
5.2451e-06
5.21147e-06
5.21138e-06
5.21174e-06
5.21329e-06
5.21364e-06
5.21291e-06
5.21179e-06
5.21082e-06
5.21024e-06
5.21021e-06
5.21078e-06
5.21171e-06
5.21278e-06
5.21385e-06
5.21486e-06
5.2158e-06
5.21668e-06
5.21749e-06
5.21826e-06
5.21898e-06
5.21965e-06
5.22028e-06
5.22087e-06
5.22143e-06
5.22194e-06
5.22242e-06
5.22287e-06
5.22329e-06
5.22367e-06
5.22404e-06
5.22437e-06
5.22469e-06
5.225e-06
5.22529e-06
5.22557e-06
5.22586e-06
5.22616e-06
5.22647e-06
5.22682e-06
5.2272e-06
5.22764e-06
5.22814e-06
5.22872e-06
5.22938e-06
5.23013e-06
5.23099e-06
5.23195e-06
5.23301e-06
5.23417e-06
5.23542e-06
5.23674e-06
5.23811e-06
5.2395e-06
5.2409e-06
5.24222e-06
5.24362e-06
5.24462e-06
5.24534e-06
5.21134e-06
5.21113e-06
5.21167e-06
5.21318e-06
5.21345e-06
5.2127e-06
5.21161e-06
5.21069e-06
5.21017e-06
5.21021e-06
5.21082e-06
5.21178e-06
5.21285e-06
5.21391e-06
5.21491e-06
5.21583e-06
5.21669e-06
5.2175e-06
5.21826e-06
5.21896e-06
5.21963e-06
5.22025e-06
5.22083e-06
5.22138e-06
5.22188e-06
5.22236e-06
5.22279e-06
5.2232e-06
5.22358e-06
5.22393e-06
5.22425e-06
5.22455e-06
5.22484e-06
5.22511e-06
5.22537e-06
5.22563e-06
5.2259e-06
5.22617e-06
5.22647e-06
5.22681e-06
5.22719e-06
5.22762e-06
5.22813e-06
5.22872e-06
5.2294e-06
5.23018e-06
5.23107e-06
5.23206e-06
5.23316e-06
5.23436e-06
5.23564e-06
5.23699e-06
5.23839e-06
5.2398e-06
5.24122e-06
5.24255e-06
5.24394e-06
5.24493e-06
5.24555e-06
5.2112e-06
5.2109e-06
5.2116e-06
5.21306e-06
5.21326e-06
5.21251e-06
5.21144e-06
5.21056e-06
5.21011e-06
5.21021e-06
5.21087e-06
5.21184e-06
5.21291e-06
5.21396e-06
5.21495e-06
5.21586e-06
5.21671e-06
5.21751e-06
5.21825e-06
5.21895e-06
5.21961e-06
5.22023e-06
5.2208e-06
5.22133e-06
5.22183e-06
5.2223e-06
5.22272e-06
5.22312e-06
5.22349e-06
5.22382e-06
5.22414e-06
5.22443e-06
5.2247e-06
5.22495e-06
5.22519e-06
5.22543e-06
5.22566e-06
5.22591e-06
5.22617e-06
5.22645e-06
5.22678e-06
5.22716e-06
5.2276e-06
5.22811e-06
5.22872e-06
5.22942e-06
5.23023e-06
5.23115e-06
5.23218e-06
5.23331e-06
5.23455e-06
5.23587e-06
5.23726e-06
5.23869e-06
5.24012e-06
5.24155e-06
5.24288e-06
5.24425e-06
5.24523e-06
5.24575e-06
5.21104e-06
5.2107e-06
5.21153e-06
5.21294e-06
5.21308e-06
5.21232e-06
5.21128e-06
5.21045e-06
5.21006e-06
5.21021e-06
5.21091e-06
5.21191e-06
5.21298e-06
5.21402e-06
5.21499e-06
5.21589e-06
5.21673e-06
5.21751e-06
5.21825e-06
5.21894e-06
5.21959e-06
5.2202e-06
5.22077e-06
5.22129e-06
5.22178e-06
5.22224e-06
5.22266e-06
5.22305e-06
5.2234e-06
5.22373e-06
5.22403e-06
5.22431e-06
5.22457e-06
5.22481e-06
5.22503e-06
5.22525e-06
5.22546e-06
5.22567e-06
5.2259e-06
5.22614e-06
5.22642e-06
5.22674e-06
5.22712e-06
5.22756e-06
5.22809e-06
5.22871e-06
5.22944e-06
5.23028e-06
5.23123e-06
5.2323e-06
5.23348e-06
5.23476e-06
5.23612e-06
5.23754e-06
5.23899e-06
5.24044e-06
5.24188e-06
5.2432e-06
5.24457e-06
5.24552e-06
5.24594e-06
5.21088e-06
5.21051e-06
5.21146e-06
5.21282e-06
5.2129e-06
5.21214e-06
5.21113e-06
5.21034e-06
5.21001e-06
5.21022e-06
5.21096e-06
5.21197e-06
5.21304e-06
5.21406e-06
5.21502e-06
5.21591e-06
5.21674e-06
5.21752e-06
5.21825e-06
5.21894e-06
5.21958e-06
5.22018e-06
5.22074e-06
5.22126e-06
5.22174e-06
5.22219e-06
5.2226e-06
5.22298e-06
5.22333e-06
5.22365e-06
5.22394e-06
5.22421e-06
5.22445e-06
5.22468e-06
5.22489e-06
5.22509e-06
5.22528e-06
5.22546e-06
5.22566e-06
5.22587e-06
5.2261e-06
5.22637e-06
5.22669e-06
5.22706e-06
5.22752e-06
5.22806e-06
5.22871e-06
5.22946e-06
5.23033e-06
5.23133e-06
5.23244e-06
5.23366e-06
5.23498e-06
5.23637e-06
5.23783e-06
5.23931e-06
5.24078e-06
5.24222e-06
5.24353e-06
5.24487e-06
5.24581e-06
5.24611e-06
5.21072e-06
5.21035e-06
5.21139e-06
5.2127e-06
5.21273e-06
5.21197e-06
5.21098e-06
5.21023e-06
5.20997e-06
5.21024e-06
5.21101e-06
5.21203e-06
5.21309e-06
5.21411e-06
5.21505e-06
5.21593e-06
5.21675e-06
5.21752e-06
5.21825e-06
5.21893e-06
5.21956e-06
5.22016e-06
5.22071e-06
5.22122e-06
5.2217e-06
5.22214e-06
5.22255e-06
5.22292e-06
5.22326e-06
5.22357e-06
5.22386e-06
5.22412e-06
5.22435e-06
5.22457e-06
5.22476e-06
5.22495e-06
5.22512e-06
5.22529e-06
5.22545e-06
5.22563e-06
5.22582e-06
5.22605e-06
5.22631e-06
5.22662e-06
5.22701e-06
5.22747e-06
5.22804e-06
5.2287e-06
5.22949e-06
5.2304e-06
5.23143e-06
5.23259e-06
5.23385e-06
5.23521e-06
5.23665e-06
5.23813e-06
5.23964e-06
5.24112e-06
5.24256e-06
5.24387e-06
5.24518e-06
5.24608e-06
5.24625e-06
5.21054e-06
5.21021e-06
5.21133e-06
5.21257e-06
5.21256e-06
5.2118e-06
5.21084e-06
5.21014e-06
5.20993e-06
5.21026e-06
5.21106e-06
5.21209e-06
5.21315e-06
5.21415e-06
5.21508e-06
5.21595e-06
5.21676e-06
5.21753e-06
5.21825e-06
5.21892e-06
5.21955e-06
5.22014e-06
5.22068e-06
5.22119e-06
5.22166e-06
5.2221e-06
5.2225e-06
5.22286e-06
5.2232e-06
5.22351e-06
5.22378e-06
5.22404e-06
5.22426e-06
5.22447e-06
5.22466e-06
5.22483e-06
5.22498e-06
5.22513e-06
5.22528e-06
5.22543e-06
5.22559e-06
5.22577e-06
5.22598e-06
5.22624e-06
5.22656e-06
5.22695e-06
5.22743e-06
5.22801e-06
5.22871e-06
5.22953e-06
5.23048e-06
5.23155e-06
5.23275e-06
5.23406e-06
5.23547e-06
5.23694e-06
5.23845e-06
5.23998e-06
5.24147e-06
5.24291e-06
5.2442e-06
5.24548e-06
5.24634e-06
5.24639e-06
5.21037e-06
5.21009e-06
5.21127e-06
5.21245e-06
5.2124e-06
5.21164e-06
5.2107e-06
5.21005e-06
5.2099e-06
5.21028e-06
5.21111e-06
5.21215e-06
5.2132e-06
5.21419e-06
5.21511e-06
5.21597e-06
5.21678e-06
5.21753e-06
5.21825e-06
5.21891e-06
5.21954e-06
5.22012e-06
5.22066e-06
5.22116e-06
5.22162e-06
5.22205e-06
5.22245e-06
5.22281e-06
5.22314e-06
5.22344e-06
5.22372e-06
5.22396e-06
5.22418e-06
5.22438e-06
5.22456e-06
5.22472e-06
5.22487e-06
5.225e-06
5.22513e-06
5.22525e-06
5.22538e-06
5.22553e-06
5.2257e-06
5.2259e-06
5.22616e-06
5.22648e-06
5.22689e-06
5.22738e-06
5.22799e-06
5.22872e-06
5.22958e-06
5.23057e-06
5.23169e-06
5.23294e-06
5.23429e-06
5.23574e-06
5.23725e-06
5.23879e-06
5.24034e-06
5.24183e-06
5.24327e-06
5.24453e-06
5.24577e-06
5.24659e-06
5.24657e-06
5.21019e-06
5.20999e-06
5.2112e-06
5.21232e-06
5.21224e-06
5.21149e-06
5.21057e-06
5.20996e-06
5.20987e-06
5.2103e-06
5.21117e-06
5.2122e-06
5.21324e-06
5.21422e-06
5.21514e-06
5.21599e-06
5.21679e-06
5.21754e-06
5.21824e-06
5.21891e-06
5.21952e-06
5.2201e-06
5.22063e-06
5.22113e-06
5.22159e-06
5.22202e-06
5.22241e-06
5.22277e-06
5.22309e-06
5.22339e-06
5.22365e-06
5.2239e-06
5.22411e-06
5.22431e-06
5.22448e-06
5.22463e-06
5.22477e-06
5.22489e-06
5.225e-06
5.22511e-06
5.22522e-06
5.22533e-06
5.22546e-06
5.22562e-06
5.22582e-06
5.22608e-06
5.22641e-06
5.22682e-06
5.22734e-06
5.22798e-06
5.22875e-06
5.22964e-06
5.23068e-06
5.23185e-06
5.23314e-06
5.23455e-06
5.23603e-06
5.23758e-06
5.23915e-06
5.24071e-06
5.24221e-06
5.24363e-06
5.24486e-06
5.24605e-06
5.24682e-06
5.24677e-06
5.21001e-06
5.20991e-06
5.21114e-06
5.21219e-06
5.21209e-06
5.21134e-06
5.21045e-06
5.20988e-06
5.20985e-06
5.21033e-06
5.21122e-06
5.21225e-06
5.21329e-06
5.21426e-06
5.21516e-06
5.216e-06
5.2168e-06
5.21754e-06
5.21824e-06
5.2189e-06
5.21951e-06
5.22008e-06
5.22061e-06
5.22111e-06
5.22156e-06
5.22198e-06
5.22237e-06
5.22272e-06
5.22304e-06
5.22334e-06
5.2236e-06
5.22384e-06
5.22405e-06
5.22424e-06
5.22441e-06
5.22456e-06
5.22469e-06
5.2248e-06
5.2249e-06
5.22499e-06
5.22508e-06
5.22517e-06
5.22527e-06
5.22539e-06
5.22554e-06
5.22574e-06
5.226e-06
5.22633e-06
5.22677e-06
5.22731e-06
5.22798e-06
5.22878e-06
5.22973e-06
5.23081e-06
5.23203e-06
5.23337e-06
5.23482e-06
5.23635e-06
5.23793e-06
5.23952e-06
5.24109e-06
5.24259e-06
5.24399e-06
5.24519e-06
5.24633e-06
5.24703e-06
5.24698e-06
5.20982e-06
5.20984e-06
5.21107e-06
5.21207e-06
5.21194e-06
5.21119e-06
5.21033e-06
5.20981e-06
5.20983e-06
5.21036e-06
5.21127e-06
5.21231e-06
5.21333e-06
5.21429e-06
5.21518e-06
5.21602e-06
5.21681e-06
5.21755e-06
5.21824e-06
5.21889e-06
5.2195e-06
5.22007e-06
5.22059e-06
5.22108e-06
5.22153e-06
5.22195e-06
5.22233e-06
5.22268e-06
5.223e-06
5.22329e-06
5.22355e-06
5.22379e-06
5.224e-06
5.22418e-06
5.22435e-06
5.22449e-06
5.22461e-06
5.22472e-06
5.22481e-06
5.22489e-06
5.22497e-06
5.22504e-06
5.22511e-06
5.22519e-06
5.2253e-06
5.22545e-06
5.22565e-06
5.22591e-06
5.22626e-06
5.22672e-06
5.22729e-06
5.22799e-06
5.22884e-06
5.22983e-06
5.23096e-06
5.23223e-06
5.23363e-06
5.23512e-06
5.23669e-06
5.2383e-06
5.23992e-06
5.24149e-06
5.24298e-06
5.24436e-06
5.24551e-06
5.2466e-06
5.24721e-06
5.24719e-06
5.20964e-06
5.20977e-06
5.21101e-06
5.21194e-06
5.2118e-06
5.21105e-06
5.21021e-06
5.20974e-06
5.20982e-06
5.21038e-06
5.21131e-06
5.21235e-06
5.21337e-06
5.21432e-06
5.2152e-06
5.21603e-06
5.21682e-06
5.21755e-06
5.21824e-06
5.21889e-06
5.21949e-06
5.22005e-06
5.22058e-06
5.22106e-06
5.22151e-06
5.22192e-06
5.2223e-06
5.22265e-06
5.22296e-06
5.22325e-06
5.22351e-06
5.22374e-06
5.22395e-06
5.22413e-06
5.22429e-06
5.22443e-06
5.22456e-06
5.22466e-06
5.22475e-06
5.22482e-06
5.22488e-06
5.22493e-06
5.22498e-06
5.22504e-06
5.22512e-06
5.22522e-06
5.22536e-06
5.22556e-06
5.22583e-06
5.2262e-06
5.22668e-06
5.22728e-06
5.22802e-06
5.22891e-06
5.22995e-06
5.23114e-06
5.23246e-06
5.23391e-06
5.23545e-06
5.23706e-06
5.2387e-06
5.24033e-06
5.24191e-06
5.24338e-06
5.24473e-06
5.24584e-06
5.24686e-06
5.24737e-06
5.2474e-06
5.20946e-06
5.20971e-06
5.21094e-06
5.21182e-06
5.21166e-06
5.21092e-06
5.2101e-06
5.20967e-06
5.20981e-06
5.21042e-06
5.21136e-06
5.2124e-06
5.2134e-06
5.21434e-06
5.21522e-06
5.21605e-06
5.21682e-06
5.21756e-06
5.21824e-06
5.21888e-06
5.21948e-06
5.22004e-06
5.22056e-06
5.22104e-06
5.22148e-06
5.22189e-06
5.22227e-06
5.22261e-06
5.22293e-06
5.22321e-06
5.22347e-06
5.2237e-06
5.22391e-06
5.22409e-06
5.22425e-06
5.22439e-06
5.22451e-06
5.22461e-06
5.22469e-06
5.22476e-06
5.22481e-06
5.22485e-06
5.22489e-06
5.22493e-06
5.22497e-06
5.22503e-06
5.22513e-06
5.22527e-06
5.22547e-06
5.22576e-06