/*--------------------------------*- C++ -*----------------------------------*\
  =========                 |
  \\      /  F ield         | OpenFOAM: The Open Source CFD Toolbox
   \\    /   O peration     | Website:  https://openfoam.org
    \\  /    A nd           | Version:  7
     \\/     M anipulation  |
\*---------------------------------------------------------------------------*/
FoamFile
{
    version     2.0;
    format      ascii;
    class       volScalarField;
    location    "200";
    object      p;
}
// * * * * * * * * * * * * * * * * * * * * * * * * * * * * * * * * * * * * * //

dimensions      [0 2 -2 0 0 0 0];

internalField   nonuniform List<scalar> 
92256
(
1.45088
4.1156
0.340515
6.29371
1.28178
0.410278
7.94146
2.62029
1.34745
0.479043
9.31779
3.75207
2.52623
1.47521
0.416425
10.5003
4.76222
3.56717
2.68846
1.23218
0.425984
11.5498
5.63198
4.5511
3.73688
2.37773
1.14711
0.44962
12.4974
6.39712
5.44509
4.72373
3.37422
2.26198
1.09775
0.460051
13.3648
7.07443
6.2677
5.62346
4.32962
3.22317
2.20447
1.04457
0.459818
14.1655
7.6804
7.02494
6.455
5.20763
4.16146
3.13956
2.13789
1.01827
0.445994
14.9106
8.22683
7.72694
7.22266
6.02646
5.03094
4.06249
3.04927
2.09142
1.01048
0.423903
15.6072
8.72271
8.38124
7.93472
6.78834
5.84981
4.91993
3.95798
2.98331
2.0583
1.0088
0.403891
16.2614
9.17514
8.9946
8.59721
7.50037
6.61774
5.73233
4.80399
3.87892
2.93522
2.03071
1.00714
0.392756
16.878
9.58979
9.57237
9.21591
8.16762
7.34063
6.49782
5.60975
4.71512
3.81814
2.89666
2.00833
1.00189
0.39184
17.4602
9.97098
10.1191
9.79551
8.7951
8.02235
7.22184
6.37226
5.51499
4.64518
3.76804
2.86611
1.99063
0.992849
0.398571
18.0122
10.3226
10.6383
10.3401
9.38701
8.66709
7.90753
7.09675
6.2747
5.43876
4.5869
3.72759
2.8417
1.97705
0.982291
0.409042
18.5361
10.6473
11.1332
10.8531
9.94713
9.27834
8.55862
7.78591
6.99931
6.19477
5.37422
4.53906
3.69498
2.822
1.9675
0.972768
0.420168
19.0345
10.9476
11.6062
11.3374
10.4786
9.85933
9.17822
8.44313
7.69114
6.91807
6.12605
5.32012
4.49951
3.66867
2.80665
1.96197
0.965986
0.430507
19.5091
11.2258
12.0594
11.7953
10.9842
10.4128
9.76927
9.07122
8.35336
7.61079
6.84706
6.06716
5.27412
4.46648
3.64795
2.79576
1.96043
0.962664
0.43996
19.962
11.4837
12.4945
12.2289
11.4662
10.9411
10.3343
9.67289
8.98856
8.27598
7.53935
6.78479
6.01561
5.23443
4.43917
3.63259
2.78962
1.96294
0.962848
0.449096
20.3945
11.7227
12.913
12.6399
11.9266
11.4463
10.8755
10.2505
9.59929
8.91612
8.20594
7.47521
6.72867
5.9696
5.20019
4.41728
3.62263
2.78855
1.96963
0.966321
0.458587
20.8081
11.9443
13.316
13.0297
12.367
11.9299
11.3948
10.806
10.1877
9.53368
8.84932
8.14151
7.41568
6.6769
5.92824
5.17105
4.40084
3.61826
2.79285
1.9807
0.972879
0.468931
21.2041
12.1497
13.7047
13.3996
12.7888
12.3934
11.8937
11.3411
10.7557
10.1307
9.47197
8.78628
8.07993
7.359
6.62859
5.89113
5.14696
4.39004
3.61978
2.80278
1.9964
0.982438
0.48043
21.5836
12.3398
14.08
13.7507
13.1933
12.838
12.3735
11.8573
11.3049
10.7092
10.076
9.41209
8.72418
8.01944
7.30423
6.58327
5.85817
5.12807
4.38518
3.6275
2.81861
2.01698
0.995032
0.493242
21.9479
12.5158
14.4428
14.0838
13.5815
13.2648
12.8355
12.3556
11.8365
11.2705
10.6632
10.0211
9.35118
8.66126
7.95906
7.25085
6.54081
5.82951
5.11468
4.38663
3.64177
2.8406
2.04268
1.01076
0.50746
22.2976
12.6784
14.7936
14.3999
13.9544
13.6744
13.2804
12.8371
12.3516
11.8159
11.2352
10.6153
9.96327
9.28746
8.59646
7.89819
7.19866
6.5013
5.80541
5.10716
4.39476
3.66295
2.86903
2.07374
1.02972
0.523171
22.634
12.8284
15.1331
14.6997
14.3126
14.0678
13.709
13.3026
12.8511
12.3464
11.793
11.1962
10.5625
9.90059
9.21976
8.5291
7.83656
7.14771
6.46499
5.78627
5.10593
4.40997
3.69138
2.90416
2.11037
1.05205
0.540474
22.9576
12.9666
15.4618
14.9838
14.657
14.4453
14.1221
13.7525
13.3355
12.8626
12.3377
11.7649
11.1505
10.5029
9.83179
9.14727
8.45878
7.77413
7.09821
6.43227
5.77252
5.11142
4.43265
3.72738
2.94624
2.15278
1.07783
0.55948
23.2695
13.0936
15.7803
15.2529
14.9882
14.8076
14.5201
14.1875
13.8054
13.3652
12.8698
12.3224
11.7286
11.0962
10.4351
9.75592
9.06949
8.3854
7.71109
7.05054
6.40361
5.76466
5.1241
4.46318
3.77126
2.99547
2.20112
1.10713
0.580311
23.5702
13.21
16.0889
15.5075
15.3067
15.1552
14.9036
14.6078
14.2611
13.8545
13.3899
12.8693
12.2975
11.6818
11.0316
10.3579
9.67234
8.98621
8.30908
7.64779
7.00519
6.37953
5.76317
5.14436
4.50187
3.82324
3.05203
2.25552
1.14001
0.603098
23.8605
13.3165
16.3882
15.7482
15.613
15.4883
15.2728
15.0137
14.7028
14.3307
13.8981
13.406
12.858
12.2607
11.6228
10.9554
10.2705
9.58072
8.89747
8.23012
7.5847
6.9627
6.36057
5.76853
5.17259
4.549
3.88351
3.11602
2.31609
1.1765
0.627973
24.141
13.4136
16.6784
15.9756
15.9075
15.8074
15.6282
15.4056
15.1308
14.7938
14.3946
13.9326
13.4104
12.8335
12.2099
11.5502
10.8667
10.1726
9.481
8.80352
8.149
7.52241
6.92367
6.34726
5.78116
5.2091
4.60477
3.9522
3.18752
2.38289
1.2166
0.655073
24.4122
13.5018
16.96
16.19
16.1908
16.1129
15.97
15.7835
15.545
15.2441
14.8793
14.4491
13.9547
13.4005
12.7935
12.1435
11.4628
10.7648
10.0639
9.37335
8.70479
8.0663
7.46155
6.8887
6.34012
5.80147
5.25415
4.66932
4.02936
3.26653
2.45595
1.26032
0.684549
24.6749
13.5817
17.2331
16.3921
16.4633
16.405
16.2986
16.1476
15.9457
15.6812
15.3521
14.9552
14.4908
13.9617
13.3738
12.7361
12.0602
11.3598
10.6495
9.94438
9.25812
8.60184
7.98267
7.40277
6.85836
6.3396
5.82975
5.3079
4.7427
4.11498
3.353
2.53528
1.30764
0.716556
24.9294
13.6537
17.4982
16.5823
16.7252
16.684
16.6143
16.4981
16.3328
16.1053
15.8128
15.4508
15.0183
14.5168
13.9509
13.3284
12.66
11.9591
11.2406
10.5206
9.81444
9.13586
8.49535
7.89883
7.34675
6.83323
6.34611
5.86624
5.37046
4.8249
4.20898
3.44683
2.62083
1.35851
0.751264
25.1761
13.7182
17.7555
16.7611
16.977
16.9504
16.9172
16.8351
16.7064
16.5163
16.2611
15.9355
15.5369
15.0654
14.5244
13.9202
13.2625
12.5639
11.8393
11.1052
10.3783
9.67452
9.00723
8.38607
7.81552
7.29413
6.81379
6.35998
5.91111
5.44182
4.91579
4.31119
3.54787
2.71255
1.41287
0.788843
25.4155
13.7759
18.0052
16.929
17.2191
17.2044
17.2078
17.1589
17.0665
16.9139
16.6969
16.4088
16.0459
15.607
15.0938
14.5112
13.8676
13.1747
12.4469
11.7006
10.9535
10.2231
9.52524
8.873
8.2748
7.73349
7.24553
6.80049
6.38145
5.96442
5.5219
5.01521
4.42142
3.65593
2.81035
1.47063
0.829492
25.6482
13.8271
18.2476
17.0863
17.4517
17.4463
17.4862
17.4694
17.4132
17.2981
17.1198
16.8703
16.5448
16.1407
15.6582
15.1006
14.475
13.7916
13.064
12.3084
11.5428
10.7858
10.0554
9.36736
8.734
8.16237
7.65345
7.20151
6.7937
6.4107
6.02615
5.61053
5.12291
4.5394
3.77074
2.9141
1.53171
0.873415
25.8743
13.8723
18.4829
17.2337
17.6753
17.6764
17.7528
17.767
17.7467
17.6689
17.5295
17.3196
17.033
16.6659
16.2168
15.6877
15.0838
14.414
13.6908
12.9296
12.1482
11.366
10.6025
9.87595
9.20175
8.59113
8.0496
7.57611
7.16257
6.79371
6.44779
6.09619
5.70749
5.23856
4.66479
3.89201
3.02366
1.59598
0.920827
26.0943
13.9118
18.7113
17.3716
17.89
17.8952
18.0079
18.0518
18.0669
18.0262
17.926
17.7562
17.5098
17.1816
16.7686
16.2712
15.6929
15.0412
14.3268
13.5643
12.771
11.9663
11.1707
10.4044
9.68568
9.02933
8.4453
7.93732
7.5021
7.12916
6.80073
6.49273
6.17436
5.81245
5.36178
4.79721
4.01942
3.13885
1.66329
0.971954
26.3084
13.9461
18.933
17.5003
18.0962
18.1029
18.2517
18.3241
18.374
18.3699
18.309
18.1798
17.9747
17.687
17.3126
16.85
16.3012
15.6718
14.9711
14.2122
13.4115
12.588
11.7628
10.9574
10.1923
9.48551
8.8511
8.29746
7.82631
7.43204
7.10164
6.81488
6.54541
6.2604
5.92504
5.49213
4.93626
4.15258
3.2595
1.73349
1.02704
26.5171
13.9756
19.1481
17.6205
18.2942
18.3
18.4846
18.5841
18.6683
18.7002
18.6784
18.5901
18.427
18.1814
17.8477
17.4229
16.9072
16.3045
15.6224
14.8722
14.0693
13.2318
12.3808
11.5383
10.7268
9.96696
9.27646
8.66808
8.14853
7.71734
7.36643
7.08027
6.8362
6.60569
6.35396
6.04481
5.62912
5.08146
4.29109
3.38537
1.80639
1.08631
26.7205
14.0007
19.3569
17.7324
18.4843
18.4867
18.7069
18.8321
18.9498
19.0171
19.034
18.9867
18.8663
18.664
18.3728
17.9885
17.5094
16.9377
16.279
15.5431
14.7435
13.8975
13.0253
12.1495
11.2934
10.4798
9.72961
9.05963
8.48131
7.99941
7.61109
7.30574
7.06527
6.86466
6.67331
6.45466
6.17128
5.77222
5.23231
4.43452
3.51624
1.8818
1.15003
26.9188
14.0217
19.5595
17.8367
18.6667
18.6635
18.9189
19.0683
19.2189
19.3207
19.3759
19.3695
19.2921
19.134
18.8871
18.5456
18.1064
17.5696
16.9392
16.2229
15.4326
14.5841
13.6965
12.7921
11.8948
11.0288
10.2175
9.4813
8.83616
8.29184
7.85096
7.50821
7.25035
7.05676
6.90013
6.74795
6.56204
6.3039
5.92086
5.38829
4.58239
3.65184
1.95952
1.21843
27.1123
14.0391
19.7559
17.9337
18.8418
18.8306
19.121
19.2931
19.4758
19.6112
19.7041
19.7383
19.704
19.5908
19.3894
19.0929
18.6965
18.1985
17.601
16.9098
16.1348
15.29
14.3935
13.4664
12.5326
11.6173
10.7456
9.94094
9.22325
8.60718
8.10067
7.70401
7.40926
7.20055
7.05479
6.94245
6.82927
6.67561
6.44211
6.07445
5.54886
4.73422
3.79192
2.03933
1.29176
27.3014
14.0531
19.9464
18.0238
19.0096
18.9886
19.3134
19.5068
19.7207
19.8887
20.0186
20.0929
20.1018
20.0338
19.8791
19.6293
19.2782
18.8225
18.2623
17.6013
16.8477
16.0133
15.1147
14.1716
13.2074
12.2474
11.318
10.4449
9.65142
8.95668
8.37386
7.90881
7.55931
7.31474
7.15659
7.05932
6.99135
6.91684
6.79483
6.5853
6.23236
5.71344
4.88951
3.9362
2.12101
1.3702
27.4861
14.0641
20.131
18.1076
19.1705
19.1378
19.4966
19.7097
19.9539
20.1535
20.3196
20.4334
20.4851
20.4626
20.3553
20.1537
19.8502
19.4398
18.921
18.2953
17.5688
16.7515
15.8578
14.9061
13.9184
12.9199
11.9373
10.9979
10.1279
9.35019
8.68287
8.13735
7.7172
7.41757
7.22509
7.1186
7.07025
7.04655
7.0102
6.91912
6.73285
6.39395
5.88146
5.04777
4.08436
2.20431
1.45396
27.6667
14.0725
20.3099
18.1853
19.3248
19.2786
19.6709
19.9022
20.1759
20.4058
20.6072
20.7597
20.8538
20.8768
20.8174
20.6651
20.411
20.0488
19.575
18.9893
18.2956
17.5019
16.6203
15.6676
14.6643
13.6344
12.6046
11.6032
10.6583
9.7959
9.03861
8.40308
7.89874
7.52673
7.27941
7.14064
7.08668
7.08745
7.10768
7.10884
7.04789
6.88412
6.5586
6.05237
5.20847
4.23609
2.28901
1.54321
27.8432
14.0785
20.4831
18.2575
19.4725
19.4113
19.8365
20.0846
20.3868
20.646
20.8817
21.072
21.208
21.2761
21.2648
21.1625
20.9595
20.6478
20.2223
19.6809
19.0254
18.2614
17.3993
16.4533
15.4425
14.3893
13.3199
12.2625
11.2464
10.3003
9.45033
8.71805
8.11857
7.65913
7.33823
7.14539
7.06167
7.06083
7.11067
7.17434
7.21224
7.18053
7.03847
6.72568
6.22556
5.37107
4.39106
2.37488
1.63803
28.016
14.0824
20.6507
18.3244
19.614
19.5364
19.9939
20.2574
20.5872
20.8742
21.1433
21.3704
21.5474
21.6603
21.697
21.6454
21.4946
21.2354
20.8611
20.3678
19.7553
19.0272
18.1913
17.26
16.2501
15.1824
14.0817
12.9758
11.8945
10.868
9.92545
9.09259
8.38987
7.83057
7.41954
7.15248
7.016
6.9884
7.041
7.13966
7.2461
7.31984
7.31642
7.19529
6.89455
6.40045
5.53508
4.54891
2.46167
1.73853
28.1852
14.0847
20.8129
18.3865
19.7494
19.6541
20.1433
20.4209
20.7772
21.091
21.3922
21.6552
21.8723
22.0293
22.1137
22.1129
22.0151
21.8101
21.4894
21.0478
20.4828
19.796
18.9931
18.0842
17.0836
16.0104
14.8877
13.742
12.603
11.5018
10.4694
9.53518
8.72415
8.05545
7.54031
7.18095
6.97016
6.89164
6.92094
7.02707
7.17411
7.32249
7.4311
7.45497
7.35393
7.06456
6.5765
5.69997
4.70928
2.54921
1.84471
28.3509
14.0854
20.9695
18.4442
19.879
19.765
20.2852
20.5754
20.9574
21.2966
21.6289
21.9264
22.1827
22.3829
22.5147
22.5647
22.5204
22.3707
22.1058
21.7187
21.2052
20.565
19.8013
18.922
17.9392
16.8697
15.7345
14.5588
13.3712
12.2027
11.0858
10.0522
9.13099
8.34649
7.71616
7.24894
6.94424
6.7919
6.77265
6.85936
7.01889
7.21366
7.40305
7.54545
7.59555
7.51375
7.23513
6.75314
5.86523
4.8718
2.63726
1.95653
28.5133
14.0849
21.1209
18.4978
20.0028
19.8693
20.4198
20.7214
21.1281
21.4915
21.8536
22.1845
22.4788
22.7214
22.8997
23.0002
23.0098
22.9161
22.7086
22.3786
21.9203
21.3311
20.6124
19.7697
18.8127
17.7559
16.6182
15.4227
14.1965
12.9701
11.7762
10.648
9.6178
8.71443
7.96108
7.37333
6.95755
6.71028
6.61826
6.65928
6.80368
7.01623
7.25793
7.48727
7.66232
7.73755
7.67419
7.40568
6.9298
6.0304
5.03609
2.72565
2.07388
28.6727
14.0835
21.2668
18.5477
20.1211
19.9675
20.5474
20.8593
21.2896
21.6759
22.0667
22.4298
22.7608
23.0447
23.2688
23.4193
23.4825
23.4455
23.2966
23.0257
22.6255
22.0916
21.4232
20.6235
19.7
18.6647
17.5342
16.3294
15.0755
13.8017
12.5401
11.3247
10.1898
9.1678
8.28707
7.56941
7.02822
6.6672
6.47981
6.4497
6.55175
6.75383
7.01884
7.30653
7.57465
7.78114
7.8804
7.83464
7.57561
7.10599
6.19498
5.20172
2.81421
2.19662
28.829
14.0813
21.4076
18.5941
20.2341
20.0598
20.6683
20.9894
21.4424
21.8504
22.2686
22.6625
23.0292
23.3531
23.6219
23.8216
23.9382
23.9581
23.8686
23.6585
23.319
22.8439
22.2305
21.4797
20.5969
19.5915
18.4777
17.2741
16.0038
14.6939
13.3755
12.0823
10.8498
9.71277
8.70385
7.8505
7.17288
6.68207
6.37886
6.25353
6.28661
6.45016
6.7097
7.02645
7.35903
7.66467
7.90137
8.02354
7.99454
7.74441
7.28119
6.35853
5.3683
2.90278
2.32453
28.9824
14.0785
21.5432
18.6375
20.3419
20.1466
20.7829
21.1121
21.5869
22.0152
22.4598
22.8831
23.284
23.6467
23.9592
24.2072
24.3766
24.4532
24.4236
24.2756
23.9988
23.5856
23.0313
22.3348
21.4992
20.5316
19.4437
18.2516
16.9761
15.6421
14.2788
12.9191
11.5984
10.353
9.21865
8.22759
7.40624
6.77291
6.33607
6.09343
6.03205
6.12933
6.35458
6.67116
7.03872
7.41499
7.75685
8.02248
8.16639
8.15338
7.91156
7.45491
6.52061
5.53541
2.99125
2.45731
29.1331
14.0755
21.6735
18.678
20.4447
20.2283
20.8914
21.2277
21.7233
22.1709
22.6405
23.092
23.5258
23.926
24.2808
24.576
24.7974
24.9303
24.9608
24.8756
24.6633
24.3145
23.8229
23.1854
22.403
21.4804
20.4269
19.2563
17.9867
16.6406
15.2452
13.8315
12.434
11.0897
9.83606
8.70909
7.74065
6.95584
6.37085
5.99132
5.81175
5.8159
5.9781
6.26502
6.63799
7.0553
7.47398
7.85067
8.14392
8.30847
8.31065
8.07657
7.62668
6.68082
5.70264
3.07949
2.5946
29.2812
14.0724
21.7988
18.7161
20.5427
20.3051
20.9942
21.3367
21.8521
22.3177
22.8112
23.2895
23.7549
24.1911
24.587
24.9282
25.2005
25.3892
25.4795
25.4576
25.3109
25.0286
24.6027
24.0285
23.3045
22.4336
21.4226
20.2827
19.0297
17.6835
16.2687
14.8143
13.3532
11.9216
10.5579
9.3006
8.18577
7.24465
6.50081
5.968
5.64886
5.53457
5.60554
5.8331
6.18142
6.60997
7.07585
7.53555
7.94564
8.26523
8.44929
8.46587
8.239
7.79608
6.8388
5.86954
3.16741
2.73604
29.4268
14.0692
21.919
18.752
20.636
20.3774
21.0915
21.4393
21.9737
22.4562
22.9724
23.4761
23.9717
24.4425
24.878
25.2639
25.586
25.8295
25.9793
26.0208
25.9403
25.7261
25.3686
24.861
24.2003
23.387
22.4257
21.3253
20.0989
18.7641
17.3428
15.8614
14.3507
12.8454
11.3835
10.0048
8.74832
7.65038
6.74124
6.04261
5.56559
5.30966
5.26254
5.40134
5.69446
6.1037
6.58683
7.09998
7.59924
8.0413
8.38591
8.58837
8.61861
8.39843
7.9627
6.99416
6.0357
3.25494
2.88115
29.5701
14.0663
22.0342
18.7859
20.7247
20.4455
21.1835
21.536
22.0885
22.5867
23.1244
23.6523
24.1767
24.6806
25.1542
25.5833
25.954
26.2513
26.4598
26.5644
26.5507
26.4056
26.1184
25.6806
25.0872
24.3367
23.4317
22.3787
21.1884
19.8759
18.4604
16.9656
15.4198
13.8556
12.3096
10.8214
9.43189
8.18097
7.10464
6.232
5.58263
5.16481
4.97459
4.99625
5.20361
5.56224
6.03171
6.5683
7.1273
7.66464
8.1372
8.50552
8.72528
8.76846
8.5545
8.12613
7.1466
6.20071
3.34201
3.02945
29.7112
14.0637
22.1444
18.8181
20.809
20.5097
21.2706
21.6271
22.1967
22.7097
23.2677
23.8185
24.3702
24.9058
25.4159
25.8868
26.3046
26.6544
26.9207
27.0879
27.1409
27.0658
26.8504
26.4848
25.9622
25.2792
24.4363
23.4379
22.2923
21.0121
19.6142
18.1194
16.5531
14.9454
13.3307
11.7475
10.2369
8.84102
7.6003
6.55023
5.71846
5.12224
4.76671
4.64444
4.73621
5.0126
5.43644
5.96527
6.55404
7.15742
7.7313
8.23289
8.62363
8.85963
8.91506
8.70682
8.28604
7.29582
6.36413
3.42859
3.18041
29.8502
14.0615
22.2497
18.8488
20.8891
20.5703
21.353
21.7129
22.2987
22.8255
23.4027
23.9751
24.5528
25.1185
25.6637
26.1747
26.6381
27.0391
27.3619
27.5909
27.7104
27.7055
27.563
27.2715
26.8227
26.2112
25.4355
24.498
23.405
22.1665
20.797
19.3147
17.7422
16.1066
14.4396
12.7776
11.1606
9.63171
8.23397
7.00805
5.98879
5.20216
4.66271
4.37229
4.31994
4.48287
4.82847
5.31701
5.90417
6.54375
7.18997
7.7988
8.32795
8.73986
8.99108
9.05804
8.8551
8.44209
7.44154
6.52558
3.51461
3.33348
29.9871
14.0599
22.3501
18.8782
20.9651
20.6274
21.431
21.7937
22.3949
22.9344
23.5299
24.1225
24.7249
25.3192
25.8979
26.4474
26.9549
27.4054
27.7835
28.0733
28.2586
28.3239
28.2549
28.039
27.6662
27.1296
26.4258
25.5549
24.5213
23.3329
22.0018
20.5438
18.9786
17.3303
15.6276
13.9041
12.1978
10.5508
9.00768
7.61247
6.40593
5.42198
4.68452
4.20521
3.98251
4.00174
4.23657
4.65132
5.20387
5.84816
6.53709
7.22453
7.86675
8.422
8.85385
9.11924
9.1971
8.99907
8.59397
7.58351
6.68466
3.60005
3.48813
30.122
14.0589
22.4456
18.9066
21.0371
20.6814
21.5047
21.8698
22.4855
23.0369
23.6495
24.2613
24.8869
25.5085
26.119
26.7054
27.2551
27.7536
28.1856
28.5349
28.7852
28.9202
28.925
28.7857
28.4908
28.0319
27.4037
26.6045
25.6365
24.5057
23.2221
21.7989
20.2536
18.6071
16.8851
15.1178
13.3404
11.593
9.91979
8.36655
6.97831
5.79569
4.85134
4.16688
3.75091
3.59823
3.69039
3.9976
4.48123
5.09687
5.797
6.5337
7.26073
7.93476
8.51469
8.96523
9.24385
9.33198
9.13844
8.74141
7.72153
6.841
3.68489
3.64376
30.2555
14.0587
22.5362
18.9341
21.1052
20.7324
21.5745
21.9415
22.571
23.1334
23.7621
24.3917
25.0394
25.6866
26.3275
26.9491
27.5394
28.0842
28.5684
28.9758
29.2899
29.494
29.5724
29.5102
29.2947
28.9157
28.3664
27.6431
26.7462
25.6797
24.4515
23.073
21.5589
19.9277
18.2019
16.4082
14.5786
12.7502
10.9651
9.26929
7.71009
6.33325
5.17896
4.27837
3.6506
3.30087
3.22018
3.38636
3.76618
4.31817
4.99586
5.75038
6.53324
7.29821
8.00247
8.60563
9.07371
9.36462
9.4624
9.27301
8.88418
7.85539
6.99426
3.7691
3.79975
30.3878
14.0593
22.6221
18.9608
21.1697
20.7808
21.6404
22.0091
22.6516
23.2241
23.8679
24.5144
25.1828
25.8543
26.5239
27.179
27.8081
28.3974
28.9321
29.396
29.7726
30.0449
30.1964
30.2115
30.0762
29.779
29.3111
28.6674
27.8464
26.8501
25.6845
24.3591
22.8865
21.2829
19.5676
17.7644
15.9013
14.012
12.1354
10.3158
8.60108
7.0401
5.67899
4.55735
3.70458
3.13693
2.85602
2.84906
3.09007
3.54246
4.1621
4.90062
5.70802
6.53537
7.3366
8.0695
8.69454
9.17903
9.4813
9.58816
9.40259
9.02204
7.98495
7.14409
3.85261
3.95556
30.5183
14.0607
22.7034
18.987
21.2305
20.8267
21.7029
22.0728
22.7276
23.3095
23.9675
24.6297
25.3175
26.0119
26.7087
27.3956
28.0618
28.6938
29.2771
29.7958
30.2334
30.5727
30.7966
30.8887
30.8341
30.6199
30.2357
29.6747
28.9336
28.0126
26.9159
25.6512
24.2292
22.664
20.9724
19.1751
17.2965
15.3662
13.4195
11.4976
9.64676
7.91698
6.35829
5.0172
3.93246
3.13136
2.62699
2.41728
2.48549
2.80183
3.32654
4.01294
4.81095
5.6696
6.53973
7.37553
8.13555
8.78112
9.28089
9.59369
9.70905
9.527
9.15484
8.11005
7.29014
3.93542
4.11063
30.6448
14.0631
22.7804
19.0128
21.2879
20.8703
21.7619
22.133
22.7992
23.3898
24.0611
24.7379
25.4441
26.1599
26.8824
27.5995
28.301
28.9738
29.6038
30.1755
30.6724
31.0772
31.3724
31.5411
31.5673
31.4369
31.1381
30.6624
30.0046
29.1634
28.1412
26.9438
25.5804
24.0631
22.4068
20.6293
18.7519
16.8
14.8048
12.8032
10.8386
8.95986
7.21868
5.66637
4.34958
3.30586
2.56003
2.12188
1.98546
2.12995
2.52191
3.11845
3.87055
4.72658
5.63481
6.54598
7.41468
8.20032
8.86508
9.37909
9.70158
9.82491
9.64615
9.2824
8.23052
7.43215
4.0175
4.26444
30.7687
14.0667
22.8526
19.0385
21.3421
20.9117
21.8178
22.1898
22.8668
23.4654
24.1491
24.8395
25.5628
26.2989
27.0455
27.7912
28.5262
29.238
29.9128
30.5356
31.0899
31.5586
31.9239
32.1683
32.275
32.2287
32.0165
31.6281
31.0567
30.2991
29.3561
28.2318
26.934
25.473
23.8621
22.1168
20.2554
18.2999
16.2768
14.2187
12.1646
10.1602
8.25677
6.5079
4.96608
3.67777
2.67897
1.99186
1.62264
1.56126
1.7829
2.25051
2.9182
3.73476
4.64725
5.60334
6.55379
7.45374
8.26349
8.94619
9.47341
9.80481
9.93563
9.7599
9.40454
8.34629
7.56987
4.09878
4.41647
30.8995
14.0715
22.9188
19.0639
21.3934
20.9513
21.8706
22.2434
22.9305
23.5365
24.2318
24.9349
25.6743
26.4292
27.1986
27.9712
28.738
29.4868
30.2045
30.8763
31.4862
32.017
32.4508
32.7698
32.9564
32.9944
32.8695
32.57
32.0873
31.4167
30.557
29.511
28.2848
26.8874
25.3305
23.6279
21.7957
19.8526
17.8211
15.7288
13.6099
11.5056
9.46414
7.53918
5.78639
4.2591
3.00329
2.05322
1.42807
1.13015
1.14531
1.44474
1.98777
2.72571
3.60538
4.57269
5.57485
6.56284
7.49239
8.32481
9.02423
9.56368
9.90327
10.0411
9.86814
9.52117
8.45728
7.70305
4.17923
4.56622
31.0404
14.0763
22.98
19.0887
21.4415
20.9894
21.9207
22.2941
22.9907
23.6034
24.3096
25.0245
25.7788
26.5514
27.3422
28.1401
28.9369
29.7209
30.4795
31.1984
31.8618
32.4527
32.9533
33.3455
33.6111
33.7331
33.6958
33.4863
33.0943
32.5135
31.7408
30.7774
29.6281
28.3006
26.8052
25.1544
23.3625
21.4457
19.423
17.3176
15.158
12.9802
10.8279
8.75204
6.80884
5.05586
3.54703
2.32769
1.42999
0.869706
0.645244
0.73821
1.11574
1.73375
2.54089
3.4822
4.5026
5.54904
6.5728
7.53035
8.38404
9.09899
9.64976
9.99682
10.1411
9.97082
9.63223
8.5634
7.83147
4.25877
4.71327
31.1607
14.0802
23.0418
19.1135
21.4856
21.0257
21.9684
22.3422
23.0474
23.6665
24.3827
25.1086
25.8767
26.6659
27.4767
28.2985
29.1236
29.9409
30.7384
31.5022
32.217
32.8661
33.4317
33.8954
34.2388
34.444
34.4944
34.3757
34.0759
33.587
32.9045
32.0278
30.96
29.7077
28.2802
26.6889
24.9466
23.0679
21.069
18.9689
16.7913
14.5662
12.3314
10.1333
8.02565
6.06745
4.31789
2.83146
1.65247
0.810485
0.317829
0.168719
0.340429
0.796143
1.48847
2.36362
3.36498
4.43669
5.52558
6.58338
7.56735
8.44094
9.17031
9.73149
10.0853
10.2357
10.0679
9.73763
8.66458
7.95494
4.33735
4.8572
31.2215
14.0887
23.106
19.1401
21.5266
21.0597
22.0135
22.388
23.1012
23.7258
24.4514
25.1875
25.9686
26.7731
27.6026
28.4468
29.2985
30.1473
30.9817
31.7884
32.5525
33.2576
33.8861
34.4196
34.8393
35.1268
35.2645
35.2368
35.0304
34.6355
34.0457
33.2589
32.2768
31.1045
29.7504
28.2249
26.5401
24.7092
22.7464
20.6677
18.4923
16.2444
13.9554
11.6653
9.42334
7.28664
5.3166
3.57414
2.114
0.978968
0.195935
-0.226587
-0.298762
-0.0476317
0.486107
1.25194
2.19373
3.25346
4.37466
5.50417
6.59428
7.60314
8.49533
9.23803
9.80874
10.1688
10.3249
10.1594
9.83731
8.76079
8.07331
4.41489
4.99763
31.3034
14.1092
23.1541
19.1689
21.5683
21.0921
22.0554
22.4313
23.1523
23.7819
24.516
25.2615
26.0547
26.8735
27.7204
28.5855
29.4623
30.3408
31.2102
32.0576
32.8688
33.6277
34.317
34.9183
35.4127
35.7812
36.0055
36.0687
35.9564
35.6569
35.1622
34.4683
33.5755
32.4875
31.2115
29.7573
28.1364
26.3611
24.4445
22.4004
20.2444
17.9956
15.6789
13.3273
10.9834
8.6998
6.53657
4.5579
2.82623
1.39605
0.308543
-0.412505
-0.762686
-0.756612
-0.425646
0.185778
1.02407
2.03102
3.14738
4.3162
5.48451
6.60524
7.6375
8.54701
9.30197
9.88144
10.2471
10.4085
10.2452
9.93124
8.85199
8.18645
4.49132
5.13425
31.4942
14.1257
23.1625
19.1946
21.6118
21.1259
22.0948
22.4716
23.2004
23.835
24.577
25.3309
26.1353
26.9675
27.8306
28.7153
29.6156
30.522
31.4244
32.3105
33.1666
33.977
34.7249
35.3919
35.9591
36.407
36.7168
36.8707
36.8527
36.6497
36.2519
35.6536
34.8533
33.8533
32.6597
31.2816
29.7298
28.0165
26.154
24.1549
22.0323
19.8012
17.4808
15.0966
12.6837
10.2876
7.9642
5.77704
3.793
2.07561
0.679074
-0.357495
-1.0138
-1.28969
-1.20432
-0.793298
-0.104807
0.804764
1.87528
3.04644
4.26101
5.4663
6.61601
7.6702
8.59579
9.36204
9.94952
10.3203
10.4866
10.3254
10.0194
8.93816
8.29425
4.56655
5.26675
31.5634
14.1079
23.1798
19.211
21.6452
21.1618
22.1352
22.5095
23.2452
23.885
24.6346
25.3962
26.2109
27.0553
27.9337
28.8365
29.7588
30.6915
31.625
32.5478
33.4465
34.3061
35.1102
35.8408
36.4786
37.0044
37.3984
37.6421
37.7184
37.6126
37.3132
36.8128
36.1078
35.1993
34.092
32.794
31.316
29.6697
27.8675
25.9213
23.843
21.6446
19.3406
16.95
14.4995
12.0264
9.57941
7.2181
5.00967
3.02334
1.3238
-0.0354983
-1.01795
-1.60698
-1.80691
-1.6414
-1.15041
-0.385639
0.593888
1.72628
2.95038
4.20879
5.44927
6.62633
7.70103
8.64155
9.41816
10.0129
10.3882
10.5592
10.4
10.1018
9.01929
8.39663
4.64049
5.39489
31.6333
14.1087
23.2761
19.2308
21.6534
21.191
22.1776
22.5485
23.2872
23.9314
24.6888
25.4578
26.2817
27.1374
28.0299
28.9498
29.8925
30.8498
31.8126
32.77
33.7092
34.6158
35.4738
36.2654
36.9718
37.5733
38.05
38.3826
38.5527
38.5444
38.3446
37.9438
37.3369
36.523
35.5054
34.2915
32.8911
31.3161
29.5789
27.6917
25.6656
23.5114
21.2399
18.8648
16.4053
13.8894
11.357
8.86031
6.46306
4.23585
2.25045
0.572297
-0.746363
-1.67172
-2.1912
-2.31364
-2.06749
-1.49684
-0.656736
0.391268
1.58377
2.85889
4.15927
5.43316
6.63596
7.72983
8.68415
9.47022
10.0716
10.451
10.6262
10.4691
10.1785
9.09539
8.49354
4.71305
5.51843
31.7037
14.108
23.3148
19.2658
21.6677
21.2029
22.2114
22.5895
23.33
23.9749
24.7389
25.5156
26.3484
27.2143
28.1197
29.0554
30.0173
30.9976
31.9879
32.9778
33.9554
34.9066
35.8161
36.6664
37.439
38.1142
38.6718
39.0918
39.355
39.4442
39.3447
39.0452
38.5385
37.8221
36.8977
35.7713
34.4523
32.9522
31.2838
29.4598
27.4917
25.3897
23.1628
20.8207
18.3762
15.8487
13.268
10.677
8.13187
5.70046
3.4571
1.47584
-0.177531
-1.45228
-2.31775
-2.76554
-2.80938
-2.48231
-1.83246
-0.918188
0.196715
1.44748
2.77169
4.11214
5.41768
6.6447
7.75644
8.72348
9.51817
10.1255
10.5086
10.6878
10.5325
10.2494
9.16647
8.58494
4.78413
5.63722
31.7745
14.108
23.3527
19.2842
21.7316
21.2194
22.2235
22.6226
23.3749
24.019
24.7858
25.5689
26.4109
27.2866
28.2036
29.1538
30.1336
31.1354
32.1514
33.172
34.1858
35.1794
36.1379
37.0444
37.8807
38.6273
39.2638
39.7696
40.125
40.3114
40.3125
40.1154
39.711
39.0947
38.2666
37.2312
35.9969
34.5751
32.9787
31.2212
29.3148
27.2703
25.0963
22.7998
20.3893
17.8767
15.282
12.637
9.98794
7.39543
4.93175
2.6749
0.700908
-0.924359
-2.15208
-2.95498
-3.32932
-3.29364
-2.88556
-2.15726
-1.1701
0.0100091
1.31712
2.68848
4.06712
5.40262
6.65236
7.7807
8.75944
9.56194
10.1747
10.5611
10.7439
10.5905
10.3147
9.23254
8.67084
4.85363
5.75108
31.8454
14.1083
23.3909
19.3014
21.7594
21.269
22.2409
22.6353
23.4111
24.0651
24.833
25.6187
26.4685
27.354
28.2822
29.2456
30.2418
31.2637
32.3039
33.3533
34.4011
35.4348
36.4399
37.4002
38.2977
39.1132
39.8263
40.4163
40.8624
41.1452
41.247
41.1531
40.8527
40.3389
39.61
38.6689
37.5228
36.1825
34.6611
32.9726
31.1305
29.1467
27.0304
24.7881
22.4252
19.9482
17.3686
14.707
11.9979
9.2912
6.65238
4.15835
1.89061
-0.0729928
-1.66693
-2.84453
-3.58254
-3.88188
-3.76598
-3.2771
-2.47122
-1.41261
-0.169098
1.19244
2.60898
4.02396
5.38775
6.65877
7.80248
8.79194
9.6015
10.2191
10.6084
10.7947
10.6431
10.3743
9.29366
8.75122
4.92144
5.85992
31.9162
14.1087
23.4283
19.3194
21.7862
21.2924
22.3001
22.6532
23.4254
24.1025
24.8821
25.6685
26.522
27.4161
28.3556
29.3315
30.3427
31.383
32.4458
33.5222
34.6021
35.6735
36.7229
37.7344
38.6906
39.5725
40.3599
41.0318
41.5671
41.9452
42.1475
42.1574
41.9621
41.553
40.9262
40.0826
39.0281
37.7725
36.3288
34.7117
32.9358
31.0144
28.9582
26.7746
24.4681
22.0414
19.4997
16.8537
14.1254
11.3521
8.58812
5.90408
3.38158
1.10559
-0.844565
-2.4039
-3.52864
-4.19962
-4.4226
-4.22607
-3.65679
-2.77441
-1.64593
-0.340838
1.07314
2.53291
3.9824
5.37284
6.66373
7.82167
8.82091
9.63684
10.2587
10.6507
10.8401
10.6902
10.4283
9.34986
8.82613
4.98745
5.96363
31.9862
14.1093
23.4658
19.3371
21.8134
21.3147
22.3267
22.7091
23.4449
24.1178
24.9222
25.72
26.5752
27.4736
28.423
29.4114
30.4368
31.4941
32.5777
33.6793
34.7894
35.8965
36.9876
38.0478
39.0601
40.0058
40.8649
41.6165
42.2391
42.7114
43.0133
43.1272
43.0381
42.7355
42.2132
41.4702
40.5107
39.3434
37.9805
36.4371
34.7288
32.8708
30.8755
28.7523
26.5061
24.1389
21.651
19.0458
16.3339
13.5387
10.701
7.88003
5.15178
2.60272
0.321107
-1.61241
-3.13417
-4.20343
-4.80539
-4.95098
-4.67363
-4.02454
-3.06693
-1.87023
-0.505466
0.958941
2.45999
3.94219
5.35771
6.66711
7.83815
8.8463
9.66793
10.2936
10.6879
10.8802
10.7321
10.4769
9.40119
8.8956
5.05156
6.06216
32.0573
14.1094
23.503
19.3555
21.8405
21.3377
22.3522
22.7348
23.5048
24.138
24.9391
25.7623
26.63
27.5305
28.4852
29.4848
30.5243
31.5975
32.7003
33.8253
34.9636
36.1043
37.235
38.3413
39.4069
40.4138
41.3421
42.1709
42.8786
43.4434
43.8441
44.0617
44.0795
43.8848
43.4694
42.8301
41.9691
40.8934
39.6146
38.1475
36.5086
34.7145
32.7801
30.7168
28.5318
26.2277
23.8032
21.2564
18.5887
15.8108
12.9483
10.0458
7.16809
4.39669
1.823
-0.46143
-2.37537
-3.85665
-4.86792
-5.39921
-5.46656
-5.10844
-4.38039
-3.34888
-2.08569
-0.663261
0.84956
2.38995
3.90311
5.34215
6.66877
7.85184
8.86806
9.69477
10.3239
10.7201
10.9151
10.7687
10.5201
9.44773
8.95968
5.11365
6.15548
32.1289
14.1104
23.5398
19.3741
21.8675
21.3606
22.3783
22.7594
23.5318
24.198
24.9608
25.7809
26.6752
27.5887
28.5464
29.5524
30.6045
31.6936
32.8143
33.9609
35.1255
36.2977
37.4656
38.6156
39.732
40.7973
41.792
42.6956
43.4861
44.1414
44.6396
44.9603
45.0853
44.9998
44.6934
44.1605
43.4013
42.421
41.2298
39.8421
38.2746
36.5453
34.6711
32.6663
30.541
28.2998
25.9422
23.4638
20.8598
18.1302
15.2861
12.3556
9.38781
6.45343
3.63994
1.04377
-1.24086
-3.13228
-4.57021
-5.52129
-5.98042
-5.96898
-5.5304
-4.7243
-3.62038
-2.29259
-0.814501
0.744713
2.32254
3.86493
5.32599
6.66857
7.86266
8.88616
9.71738
10.3494
10.7474
10.9448
10.8002
10.558
9.48952
9.01843
5.17362
6.24359
32.2003
14.1118
23.5764
19.3926
21.8943
21.3834
22.4042
22.7846
23.5578
24.2252
25.0231
25.8039
26.696
27.6369
28.6085
29.6184
30.6783
31.7817
32.9201
34.087
35.2757
36.4773
37.6803
38.8716
40.0361
41.157
42.2155
43.191
44.0618
44.8055
45.3996
45.8226
46.0547
46.0792
45.8835
45.4598
44.8057
43.9245
42.8247
41.5197
40.0263
38.3631
36.549
34.601
32.5324
30.3512
28.0591
25.6523
23.1229
20.4633
17.6721
14.7611
11.7616
8.72802
5.73711
2.8828
0.266146
-2.01601
-3.88193
-5.27392
-6.16273
-6.5485
-6.45797
-5.93934
-5.05631
-3.88163
-2.49117
-0.959464
0.644124
2.2575
3.82744
5.30908
6.6664
7.87053
8.90059
9.73578
10.3704
10.7699
10.9695
10.8267
10.5906
9.52664
9.07192
5.23137
6.32651
32.2721
14.1133
23.6127
19.4113
21.921
21.4063
22.43
22.8098
23.5845
24.2514
25.0512
25.8672
26.7207
27.6601
28.6604
29.6849
30.7498
31.8625
33.0171
34.2038
35.4153
36.644
37.8798
39.11
40.3202
41.494
42.6133
43.658
44.6065
45.4363
46.1243
46.6482
46.9869
47.122
47.0385
46.7263
46.1805
45.4021