/*--------------------------------*- C++ -*----------------------------------*\
  =========                 |
  \\      /  F ield         | OpenFOAM: The Open Source CFD Toolbox
   \\    /   O peration     | Website:  https://openfoam.org
    \\  /    A nd           | Version:  7
     \\/     M anipulation  |
\*---------------------------------------------------------------------------*/
FoamFile
{
    version     2.0;
    format      ascii;
    class       volVectorField;
    location    "200";
    object      U;
}
// * * * * * * * * * * * * * * * * * * * * * * * * * * * * * * * * * * * * * //

dimensions      [0 1 -1 0 0 0 0];

internalField   nonuniform List<vector> 
92256
(
(49.8844 13.2136 0)
(49.85 13.1766 0)
(49.9438 13.2118 0)
(49.8357 13.1536 0)
(49.9184 13.2093 0)
(49.9878 13.1959 0)
(49.8243 13.1313 0)
(49.9069 13.2017 0)
(49.9671 13.1923 0)
(50.0352 13.173 0)
(49.8175 13.1121 0)
(49.8927 13.1924 0)
(49.957 13.1865 0)
(50.0123 13.1675 0)
(50.0689 13.1573 0)
(49.8125 13.0952 0)
(49.8828 13.1837 0)
(49.944 13.1797 0)
(50.0012 13.161 0)
(50.0426 13.1542 0)
(50.0865 13.139 0)
(49.8089 13.0803 0)
(49.8744 13.1758 0)
(49.934 13.1726 0)
(49.9867 13.1544 0)
(50.0294 13.1481 0)
(50.0537 13.1352 0)
(50.0859 13.1163 0)
(49.806 13.0672 0)
(49.8677 13.1691 0)
(49.9248 13.1656 0)
(49.9745 13.1476 0)
(50.0111 13.142 0)
(50.037 13.1284 0)
(50.0459 13.1111 0)
(50.0706 13.0911 0)
(49.8038 13.0555 0)
(49.8621 13.1633 0)
(49.9168 13.1588 0)
(49.9625 13.1409 0)
(49.9946 13.1355 0)
(50.0137 13.1217 0)
(50.0262 13.1036 0)
(50.0267 13.0854 0)
(50.0504 13.0657 0)
(49.8021 13.0452 0)
(49.8573 13.1586 0)
(49.9095 13.1524 0)
(49.9511 13.1343 0)
(49.9779 13.1288 0)
(49.9927 13.1145 0)
(49.9992 13.0965 0)
(50.0065 13.0782 0)
(50.0078 13.0609 0)
(50.0355 13.043 0)
(49.8007 13.0359 0)
(49.8531 13.1547 0)
(49.9027 13.1465 0)
(49.9398 13.1281 0)
(49.9614 13.1221 0)
(49.9714 13.1072 0)
(49.9755 13.089 0)
(49.979 13.0714 0)
(49.9898 13.0548 0)
(49.9979 13.04 0)
(50.0307 13.0242 0)
(49.7995 13.0277 0)
(49.8493 13.1516 0)
(49.8961 13.141 0)
(49.9286 13.1221 0)
(49.945 13.1155 0)
(49.9507 13.0998 0)
(49.9522 13.0817 0)
(49.9561 13.0647 0)
(49.965 13.0492 0)
(49.9833 13.0354 0)
(49.9993 13.0237 0)
(50.0355 13.0092 0)
(49.7986 13.0204 0)
(49.8457 13.1492 0)
(49.8897 13.1359 0)
(49.9174 13.1165 0)
(49.9287 13.109 0)
(49.9306 13.0926 0)
(49.9303 13.0745 0)
(49.934 13.0583 0)
(49.9452 13.0439 0)
(49.9624 13.0313 0)
(49.9874 13.0202 0)
(50.0084 13.0107 0)
(50.0455 12.9964 0)
(49.7978 13.014 0)
(49.8423 13.1475 0)
(49.8832 13.1311 0)
(49.906 13.1111 0)
(49.9125 13.1028 0)
(49.9111 13.0856 0)
(49.9097 13.0678 0)
(49.9142 13.0523 0)
(49.9266 13.0389 0)
(49.9463 13.0275 0)
(49.9697 13.0174 0)
(49.9977 13.0077 0)
(50.0199 12.9992 0)
(50.0563 12.9844 0)
(49.7972 13.0083 0)
(49.8389 13.1463 0)
(49.8766 13.1266 0)
(49.8944 13.1061 0)
(49.8964 13.0968 0)
(49.8924 13.079 0)
(49.8906 13.0614 0)
(49.8962 13.0468 0)
(49.9103 13.0345 0)
(49.931 13.024 0)
(49.956 13.0146 0)
(49.9815 13.0055 0)
(50.0091 12.9961 0)
(50.0298 12.9879 0)
(50.0647 12.9724 0)
(49.7967 13.0033 0)
(49.8355 13.1456 0)
(49.8698 13.1225 0)
(49.8826 13.1014 0)
(49.8805 13.091 0)
(49.8746 13.0727 0)
(49.8729 13.0556 0)
(49.88 13.0418 0)
(49.8957 13.0304 0)
(49.9177 13.0208 0)
(49.9425 13.0119 0)
(49.9683 13.0032 0)
(49.9927 12.9942 0)
(50.018 12.9844 0)
(50.0362 12.976 0)
(50.0698 12.96 0)
(49.7962 12.9989 0)
(49.832 13.1453 0)
(49.8628 13.1185 0)
(49.8706 13.097 0)
(49.8649 13.0856 0)
(49.8576 13.0669 0)
(49.8566 13.0503 0)
(49.8654 13.0373 0)
(49.8828 13.0268 0)
(49.9055 13.0178 0)
(49.9304 13.0094 0)
(49.955 13.0009 0)
(49.9788 12.9919 0)
(50.0006 12.9825 0)
(50.0233 12.9723 0)
(50.0391 12.9637 0)
(50.072 12.9473 0)
(49.7958 12.9951 0)
(49.8284 13.1454 0)
(49.8554 13.1147 0)
(49.8585 13.0928 0)
(49.8497 13.0806 0)
(49.8417 13.0616 0)
(49.8418 13.0456 0)
(49.8524 13.0334 0)
(49.8711 13.0236 0)
(49.8944 13.015 0)
(49.9188 13.0069 0)
(49.9425 12.9985 0)
(49.9646 12.9896 0)
(49.9855 12.9801 0)
(50.0046 12.9704 0)
(50.0255 12.9598 0)
(50.0395 12.9512 0)
(50.072 12.9345 0)
(49.7954 12.9919 0)
(49.8246 13.1458 0)
(49.8478 13.1112 0)
(49.8463 13.089 0)
(49.835 13.0759 0)
(49.8268 13.0568 0)
(49.8284 13.0415 0)
(49.8407 13.03 0)
(49.8606 13.0207 0)
(49.8841 13.0125 0)
(49.9079 13.0044 0)
(49.9304 12.9961 0)
(49.9511 12.9872 0)
(49.9702 12.9778 0)
(49.9885 12.968 0)
(50.0058 12.958 0)
(50.0254 12.9474 0)
(50.0383 12.9387 0)
(50.0708 12.9219 0)
(49.795 12.9891 0)
(49.8205 13.1464 0)
(49.8399 13.1077 0)
(49.834 13.0855 0)
(49.8207 13.0716 0)
(49.8129 13.0526 0)
(49.8162 13.0379 0)
(49.8302 13.0271 0)
(49.851 13.0182 0)
(49.8744 13.0101 0)
(49.8973 13.002 0)
(49.9186 12.9936 0)
(49.9379 12.9847 0)
(49.9557 12.9754 0)
(49.9724 12.9657 0)
(49.989 12.9558 0)
(50.0051 12.9458 0)
(50.024 12.9351 0)
(50.0363 12.9265 0)
(50.0688 12.9094 0)
(49.7946 12.9868 0)
(49.8162 13.1473 0)
(49.8317 13.1045 0)
(49.8218 13.0822 0)
(49.8071 13.0677 0)
(49.8001 13.0489 0)
(49.8052 13.0349 0)
(49.8207 13.0247 0)
(49.8421 13.016 0)
(49.8651 13.0079 0)
(49.8871 12.9997 0)
(49.9071 12.9911 0)
(49.9251 12.9821 0)
(49.9416 12.9729 0)
(49.9572 12.9634 0)
(49.9724 12.9537 0)
(49.988 12.9438 0)
(50.0032 12.9338 0)
(50.0218 12.9231 0)
(50.0336 12.9146 0)
(50.0663 12.8972 0)
(49.7941 12.9849 0)
(49.8117 13.1484 0)
(49.8233 13.1013 0)
(49.8097 13.0793 0)
(49.7942 13.0642 0)
(49.7883 13.0458 0)
(49.7952 13.0325 0)
(49.812 13.0226 0)
(49.8338 13.014 0)
(49.8562 13.0058 0)
(49.877 12.9973 0)
(49.8958 12.9885 0)
(49.9126 12.9795 0)
(49.928 12.9703 0)
(49.9426 12.961 0)
(49.9569 12.9516 0)
(49.9711 12.942 0)
(49.9859 12.9322 0)
(50.0006 12.9222 0)
(50.0189 12.9114 0)
(50.0305 12.9029 0)
(50.0634 12.8853 0)
(49.7935 12.9834 0)
(49.8069 13.1497 0)
(49.8147 13.0983 0)
(49.7978 13.0767 0)
(49.7819 13.0612 0)
(49.7775 13.0432 0)
(49.7862 13.0305 0)
(49.8041 13.021 0)
(49.8258 13.0124 0)
(49.8474 13.0039 0)
(49.8671 12.9951 0)
(49.8847 12.986 0)
(49.9004 12.9768 0)
(49.9149 12.9677 0)
(49.9287 12.9586 0)
(49.9421 12.9495 0)
(49.9554 12.9402 0)
(49.9689 12.9307 0)
(49.9831 12.9209 0)
(49.9974 12.9108 0)
(50.0154 12.9 0)
(50.0269 12.8915 0)
(50.0602 12.8735 0)
(49.7928 12.9822 0)
(49.8017 13.1511 0)
(49.806 13.0953 0)
(49.7862 13.0744 0)
(49.7705 13.0586 0)
(49.7677 13.0411 0)
(49.778 13.0291 0)
(49.7966 13.0197 0)
(49.8181 13.0109 0)
(49.8388 13.002 0)
(49.8573 12.9929 0)
(49.8738 12.9835 0)
(49.8886 12.9742 0)
(49.9023 12.965 0)
(49.9154 12.9561 0)
(49.9281 12.9472 0)
(49.9406 12.9383 0)
(49.9532 12.9292 0)
(49.966 12.9198 0)
(49.9797 12.9099 0)
(49.9935 12.8998 0)
(50.0115 12.8889 0)
(50.0228 12.8803 0)
(50.0566 12.8619 0)
(49.7921 12.9813 0)
(49.7964 13.1525 0)
(49.7972 13.0925 0)
(49.7749 13.0725 0)
(49.7597 13.0564 0)
(49.7587 13.0395 0)
(49.7705 13.028 0)
(49.7896 13.0187 0)
(49.8106 13.0097 0)
(49.8302 13.0004 0)
(49.8476 12.9908 0)
(49.863 12.981 0)
(49.877 12.9715 0)
(49.8901 12.9623 0)
(49.9026 12.9535 0)
(49.9148 12.9449 0)
(49.9266 12.9363 0)
(49.9383 12.9277 0)
(49.9502 12.9187 0)
(49.9624 12.9093 0)
(49.9757 12.8993 0)
(49.9892 12.8891 0)
(50.007 12.8779 0)
(50.0183 12.8693 0)
(50.0526 12.8505 0)
(49.7912 12.9807 0)
(49.7907 13.1541 0)
(49.7883 13.0899 0)
(49.7641 13.0708 0)
(49.7498 13.0546 0)
(49.7505 13.0384 0)
(49.7636 13.0274 0)
(49.783 13.018 0)
(49.8032 13.0086 0)
(49.8217 12.9989 0)
(49.838 12.9888 0)
(49.8525 12.9787 0)
(49.8657 12.9689 0)
(49.8783 12.9596 0)
(49.8904 12.9508 0)
(49.902 12.9424 0)
(49.9133 12.9342 0)
(49.9244 12.9259 0)
(49.9354 12.9174 0)
(49.9466 12.9086 0)
(49.9582 12.8991 0)
(49.971 12.889 0)
(49.9843 12.8786 0)
(50.0022 12.8672 0)
(50.0135 12.8585 0)
(50.0485 12.8393 0)
(49.7902 12.9803 0)
(49.7848 13.1557 0)
(49.7795 13.0873 0)
(49.7536 13.0696 0)
(49.7406 13.0532 0)
(49.7431 13.0377 0)
(49.7573 13.0271 0)
(49.7765 13.0176 0)
(49.7959 13.0078 0)
(49.8132 12.9975 0)
(49.8284 12.9869 0)
(49.842 12.9765 0)
(49.8547 12.9664 0)
(49.8668 12.957 0)
(49.8785 12.9481 0)
(49.8898 12.9398 0)
(49.9007 12.9318 0)
(49.9112 12.924 0)
(49.9215 12.916 0)
(49.9318 12.9077 0)
(49.9424 12.8988 0)
(49.9534 12.8893 0)
(49.9659 12.879 0)
(49.9789 12.8683 0)
(49.9969 12.8567 0)
(50.0084 12.8478 0)
(50.0441 12.8282 0)
(49.789 12.9801 0)
(49.7787 13.1573 0)
(49.7707 13.0849 0)
(49.7437 13.0686 0)
(49.7322 13.0522 0)
(49.7363 13.0375 0)
(49.7513 13.0271 0)
(49.7703 13.0174 0)
(49.7886 13.0072 0)
(49.8048 12.9964 0)
(49.8189 12.9853 0)
(49.8317 12.9744 0)
(49.8438 12.964 0)
(49.8555 12.9543 0)
(49.8669 12.9454 0)
(49.8779 12.9371 0)
(49.8885 12.9293 0)
(49.8987 12.9218 0)
(49.9085 12.9143 0)
(49.9181 12.9066 0)
(49.9276 12.8984 0)
(49.9376 12.8895 0)
(49.9481 12.8799 0)
(49.9603 12.8693 0)
(49.9732 12.8584 0)
(49.9913 12.8463 0)
(50.003 12.8373 0)
(50.0396 12.8172 0)
(49.7876 12.9801 0)
(49.7724 13.159 0)
(49.7621 13.0825 0)
(49.7342 13.068 0)
(49.7245 13.0516 0)
(49.7302 13.0376 0)
(49.7457 13.0274 0)
(49.7642 13.0175 0)
(49.7814 13.0067 0)
(49.7964 12.9954 0)
(49.8095 12.9838 0)
(49.8216 12.9725 0)
(49.8332 12.9617 0)
(49.8445 12.9518 0)
(49.8556 12.9426 0)
(49.8664 12.9343 0)
(49.8768 12.9266 0)
(49.8867 12.9193 0)
(49.8962 12.9123 0)
(49.9052 12.9051 0)
(49.914 12.8976 0)
(49.9229 12.8895 0)
(49.9323 12.8806 0)
(49.9424 12.8707 0)
(49.9543 12.8599 0)
(49.9671 12.8486 0)
(49.9855 12.8362 0)
(49.9974 12.827 0)
(50.035 12.8063 0)
(49.7861 12.9803 0)
(49.766 13.1606 0)
(49.7536 13.0804 0)
(49.7253 13.0678 0)
(49.7174 13.0514 0)
(49.7245 13.038 0)
(49.7404 13.028 0)
(49.7582 13.0177 0)
(49.7743 13.0065 0)
(49.788 12.9946 0)
(49.8002 12.9825 0)
(49.8116 12.9707 0)
(49.8227 12.9596 0)
(49.8337 12.9493 0)
(49.8445 12.9399 0)
(49.8552 12.9314 0)
(49.8654 12.9237 0)
(49.8752 12.9166 0)
(49.8844 12.9099 0)
(49.8931 12.9033 0)
(49.9014 12.8965 0)
(49.9095 12.8892 0)
(49.9177 12.8811 0)
(49.9265 12.8721 0)
(49.9362 12.8619 0)
(49.9479 12.8508 0)
(49.9607 12.839 0)
(49.9794 12.8262 0)
(49.9917 12.8167 0)
(50.0303 12.7955 0)
(49.7845 12.9806 0)
(49.7594 13.1623 0)
(49.7453 13.0783 0)
(49.717 13.0678 0)
(49.711 13.0514 0)
(49.7193 13.0388 0)
(49.7354 13.0288 0)
(49.7523 13.0182 0)
(49.7671 13.0065 0)
(49.7798 12.9941 0)
(49.791 12.9815 0)
(49.8017 12.9692 0)
(49.8123 12.9577 0)
(49.823 12.947 0)
(49.8336 12.9372 0)
(49.8441 12.9285 0)
(49.8543 12.9207 0)
(49.864 12.9136 0)
(49.8731 12.9072 0)
(49.8816 12.9011 0)
(49.8896 12.8949 0)
(49.8971 12.8884 0)
(49.9045 12.8813 0)
(49.9121 12.8732 0)
(49.9204 12.8639 0)
(49.9297 12.8535 0)
(49.9412 12.8419 0)
(49.9541 12.8297 0)
(49.9731 12.8164 0)
(49.9858 12.8066 0)
(50.0256 12.7848 0)
(49.7826 12.981 0)
(49.7527 13.1639 0)
(49.7374 13.0764 0)
(49.7092 13.0682 0)
(49.7052 13.0518 0)
(49.7146 13.0398 0)
(49.7305 13.0298 0)
(49.7464 13.0188 0)
(49.7601 13.0067 0)
(49.7716 12.9938 0)
(49.782 12.9807 0)
(49.792 12.968 0)
(49.8021 12.9559 0)
(49.8124 12.9448 0)
(49.8228 12.9346 0)
(49.8331 12.9255 0)
(49.8432 12.9175 0)
(49.853 12.9105 0)
(49.8621 12.9042 0)
(49.8707 12.8984 0)
(49.8785 12.8929 0)
(49.8857 12.8872 0)
(49.8925 12.8809 0)
(49.8992 12.8738 0)
(49.9061 12.8656 0)
(49.9138 12.8561 0)
(49.9228 12.8453 0)
(49.9343 12.8333 0)
(49.9471 12.8206 0)
(49.9666 12.8067 0)
(49.9798 12.7966 0)
(50.0208 12.7742 0)
(49.7805 12.9815 0)
(49.7459 13.1655 0)
(49.7297 13.0747 0)
(49.702 13.0688 0)
(49.7 13.0524 0)
(49.7101 13.0411 0)
(49.7257 13.0309 0)
(49.7406 13.0197 0)
(49.753 13.007 0)
(49.7635 12.9937 0)
(49.773 12.9801 0)
(49.7824 12.9669 0)
(49.792 12.9544 0)
(49.8019 12.9427 0)
(49.812 12.9321 0)
(49.8222 12.9226 0)
(49.8323 12.9143 0)
(49.8421 12.9071 0)
(49.8514 12.9009 0)
(49.86 12.8954 0)
(49.8679 12.8903 0)
(49.875 12.8853 0)
(49.8815 12.88 0)
(49.8875 12.8739 0)
(49.8934 12.8669 0)
(49.8997 12.8585 0)
(49.907 12.8487 0)
(49.9157 12.8375 0)
(49.927 12.8249 0)
(49.94 12.8116 0)
(49.96 12.7971 0)
(49.9737 12.7868 0)
(50.0161 12.7637 0)
(49.7783 12.982 0)
(49.7391 13.1671 0)
(49.7223 13.0731 0)
(49.6953 13.0698 0)
(49.6953 13.0532 0)
(49.706 13.0426 0)
(49.7212 13.0323 0)
(49.7349 13.0207 0)
(49.7461 13.0076 0)
(49.7555 12.9938 0)
(49.7642 12.9798 0)
(49.7729 12.9662 0)
(49.782 12.9531 0)
(49.7915 12.9409 0)
(49.8013 12.9298 0)
(49.8114 12.9198 0)
(49.8215 12.9111 0)
(49.8313 12.9036 0)
(49.8408 12.8973 0)
(49.8496 12.8919 0)
(49.8577 12.8872 0)
(49.8649 12.8828 0)
(49.8713 12.8783 0)
(49.8769 12.8734 0)
(49.8822 12.8675 0)
(49.8874 12.8604 0)
(49.8931 12.8518 0)
(49.8999 12.8417 0)
(49.9083 12.8299 0)
(49.9195 12.8167 0)
(49.9327 12.8028 0)
(49.9533 12.7877 0)
(49.9675 12.777 0)
(50.0114 12.7532 0)
(49.7759 12.9827 0)
(49.7324 13.1687 0)
(49.7153 13.0717 0)
(49.6891 13.0709 0)
(49.691 13.0543 0)
(49.7021 13.0443 0)
(49.7167 13.0338 0)
(49.7293 13.0218 0)
(49.7393 13.0084 0)
(49.7477 12.9942 0)
(49.7556 12.9798 0)
(49.7636 12.9657 0)
(49.7721 12.9521 0)
(49.7811 12.9394 0)
(49.7907 12.9276 0)
(49.8005 12.9171 0)
(49.8106 12.9079 0)
(49.8206 12.9001 0)
(49.8302 12.8935 0)
(49.8394 12.8881 0)
(49.8477 12.8836 0)
(49.8552 12.8797 0)
(49.8617 12.876 0)
(49.8673 12.872 0)
(49.8721 12.8673 0)
(49.8766 12.8616 0)
(49.8811 12.8544 0)
(49.8861 12.8456 0)
(49.8925 12.8349 0)
(49.9006 12.8226 0)
(49.9118 12.8087 0)
(49.9252 12.7942 0)
(49.9464 12.7784 0)
(49.9612 12.7673 0)
(50.0066 12.7428 0)
(49.7733 12.9833 0)
(49.7256 13.1702 0)
(49.7086 13.0704 0)
(49.6835 13.0724 0)
(49.6871 13.0555 0)
(49.6984 13.0461 0)
(49.7123 13.0354 0)
(49.7237 13.0231 0)
(49.7326 13.0093 0)
(49.74 12.9948 0)
(49.7471 12.98 0)
(49.7544 12.9654 0)
(49.7623 12.9514 0)
(49.7709 12.938 0)
(49.78 12.9257 0)
(49.7897 12.9146 0)
(49.7997 12.9048 0)
(49.8097 12.8965 0)
(49.8196 12.8896 0)
(49.8291 12.884 0)
(49.8379 12.8796 0)
(49.8457 12.876 0)
(49.8525 12.8729 0)
(49.8583 12.8698 0)
(49.8631 12.8663 0)
(49.8671 12.8619 0)
(49.8707 12.8562 0)
(49.8745 12.8489 0)
(49.8789 12.8396 0)
(49.8848 12.8285 0)
(49.8927 12.8155 0)
(49.9039 12.801 0)
(49.9176 12.7857 0)
(49.9394 12.7692 0)
(49.9549 12.7576 0)
(50.002 12.7324 0)
(49.7705 12.984 0)
(49.719 13.1717 0)
(49.7023 13.0693 0)
(49.6783 13.074 0)
(49.6836 13.0569 0)
(49.6949 13.0481 0)
(49.7081 13.0371 0)
(49.7183 13.0246 0)
(49.7261 13.0105 0)
(49.7325 12.9957 0)
(49.7388 12.9805 0)
(49.7454 12.9655 0)
(49.7527 12.9509 0)
(49.7607 12.937 0)
(49.7694 12.924 0)
(49.7788 12.9122 0)
(49.7887 12.9018 0)
(49.7988 12.8929 0)
(49.809 12.8856 0)
(49.8188 12.8797 0)
(49.828 12.8752 0)
(49.8364 12.8718 0)
(49.8437 12.8692 0)
(49.8498 12.8668 0)
(49.8547 12.8644 0)
(49.8586 12.8613 0)
(49.8618 12.8571 0)
(49.8646 12.8513 0)
(49.8676 12.8437 0)
(49.8714 12.8341 0)
(49.8769 12.8224 0)
(49.8845 12.8087 0)
(49.8959 12.7934 0)
(49.9098 12.7774 0)
(49.9323 12.7601 0)
(49.9485 12.7481 0)
(49.9974 12.722 0)
(49.7676 12.9847 0)
(49.7124 13.1732 0)
(49.6964 13.0683 0)
(49.6736 13.0759 0)
(49.6805 13.0584 0)
(49.6916 13.0502 0)
(49.7039 13.0389 0)
(49.713 13.0262 0)
(49.7197 13.0118 0)
(49.7252 12.9967 0)
(49.7306 12.9812 0)
(49.7365 12.9658 0)
(49.7431 12.9507 0)
(49.7506 12.9362 0)
(49.7589 12.9226 0)
(49.768 12.9101 0)
(49.7777 12.899 0)
(49.7878 12.8895 0)
(49.7981 12.8815 0)
(49.8083 12.8753 0)
(49.818 12.8705 0)
(49.827 12.8671 0)
(49.8349 12.8647 0)
(49.8416 12.863 0)
(49.847 12.8615 0)
(49.851 12.8596 0)
(49.854 12.8568 0)
(49.8563 12.8527 0)
(49.8582 12.8469 0)
(49.8605 12.839 0)
(49.8637 12.8289 0)
(49.8687 12.8165 0)
(49.8762 12.8021 0)
(49.8877 12.786 0)
(49.9019 12.7692 0)
(49.9252 12.751 0)
(49.9421 12.7386 0)
(49.9928 12.7117 0)
(49.7644 12.9854 0)
(49.706 13.1746 0)
(49.6908 13.0675 0)
(49.6694 13.0779 0)
(49.6776 13.0601 0)
(49.6884 13.0524 0)
(49.6999 13.0408 0)
(49.7078 13.028 0)
(49.7134 13.0134 0)
(49.7181 12.998 0)
(49.7227 12.9822 0)
(49.7278 12.9664 0)
(49.7337 12.9508 0)
(49.7406 12.9357 0)
(49.7484 12.9215 0)
(49.7571 12.9083 0)
(49.7666 12.8964 0)
(49.7767 12.8862 0)
(49.7871 12.8776 0)
(49.7977 12.8707 0)
(49.8079 12.8656 0)
(49.8175 12.862 0)
(49.8261 12.8597 0)
(49.8335 12.8584 0)
(49.8395 12.8576 0)
(49.844 12.8568 0)
(49.8472 12.8554 0)
(49.8493 12.853 0)
(49.8506 12.849 0)
(49.8516 12.843 0)
(49.8531 12.8347 0)
(49.8558 12.824 0)
(49.8604 12.811 0)
(49.8678 12.7958 0)
(49.8793 12.7788 0)
(49.8939 12.7611 0)
(49.918 12.7421 0)
(49.9357 12.7292 0)
(49.9884 12.7014 0)
(49.7611 12.9861 0)
(49.6997 13.1761 0)
(49.6857 13.0669 0)
(49.6655 13.0801 0)
(49.675 13.0618 0)
(49.6854 13.0547 0)
(49.6959 13.0428 0)
(49.7027 13.0298 0)
(49.7074 13.015 0)
(49.7111 12.9995 0)
(49.7149 12.9834 0)
(49.7193 12.9673 0)
(49.7245 12.9512 0)
(49.7307 12.9356 0)
(49.7379 12.9206 0)
(49.7462 12.9067 0)
(49.7554 12.8941 0)
(49.7654 12.883 0)
(49.776 12.8737 0)
(49.7868 12.8662 0)
(49.7975 12.8605 0)
(49.8077 12.8566 0)
(49.8171 12.8542 0)
(49.8253 12.8531 0)
(49.8321 12.8529 0)
(49.8374 12.8529 0)
(49.8411 12.8528 0)
(49.8433 12.8519 0)
(49.8443 12.8497 0)
(49.8446 12.8457 0)
(49.8448 12.8395 0)
(49.8456 12.8308 0)
(49.8476 12.8195 0)
(49.8519 12.8057 0)
(49.8591 12.7896 0)
(49.8708 12.7717 0)
(49.8858 12.7532 0)
(49.9108 12.7333 0)
(49.9292 12.7199 0)
(49.984 12.6911 0)
(49.7577 12.9867 0)
(49.6937 13.1774 0)
(49.6809 13.0664 0)
(49.6621 13.0824 0)
(49.6726 13.0636 0)
(49.6824 13.057 0)
(49.692 13.0449 0)
(49.6977 13.0318 0)
(49.7015 13.0169 0)
(49.7044 13.0012 0)
(49.7074 12.9849 0)
(49.711 12.9684 0)
(49.7154 12.9519 0)
(49.7209 12.9357 0)
(49.7275 12.9201 0)
(49.7353 12.9055 0)
(49.7442 12.8921 0)
(49.754 12.8802 0)
(49.7646 12.87 0)
(49.7756 12.8617 0)
(49.7868 12.8553 0)
(49.7976 12.8509 0)
(49.8078 12.8483 0)
(49.817 12.8472 0)
(49.8247 12.8473 0)
(49.8309 12.8481 0)
(49.8353 12.849 0)
(49.838 12.8496 0)
(49.8392 12.8491 0)
(49.8392 12.847 0)
(49.8385 12.8429 0)
(49.8378 12.8364 0)
(49.8378 12.8272 0)
(49.8393 12.8152 0)
(49.8433 12.8006 0)
(49.8503 12.7837 0)
(49.8622 12.7648 0)
(49.8776 12.7454 0)
(49.9035 12.7246 0)
(49.9228 12.7107 0)
(49.9796 12.6809 0)
(49.7541 12.9873 0)
(49.6879 13.1788 0)
(49.6764 13.066 0)
(49.6589 13.0848 0)
(49.6704 13.0655 0)
(49.6796 13.0595 0)
(49.6883 13.047 0)
(49.693 13.0339 0)
(49.6958 13.0189 0)
(49.6979 13.003 0)
(49.7001 12.9865 0)
(49.7028 12.9697 0)
(49.7065 12.9528 0)
(49.7113 12.9361 0)
(49.7172 12.92 0)
(49.7244 12.9046 0)
(49.7329 12.8904 0)
(49.7425 12.8776 0)
(49.753 12.8665 0)
(49.7642 12.8573 0)
(49.7757 12.8502 0)
(49.7872 12.8451 0)
(49.7982 12.842 0)
(49.8083 12.8407 0)
(49.8171 12.8409 0)
(49.8243 12.8422 0)
(49.8297 12.844 0)
(49.8332 12.8458 0)
(49.8349 12.847 0)
(49.835 12.8469 0)
(49.8339 12.8449 0)
(49.8323 12.8406 0)
(49.8306 12.8337 0)
(49.8299 12.8239 0)
(49.8308 12.8112 0)
(49.8345 12.7958 0)
(49.8414 12.7779 0)
(49.8535 12.7581 0)
(49.8693 12.7377 0)
(49.8962 12.7159 0)
(49.9163 12.7015 0)
(49.9754 12.6706 0)
(49.7504 12.9879 0)
(49.6823 13.1801 0)
(49.6723 13.0658 0)
(49.6561 13.0873 0)
(49.6683 13.0674 0)
(49.6769 13.0619 0)
(49.6847 13.0492 0)
(49.6883 13.0361 0)
(49.6903 13.021 0)
(49.6915 13.0051 0)
(49.6929 12.9884 0)
(49.6949 12.9713 0)
(49.6978 12.9541 0)
(49.7018 12.9369 0)
(49.707 12.9201 0)
(49.7136 12.9041 0)
(49.7216 12.889 0)
(49.7309 12.8754 0)
(49.7413 12.8633 0)
(49.7525 12.8532 0)
(49.7644 12.8452 0)
(49.7764 12.8393 0)
(49.7881 12.8355 0)
(49.7991 12.8338 0)
(49.809 12.8339 0)
(49.8174 12.8354 0)
(49.824 12.8379 0)
(49.8286 12.8408 0)
(49.8311 12.8434 0)
(49.8317 12.845 0)
(49.8307 12.8452 0)
(49.8285 12.8433 0)
(49.8258 12.8388 0)
(49.8233 12.8314 0)
(49.8218 12.821 0)
(49.8222 12.8075 0)
(49.8255 12.7911 0)
(49.8324 12.7723 0)
(49.8448 12.7515 0)
(49.861 12.7302 0)
(49.8888 12.7074 0)
(49.9098 12.6924 0)
(49.9713 12.6604 0)
(49.7465 12.9885 0)
(49.6769 13.1815 0)
(49.6686 13.0658 0)
(49.6536 13.0899 0)
(49.6664 13.0693 0)
(49.6742 13.0644 0)
(49.6812 13.0515 0)
(49.6839 13.0384 0)
(49.685 13.0232 0)
(49.6854 13.0072 0)
(49.686 12.9905 0)
(49.6872 12.9732 0)
(49.6893 12.9556 0)
(49.6925 12.938 0)
(49.697 12.9206 0)
(49.7029 12.9039 0)
(49.7103 12.888 0)
(49.7192 12.8735 0)
(49.7293 12.8605 0)
(49.7406 12.8494 0)
(49.7526 12.8403 0)
(49.7651 12.8335 0)
(49.7775 12.829 0)
(49.7895 12.8267 0)
(49.8005 12.8264 0)
(49.8102 12.8279 0)
(49.818 12.8308 0)
(49.8239 12.8344 0)
(49.8275 12.8382 0)
(49.829 12.8416 0)
(49.8284 12.8438 0)
(49.8262 12.8441 0)
(49.8229 12.8421 0)
(49.8192 12.8373 0)
(49.8157 12.8294 0)
(49.8135 12.8183 0)
(49.8134 12.804 0)
(49.8165 12.7867 0)
(49.8233 12.7669 0)
(49.8359 12.7451 0)
(49.8526 12.7227 0)
(49.8815 12.6989 0)
(49.9033 12.6834 0)
(49.9672 12.6501 0)
(49.7425 12.989 0)
(49.6718 13.1828 0)
(49.6651 13.0659 0)
(49.6514 13.0925 0)
(49.6647 13.0713 0)
(49.6717 13.0669 0)
(49.6778 13.0537 0)
(49.6795 13.0408 0)
(49.6799 13.0256 0)
(49.6796 13.0096 0)
(49.6794 12.9927 0)
(49.6797 12.9752 0)
(49.681 12.9573 0)
(49.6833 12.9393 0)
(49.687 12.9214 0)
(49.6923 12.904 0)
(49.6991 12.8874 0)
(49.7075 12.872 0)
(49.7173 12.858 0)
(49.7284 12.8459 0)
(49.7406 12.8357 0)
(49.7534 12.8279 0)
(49.7664 12.8224 0)
(49.7793 12.8193 0)
(49.7914 12.8185 0)
(49.8023 12.8198 0)
(49.8116 12.8227 0)
(49.8189 12.8269 0)
(49.8239 12.8317 0)
(49.8265 12.8365 0)
(49.8268 12.8405 0)
(49.8251 12.8431 0)
(49.8217 12.8436 0)
(49.8172 12.8415 0)
(49.8124 12.8363 0)
(49.808 12.8278 0)
(49.8051 12.8159 0)
(49.8045 12.8008 0)
(49.8073 12.7825 0)
(49.8141 12.7617 0)
(49.827 12.7388 0)
(49.8442 12.7154 0)
(49.8741 12.6905 0)
(49.8969 12.6744 0)
(49.9633 12.6399 0)
(49.7384 12.9894 0)
(49.667 13.1841 0)
(49.662 13.0661 0)
(49.6494 13.0952 0)
(49.663 13.0732 0)
(49.6692 13.0694 0)
(49.6745 13.056 0)
(49.6754 13.0432 0)
(49.675 13.028 0)
(49.6739 13.012 0)
(49.6729 12.9951 0)
(49.6725 12.9775 0)
(49.6729 12.9593 0)
(49.6744 12.941 0)
(49.6773 12.9226 0)
(49.6818 12.9046 0)
(49.6879 12.8872 0)
(49.6957 12.8709 0)
(49.7051 12.856 0)
(49.716 12.8427 0)
(49.7282 12.8315 0)
(49.7412 12.8225 0)
(49.7548 12.8159 0)
(49.7684 12.8119 0)
(49.7816 12.8103 0)
(49.7938 12.8111 0)
(49.8045 12.8139 0)
(49.8134 12.8183 0)
(49.8199 12.8238 0)
(49.824 12.8298 0)
(49.8256 12.8354 0)
(49.8247 12.8401 0)
(49.8216 12.843 0)
(49.817 12.8436 0)
(49.8113 12.8412 0)
(49.8054 12.8356 0)
(49.8002 12.8265 0)
(49.7966 12.8138 0)
(49.7955 12.7977 0)
(49.798 12.7785 0)
(49.8049 12.7566 0)
(49.8181 12.7326 0)
(49.8358 12.7082 0)
(49.8668 12.6822 0)
(49.8904 12.6656 0)
(49.9595 12.6297 0)
(49.7342 12.9898 0)
(49.6625 13.1853 0)
(49.6591 13.0664 0)
(49.6476 13.0979 0)
(49.6615 13.0752 0)
(49.6669 13.072 0)
(49.6714 13.0584 0)
(49.6714 13.0457 0)
(49.6703 13.0305 0)
(49.6685 13.0146 0)
(49.6667 12.9976 0)
(49.6654 12.9799 0)
(49.665 12.9616 0)
(49.6657 12.9429 0)
(49.6677 12.9241 0)
(49.6714 12.9055 0)
(49.6768 12.8874 0)
(49.684 12.8703 0)
(49.6929 12.8543 0)
(49.7035 12.84 0)
(49.7155 12.8276 0)
(49.7287 12.8174 0)
(49.7426 12.8097 0)
(49.7569 12.8045 0)
(49.7711 12.802 0)
(49.7845 12.8021 0)
(49.7967 12.8044 0)
(49.8072 12.8088 0)
(49.8154 12.8147 0)
(49.8212 12.8215 0)
(49.8243 12.8286 0)
(49.8246 12.8351 0)
(49.8224 12.8403 0)
(49.8181 12.8435 0)
(49.8121 12.844 0)
(49.8053 12.8414 0)
(49.7983 12.8353 0)
(49.7922 12.8255 0)
(49.7879 12.8119 0)
(49.7864 12.7949 0)
(49.7887 12.7746 0)
(49.7956 12.7517 0)
(49.8091 12.7265 0)
(49.8273 12.7012 0)
(49.8594 12.674 0)
(49.8839 12.6568 0)
(49.9557 12.6195 0)
(49.7299 12.9902 0)
(49.6583 13.1866 0)
(49.6565 13.0668 0)
(49.646 13.1006 0)
(49.66 13.0772 0)
(49.6646 13.0745 0)
(49.6683 13.0607 0)
(49.6676 13.0482 0)
(49.6658 13.0332 0)
(49.6632 13.0173 0)
(49.6607 13.0003 0)
(49.6586 12.9825 0)
(49.6573 12.964 0)
(49.6572 12.9451 0)
(49.6584 12.9259 0)
(49.6612 12.9067 0)
(49.6658 12.888 0)
(49.6723 12.87 0)
(49.6806 12.8532 0)
(49.6908 12.8378 0)
(49.7026 12.8242 0)
(49.7157 12.8127 0)
(49.73 12.8037 0)
(49.7448 12.7974 0)
(49.7598 12.7937 0)
(49.7744 12.7928 0)
(49.788 12.7945 0)
(49.8001 12.7986 0)
(49.8102 12.8046 0)
(49.8178 12.8119 0)
(49.8227 12.82 0)
(49.8246 12.8281 0)
(49.8237 12.8354 0)
(49.8202 12.8411 0)
(49.8144 12.8445 0)
(49.8072 12.8449 0)
(49.7991 12.842 0)
(49.7911 12.8353 0)
(49.7841 12.8247 0)
(49.7791 12.8103 0)
(49.7771 12.7922 0)
(49.7793 12.7709 0)
(49.7862 12.7469 0)
(49.8001 12.7206 0)
(49.8188 12.6942 0)
(49.8521 12.6658 0)
(49.8774 12.6481 0)
(49.9521 12.6093 0)
(49.7256 12.9905 0)
(49.6544 13.1879 0)
(49.6541 13.0673 0)
(49.6446 13.1033 0)
(49.6586 13.0791 0)
(49.6624 13.077 0)
(49.6654 13.0631 0)
(49.664 13.0508 0)
(49.6615 13.0358 0)
(49.6582 13.0201 0)
(49.655 13.0032 0)
(49.6521 12.9853 0)
(49.6499 12.9667 0)
(49.6489 12.9475 0)
(49.6492 12.9279 0)
(49.6512 12.9083 0)
(49.6549 12.889 0)
(49.6606 12.8702 0)
(49.6683 12.8524 0)
(49.678 12.836 0)
(49.6894 12.8212 0)
(49.7025 12.8085 0)
(49.7168 12.7982 0)
(49.7321 12.7905 0)
(49.7478 12.7856 0)
(49.7634 12.7835 0)
(49.7784 12.7843 0)
(49.7921 12.7877 0)
(49.804 12.7935 0)
(49.8136 12.8011 0)
(49.8205 12.8099 0)
(49.8243 12.8193 0)
(49.825 12.8284 0)
(49.8227 12.8364 0)
(49.8178 12.8425 0)
(49.8107 12.846 0)
(49.802 12.8462 0)
(49.7927 12.8429 0)
(49.7837 12.8355 0)
(49.7758 12.8241 0)
(49.7702 12.8088 0)
(49.7679 12.7897 0)
(49.7699 12.7673 0)
(49.7768 12.7422 0)
(49.7911 12.7149 0)
(49.8103 12.6874 0)
(49.8448 12.6578 0)
(49.871 12.6396 0)
(49.9485 12.5991 0)
(49.7211 12.9908 0)
(49.6508 13.1891 0)
(49.6519 13.0679 0)
(49.6434 13.106 0)
(49.6573 13.0811 0)
(49.6603 13.0796 0)
(49.6627 13.0655 0)
(49.6605 13.0535 0)
(49.6574 13.0386 0)
(49.6534 13.023 0)
(49.6494 13.0061 0)
(49.6457 12.9882 0)
(49.6428 12.9695 0)
(49.6409 12.9501 0)
(49.6403 12.9303 0)
(49.6414 12.9103 0)
(49.6442 12.8903 0)
(49.6491 12.8709 0)
(49.6561 12.8522 0)
(49.6651 12.8347 0)
(49.6761 12.8188 0)
(49.6889 12.8048 0)
(49.7033 12.7931 0)
(49.7188 12.784 0)
(49.7351 12.7777 0)
(49.7516 12.7743 0)
(49.7678 12.774 0)
(49.7831 12.7765 0)
(49.7968 12.7817 0)
(49.8084 12.7892 0)
(49.8174 12.7985 0)
(49.8233 12.8087 0)
(49.826 12.8193 0)
(49.8255 12.8294 0)
(49.8218 12.838 0)
(49.8154 12.8444 0)
(49.8068 12.8479 0)
(49.7968 12.848 0)
(49.7863 12.8441 0)
(49.7762 12.836 0)
(49.7675 12.8238 0)
(49.7613 12.8075 0)
(49.7585 12.7874 0)
(49.7604 12.7639 0)
(49.7674 12.7377 0)
(49.7821 12.7092 0)
(49.8018 12.6807 0)
(49.8375 12.6499 0)
(49.8645 12.6311 0)
(49.9451 12.5889 0)
(49.7166 12.991 0)
(49.6475 13.1903 0)
(49.6499 13.0686 0)
(49.6423 13.1086 0)
(49.6561 13.083 0)
(49.6583 13.0821 0)
(49.66 13.0679 0)
(49.6572 13.0562 0)
(49.6535 13.0414 0)
(49.6488 13.0259 0)
(49.6441 13.0091 0)
(49.6397 12.9913 0)
(49.6359 12.9725 0)
(49.6331 12.953 0)
(49.6316 12.9329 0)
(49.6318 12.9125 0)
(49.6337 12.8921 0)
(49.6378 12.8719 0)
(49.6439 12.8524 0)
(49.6522 12.8339 0)
(49.6627 12.8168 0)
(49.6751 12.8016 0)
(49.6893 12.7885 0)
(49.705 12.7779 0)
(49.7217 12.7701 0)
(49.739 12.7653 0)
(49.7563 12.7637 0)
(49.773 12.7651 0)
(49.7885 12.7695 0)
(49.8021 12.7765 0)
(49.8133 12.7858 0)
(49.8215 12.7966 0)
(49.8264 12.8083 0)
(49.8279 12.8201 0)
(49.8259 12.831 0)
(49.8208 12.8402 0)
(49.8128 12.8469 0)
(49.8028 12.8503 0)
(49.7914 12.85 0)
(49.7797 12.8456 0)
(49.7685 12.8368 0)
(49.759 12.8237 0)
(49.7522 12.8064 0)
(49.7491 12.7852 0)
(49.7508 12.7606 0)
(49.758 12.7333 0)
(49.7731 12.7037 0)
(49.7934 12.6742 0)
(49.8303 12.642 0)
(49.8581 12.6227 0)
(49.9418 12.5788 0)
(49.7121 12.9912 0)
(49.6445 13.1916 0)
(49.648 13.0694 0)
(49.6414 13.1113 0)
(49.6549 13.0849 0)
(49.6564 13.0846 0)
(49.6575 13.0703 0)
(49.654 13.0588 0)
(49.6497 13.0442 0)
(49.6444 13.0289 0)
(49.639 13.0122 0)
(49.6338 12.9945 0)
(49.6292 12.9757 0)
(49.6256 12.9561 0)
(49.6232 12.9358 0)
(49.6224 12.9151 0)
(49.6235 12.8942 0)
(49.6265 12.8734 0)
(49.6318 12.8531 0)
(49.6394 12.8337 0)
(49.6492 12.8155 0)
(49.6611 12.7989 0)
(49.675 12.7844 0)
(49.6907 12.7724 0)
(49.7077 12.763 0)
(49.7255 12.7567 0)
(49.7438 12.7535 0)
(49.7618 12.7536 0)
(49.7789 12.7569 0)
(49.7945 12.7632 0)
(49.8079 12.7721 0)
(49.8185 12.7831 0)
(49.8259 12.7955 0)
(49.8297 12.8086 0)
(49.8299 12.8215 0)
(49.8264 12.8332 0)
(49.8197 12.8429 0)
(49.8102 12.8498 0)
(49.7986 12.8531 0)
(49.7859 12.8524 0)
(49.7729 12.8474 0)
(49.7608 12.8378 0)
(49.7505 12.8237 0)
(49.7431 12.8054 0)
(49.7396 12.7831 0)
(49.7413 12.7574 0)
(49.7486 12.7291 0)
(49.7641 12.6983 0)
(49.7849 12.6677 0)
(49.8231 12.6343 0)
(49.8517 12.6145 0)
(49.9386 12.5686 0)
(49.7075 12.9913 0)
(49.6418 13.1928 0)
(49.6464 13.0703 0)
(49.6405 13.1138 0)
(49.6537 13.0868 0)
(49.6546 13.087 0)
(49.6551 13.0727 0)
(49.651 13.0616 0)
(49.6462 13.047 0)
(49.6402 13.032 0)
(49.6342 13.0154 0)
(49.6282 12.9978 0)
(49.6228 12.979 0)
(49.6183 12.9593 0)
(49.615 12.9389 0)
(49.6133 12.9179 0)
(49.6134 12.8966 0)
(49.6155 12.8752 0)
(49.6199 12.8542 0)
(49.6266 12.8339 0)
(49.6356 12.8146 0)
(49.647 12.7969 0)
(49.6605 12.781 0)
(49.676 12.7674 0)
(49.693 12.7565 0)
(49.7113 12.7485 0)
(49.7303 12.7437 0)
(49.7494 12.7423 0)
(49.768 12.7442 0)
(49.7855 12.7494 0)
(49.8011 12.7576 0)
(49.8141 12.7684 0)
(49.8241 12.7812 0)
(49.8305 12.7952 0)
(49.8332 12.8097 0)
(49.8319 12.8236 0)
(49.8269 12.8361 0)
(49.8185 12.8462 0)
(49.8074 12.8532 0)
(49.7943 12.8563 0)
(49.7802 12.8551 0)
(49.766 12.8494 0)
(49.7529 12.8389 0)
(49.7418 12.8239 0)
(49.7339 12.8045 0)
(49.7302 12.7812 0)
(49.7318 12.7544 0)
(49.7392 12.7249 0)
(49.7551 12.693 0)
(49.7765 12.6614 0)
(49.8159 12.6267 0)
(49.8454 12.6063 0)
(49.9354 12.5585 0)
(49.7028 12.9914 0)
(49.6394 13.194 0)
(49.6448 13.0712 0)
(49.6398 13.1163 0)
(49.6526 13.0887 0)
(49.6529 13.0895 0)
(49.6528 13.0751 0)
(49.6482 13.0643 0)
(49.6428 13.0499 0)
(49.6363 13.0351 0)
(49.6295 13.0186 0)
(49.6228 13.0011 0)
(49.6167 12.9824 0)
(49.6113 12.9628 0)
(49.6071 12.9422 0)
(49.6044 12.921 0)
(49.6036 12.8993 0)
(49.6047 12.8775 0)
(49.6081 12.8558 0)
(49.6139 12.8347 0)
(49.6221 12.8144 0)
(49.6328 12.7954 0)
(49.6457 12.7782 0)
(49.6609 12.7631 0)
(49.6779 12.7505 0)
(49.6964 12.7409 0)
(49.716 12.7344 0)
(49.736 12.7312 0)
(49.756 12.7316 0)
(49.7751 12.7355 0)
(49.7928 12.7426 0)
(49.8083 12.7528 0)
(49.8209 12.7655 0)
(49.8301 12.7801 0)
(49.8354 12.7957 0)
(49.8367 12.8115 0)
(49.8339 12.8264 0)
(49.8273 12.8396 0)
(49.8173 12.85 0)
(49.8045 12.857 0)
(49.7899 12.8598 0)
(49.7744 12.8581 0)
(49.759 12.8516 0)
(49.7449 12.8403 0)
(49.7331 12.8242 0)
(49.7247 12.8038 0)
(49.7207 12.7794 0)
(49.7222 12.7515 0)
(49.7298 12.7209 0)
(49.7462 12.6878 0)