/*--------------------------------*- C++ -*----------------------------------*\
  =========                 |
  \\      /  F ield         | OpenFOAM: The Open Source CFD Toolbox
   \\    /   O peration     | Website:  https://openfoam.org
    \\  /    A nd           | Version:  7
     \\/     M anipulation  |
\*---------------------------------------------------------------------------*/
FoamFile
{
    version     2.0;
    format      ascii;
    class       volScalarField;
    location    "200";
    object      yPlus;
}
// * * * * * * * * * * * * * * * * * * * * * * * * * * * * * * * * * * * * * //

dimensions      [0 0 0 0 0 0 0];

internalField   uniform 0;

boundaryField
{
    inlet-l
    {
        type            calculated;
        value           uniform 0;
    }
    airfoil-l1
    {
        type            calculated;
        value           nonuniform List<scalar> 
107
(
26.3344
25.6171
24.6661
23.5458
22.3251
21.0605
19.7944
18.5538
17.3535
16.1977
15.0932
14.0543
13.1008
12.238
11.4352
10.6786
9.95761
9.27258
8.61574
7.97779
7.35499
6.73453
6.10857
5.46719
4.79431
4.06622
3.2306
2.15815
0.927672
2.4797
3.36059
4.03798
4.60207
5.09857
5.54495
5.95623
6.34035
6.70064
7.04378
7.3775
7.70093
8.01465
8.32447
8.63173
8.93776
9.24215
9.54626
9.85411
10.1627
10.4714
10.7778
11.0897
11.4064
11.7281
12.0622
12.4061
12.7584
13.1119
13.4589
13.7898
14.109
14.4161
14.7136
15.0021
15.2825
15.5585
15.8253
16.088
16.3455
16.593
16.8442
17.0874
17.3293
17.5642
17.8024
18.0331
18.2587
18.4828
18.7048
18.9229
19.135
19.3465
19.553
19.7547
19.9565
20.1559
20.3457
20.5337
20.7194
20.8986
21.077
21.249
21.4172
21.5779
21.733
21.8891
22.0352
22.1772
22.3142
22.4476
22.5713
22.6902
22.8035
22.9115
23.013
23.1022
23.1905
)
;
    }
    empty-1
    {
        type            empty;
    }
    empty-2
    {
        type            empty;
    }
    wall-l1
    {
        type            calculated;
        value           nonuniform List<scalar> 
67
(
116.472
116.387
116.118
115.902
115.738
115.584
115.418
115.256
115.1
114.952
114.806
114.664
114.532
114.403
114.274
114.148
114.034
113.921
113.807
113.699
113.6
113.503
113.405
113.316
113.231
113.149
113.071
112.99
112.92
112.853
112.786
112.726
112.666
112.612
112.554
112.507
112.461
112.417
112.378
112.342
112.308
112.276
112.249
112.224
112.203
112.182
112.165
112.152
112.141
112.133
112.128
112.123
112.124
112.125
112.13
112.137
112.146
112.157
112.173
112.183
112.203
112.223
112.246
112.273
112.3
112.324
112.385
)
;
    }
    airfoil-l2
    {
        type            calculated;
        value           nonuniform List<scalar> 
67
(
23.3723
23.6156
23.8153
23.9825
24.1239
24.2455
24.3505
24.4469
24.5342
24.61
24.6781
24.7382
24.7931
24.8471
24.8943
24.9377
24.9778
25.0149
25.0494
25.083
25.1144
25.1411
25.1701
25.1948
25.2193
25.2435
25.2638
25.2828
25.3019
25.3197
25.3341
25.3515
25.3655
25.3786
25.3911
25.4047
25.4208
25.4334
25.4408
25.4516
25.4681
25.4796
25.4927
25.5074
25.5195
25.532
25.5469
25.5636
25.5783
25.5938
25.6107
25.6302
25.6539
25.678
25.7011
25.726
25.7536
25.784
25.8181
25.8574
25.9032
25.9551
26.0137
26.09
26.1634
26.352
26.2868
)
;
    }
    empty-3
    {
        type            empty;
    }
    empty-4
    {
        type            empty;
    }
    wall-l2
    {
        type            calculated;
        value           nonuniform List<scalar> 
74
(
112.209
112.006
111.814
111.591
111.359
111.137
110.925
110.717
110.515
110.321
110.136
109.959
109.793
109.639
109.496
109.366
109.25
109.148
109.062
108.992
108.939
108.902
108.884
108.882
108.899
108.933
108.985
109.054
109.139
109.239
109.354
109.481
109.621
109.77
109.927
110.09
110.256
110.424
110.59
110.751
110.905
111.049
111.178
111.29
111.382
111.449
111.487
111.493
111.462
111.39
111.273
111.106
110.883
110.599
110.249
109.826
109.324
108.736
108.053
107.266
106.366
105.34
104.176
102.858
101.368
99.6858
97.7873
95.6479
93.2423
90.5727
87.6645
84.8222
82.652
82.7119
)
;
    }
    outlet-l
    {
        type            calculated;
        value           uniform 0;
    }
    empty-5
    {
        type            empty;
    }
    empty-6
    {
        type            empty;
    }
    outlet-h
    {
        type            calculated;
        value           uniform 0;
    }
    wall-h2
    {
        type            calculated;
        value           nonuniform List<scalar> 
74
(
137.871
137.934
138.008
138.081
138.158
138.244
138.338
138.441
138.552
138.672
138.801
138.941
139.092
139.253
139.426
139.611
139.808
140.017
140.24
140.476
140.725
140.988
141.265
141.557
141.864
142.186
142.524
142.877
143.245
143.629
144.029
144.445
144.876
145.323
145.785
146.262
146.754
147.261
147.781
148.315
148.862
149.42
149.99
150.57
151.16
151.758
152.363
152.974
153.59
154.209
154.83
155.451
156.071
156.687
157.298
157.901
158.495
159.076
159.642
160.19
160.717
161.217
161.688
162.123
162.515
162.857
163.137
163.341
163.449
163.432
163.23
162.855
161.843
162.369
)
;
    }
    empty-7
    {
        type            empty;
    }
    empty-8
    {
        type            empty;
    }
    airfoil-h2
    {
        type            calculated;
        value           nonuniform List<scalar> 
67
(
29.6718
24.8627
20.8594
17.1834
14.5747
13.2715
13.691
14.6776
15.9197
16.9742
17.8751
18.5612
19.1011
19.496
19.7901
19.996
20.1387
20.2244
20.2592
20.2525
20.2125
20.14
20.038
19.9092
19.7484
19.559
19.3396
19.0875
18.8049
18.4864
18.1369
17.7556
17.3427
16.9018
16.4367
15.9526
15.4527
14.9439
14.4381
13.9437
13.4751
13.0515
12.6701
12.3272
12.0178
11.7408
11.4929
11.263
11.0427
10.8301
10.6104
10.3895
10.1638
9.96988
9.7658
9.61013
9.47668
9.41775
9.43943
9.54094
9.65259
9.7513
9.73519
9.07665
7.7646
6.96353
6.6389
)
;
    }
    wall-h1
    {
        type            calculated;
        value           nonuniform List<scalar> 
67
(
135.252
135.355
135.387
135.437
135.502
135.569
135.631
135.692
135.752
135.812
135.871
135.932
135.99
136.052
136.109
136.167
136.221
136.283
136.334
136.391
136.443
136.5
136.552
136.601
136.658
136.705
136.759
136.807
136.852
136.905
136.946
136.996
137.04
137.08
137.127
137.166
137.212
137.246
137.29
137.324
137.365
137.398
137.436
137.465
137.501
137.528
137.562
137.586
137.617
137.64
137.668
137.687
137.712
137.73
137.746
137.767
137.778
137.798
137.807
137.82
137.828
137.84
137.843
137.851
137.85
137.856
137.852
)
;
    }
    empty-9
    {
        type            empty;
    }
    empty-10
    {
        type            empty;
    }
    inlet-h
    {
        type            calculated;
        value           uniform 0;
    }
    airfoil-h1
    {
        type            calculated;
        value           nonuniform List<scalar> 
107
(
26.8134
27.1189
27.2256
27.0804
26.723
26.2346
25.686
25.1216
24.5572
24.0039
23.4787
22.9805
22.5018
22.0458
21.61
21.1916
20.7933
20.4074
20.0296
19.665
19.3014
18.9264
18.5347
18.1249
17.6941
17.2228
16.6858
16.0791
15.3631
14.4907
13.4157
12.0774
10.4161
8.52831
6.55567
4.48911
2.22175
1.56846
2.78436
3.61174
1.90819
5.82027
10.2049
7.80034
10.9387
15.4125
17.4896
18.1749
17.5155
15.4004
10.6846
8.19957
16.236
21.0416
23.9991
25.7267
26.6732
27.1919
27.568
27.991
28.48
29.0144
29.1855
27.8619
24.1757
19.1612
15.9857
16.0697
12.795
11.8781
18.6867
22.3248
24.804
26.7291
28.3325
29.7212
30.9522
32.0645
33.0694
33.9763
34.8119
35.5724
36.2604
36.8802
37.4344
37.921
38.3373
38.6694
38.9207
39.0989
39.1908
39.1853
39.1097
38.972
38.7696
38.5081
38.1872
37.8093
37.3752
36.8838
36.3464
35.7596
35.1235
34.4535
33.7594
33.0323
32.2403
)
;
    }
    empty-11
    {
        type            empty;
    }
    empty-12
    {
        type            empty;
    }
}


// ************************************************************************* //
