/*--------------------------------*- C++ -*----------------------------------*\
  =========                 |
  \\      /  F ield         | OpenFOAM: The Open Source CFD Toolbox
   \\    /   O peration     | Website:  https://openfoam.org
    \\  /    A nd           | Version:  7
     \\/     M anipulation  |
\*---------------------------------------------------------------------------*/
FoamFile
{
    version     2.0;
    format      ascii;
    class       volScalarField;
    location    "1400";
    object      nut;
}
// * * * * * * * * * * * * * * * * * * * * * * * * * * * * * * * * * * * * * //

dimensions      [0 2 -1 0 0 0 0];

internalField   nonuniform List<scalar> 
23023
(
5.25599e-06
5.25607e-06
5.25598e-06
5.256e-06
5.25607e-06
5.25597e-06
5.25622e-06
5.25595e-06
5.25606e-06
5.25597e-06
5.25614e-06
5.2559e-06
5.25606e-06
5.25597e-06
5.25671e-06
5.25607e-06
5.25586e-06
5.25607e-06
5.25597e-06
5.2571e-06
5.25665e-06
5.256e-06
5.25582e-06
5.25607e-06
5.25598e-06
5.25728e-06
5.25709e-06
5.25658e-06
5.25594e-06
5.2558e-06
5.25609e-06
5.25599e-06
5.25715e-06
5.2573e-06
5.25706e-06
5.2565e-06
5.25588e-06
5.25578e-06
5.2561e-06
5.25601e-06
5.25673e-06
5.25722e-06
5.25733e-06
5.25703e-06
5.25641e-06
5.25584e-06
5.25577e-06
5.25612e-06
5.25603e-06
5.25601e-06
5.25683e-06
5.25728e-06
5.25734e-06
5.257e-06
5.25631e-06
5.2558e-06
5.25576e-06
5.25615e-06
5.25605e-06
5.25613e-06
5.25693e-06
5.25734e-06
5.25735e-06
5.25695e-06
5.25621e-06
5.25576e-06
5.25576e-06
5.25618e-06
5.25607e-06
5.25516e-06
5.25626e-06
5.25702e-06
5.2574e-06
5.25736e-06
5.2569e-06
5.25611e-06
5.25573e-06
5.25577e-06
5.25621e-06
5.2561e-06
5.25395e-06
5.2553e-06
5.25638e-06
5.25712e-06
5.25745e-06
5.25735e-06
5.25684e-06
5.25601e-06
5.25571e-06
5.25578e-06
5.25625e-06
5.25613e-06
5.25258e-06
5.25409e-06
5.25544e-06
5.2565e-06
5.2572e-06
5.25749e-06
5.25734e-06
5.25676e-06
5.25591e-06
5.2557e-06
5.2558e-06
5.25629e-06
5.25616e-06
5.25112e-06
5.25271e-06
5.25423e-06
5.25557e-06
5.25662e-06
5.25729e-06
5.25753e-06
5.25733e-06
5.25668e-06
5.25583e-06
5.25569e-06
5.25583e-06
5.25633e-06
5.2562e-06
5.25122e-06
5.25283e-06
5.25437e-06
5.25571e-06
5.25674e-06
5.25737e-06
5.25756e-06
5.2573e-06
5.2566e-06
5.25575e-06
5.2557e-06
5.25586e-06
5.25638e-06
5.25623e-06
5.24974e-06
5.25133e-06
5.25297e-06
5.25452e-06
5.25585e-06
5.25686e-06
5.25745e-06
5.25759e-06
5.25727e-06
5.2565e-06
5.25568e-06
5.25571e-06
5.2559e-06
5.25643e-06
5.25627e-06
5.24846e-06
5.24981e-06
5.25144e-06
5.2531e-06
5.25467e-06
5.25599e-06
5.25697e-06
5.25753e-06
5.25761e-06
5.25723e-06
5.25639e-06
5.25563e-06
5.25573e-06
5.25594e-06
5.25649e-06
5.25632e-06
5.24849e-06
5.24989e-06
5.25155e-06
5.25324e-06
5.25482e-06
5.25613e-06
5.25709e-06
5.25759e-06
5.25763e-06
5.25719e-06
5.25628e-06
5.25558e-06
5.25575e-06
5.25599e-06
5.25654e-06
5.25636e-06
5.2479e-06
5.24852e-06
5.24997e-06
5.25168e-06
5.25339e-06
5.25497e-06
5.25628e-06
5.2572e-06
5.25766e-06
5.25764e-06
5.25713e-06
5.25616e-06
5.25554e-06
5.25579e-06
5.25604e-06
5.25661e-06
5.25641e-06
5.24788e-06
5.24789e-06
5.24856e-06
5.25006e-06
5.2518e-06
5.25354e-06
5.25512e-06
5.25641e-06
5.2573e-06
5.25772e-06
5.25764e-06
5.25707e-06
5.25604e-06
5.25551e-06
5.25583e-06
5.2561e-06
5.25667e-06
5.25645e-06
5.2479e-06
5.24789e-06
5.24788e-06
5.2486e-06
5.25015e-06
5.25193e-06
5.25369e-06
5.25528e-06
5.25655e-06
5.25741e-06
5.25777e-06
5.25763e-06
5.25699e-06
5.25591e-06
5.25549e-06
5.25588e-06
5.25616e-06
5.25674e-06
5.2565e-06
5.24774e-06
5.24794e-06
5.2479e-06
5.24788e-06
5.24865e-06
5.25025e-06
5.25207e-06
5.25385e-06
5.25544e-06
5.25669e-06
5.25751e-06
5.25782e-06
5.25762e-06
5.25691e-06
5.25579e-06
5.25548e-06
5.25593e-06
5.25623e-06
5.25681e-06
5.25655e-06
5.2478e-06
5.24797e-06
5.2479e-06
5.24787e-06
5.2487e-06
5.25036e-06
5.25221e-06
5.25401e-06
5.25559e-06
5.25683e-06
5.2576e-06
5.25786e-06
5.25759e-06
5.25681e-06
5.25568e-06
5.25548e-06
5.25599e-06
5.2563e-06
5.25688e-06
5.25661e-06
5.24743e-06
5.24787e-06
5.24801e-06
5.2479e-06
5.24786e-06
5.24876e-06
5.25047e-06
5.25236e-06
5.25417e-06
5.25575e-06
5.25696e-06
5.25769e-06
5.25789e-06
5.25756e-06
5.25671e-06
5.25558e-06
5.25549e-06
5.25606e-06
5.25638e-06
5.25695e-06
5.25666e-06
5.24688e-06
5.24751e-06
5.24793e-06
5.24805e-06
5.2479e-06
5.24786e-06
5.24883e-06
5.25059e-06
5.25251e-06
5.25434e-06
5.25591e-06
5.25709e-06
5.25778e-06
5.25792e-06
5.25752e-06
5.2566e-06
5.25549e-06
5.25551e-06
5.25614e-06
5.25646e-06
5.25703e-06
5.25671e-06
5.24694e-06
5.24758e-06
5.248e-06
5.24808e-06
5.2479e-06
5.24786e-06
5.2489e-06
5.25072e-06
5.25267e-06
5.25451e-06
5.25607e-06
5.25722e-06
5.25786e-06
5.25794e-06
5.25748e-06
5.25648e-06
5.25542e-06
5.25554e-06
5.25622e-06
5.25655e-06
5.25711e-06
5.25677e-06
5.24632e-06
5.24701e-06
5.24766e-06
5.24806e-06
5.24811e-06
5.24789e-06
5.24786e-06
5.24898e-06
5.25085e-06
5.25283e-06
5.25468e-06
5.25623e-06
5.25735e-06
5.25794e-06
5.25796e-06
5.25742e-06
5.25635e-06
5.25535e-06
5.25558e-06
5.25631e-06
5.25663e-06
5.25719e-06
5.25683e-06
5.24581e-06
5.24636e-06
5.24709e-06
5.24774e-06
5.24813e-06
5.24814e-06
5.24789e-06
5.24786e-06
5.24907e-06
5.25099e-06
5.253e-06
5.25485e-06
5.25639e-06
5.25747e-06
5.25801e-06
5.25796e-06
5.25736e-06
5.25621e-06
5.25531e-06
5.25563e-06
5.25641e-06
5.25673e-06
5.25727e-06
5.25688e-06
5.24581e-06
5.24641e-06
5.24716e-06
5.24783e-06
5.24819e-06
5.24817e-06
5.24787e-06
5.24787e-06
5.24916e-06
5.25113e-06
5.25317e-06
5.25502e-06
5.25655e-06
5.25759e-06
5.25807e-06
5.25796e-06
5.25728e-06
5.25606e-06
5.25527e-06
5.25569e-06
5.25651e-06
5.25682e-06
5.25736e-06
5.25694e-06
5.24558e-06
5.24582e-06
5.24646e-06
5.24725e-06
5.24792e-06
5.24826e-06
5.24819e-06
5.24786e-06
5.24788e-06
5.24926e-06
5.25128e-06
5.25334e-06
5.2552e-06
5.2567e-06
5.25771e-06
5.25813e-06
5.25795e-06
5.25719e-06
5.25592e-06
5.25524e-06
5.25576e-06
5.25662e-06
5.25692e-06
5.25744e-06
5.257e-06
5.24557e-06
5.24554e-06
5.24583e-06
5.24652e-06
5.24733e-06
5.248e-06
5.24832e-06
5.24821e-06
5.24784e-06
5.2479e-06
5.24937e-06
5.25144e-06
5.25352e-06
5.25538e-06
5.25686e-06
5.25782e-06
5.25818e-06
5.25793e-06
5.2571e-06
5.25577e-06
5.25523e-06
5.25584e-06
5.25673e-06
5.25702e-06
5.25753e-06
5.25706e-06
5.24555e-06
5.24551e-06
5.24585e-06
5.24658e-06
5.24743e-06
5.24809e-06
5.24838e-06
5.24823e-06
5.24782e-06
5.24792e-06
5.24949e-06
5.2516e-06
5.2537e-06
5.25556e-06
5.25701e-06
5.25793e-06
5.25823e-06
5.2579e-06
5.25699e-06
5.25563e-06
5.25523e-06
5.25593e-06
5.25685e-06
5.25712e-06
5.25762e-06
5.25712e-06
5.24525e-06
5.24553e-06
5.24548e-06
5.24587e-06
5.24665e-06
5.24752e-06
5.24819e-06
5.24844e-06
5.24824e-06
5.2478e-06
5.24796e-06
5.24961e-06
5.25177e-06
5.25388e-06
5.25574e-06
5.25716e-06
5.25803e-06
5.25826e-06
5.25787e-06
5.25687e-06
5.25549e-06
5.25525e-06
5.25602e-06
5.25697e-06
5.25722e-06
5.25771e-06
5.25718e-06
5.24468e-06
5.24525e-06
5.2455e-06
5.24545e-06
5.2459e-06
5.24673e-06
5.24762e-06
5.24828e-06
5.2485e-06
5.24825e-06
5.24777e-06
5.24801e-06
5.24975e-06
5.25194e-06
5.25407e-06
5.25592e-06
5.25731e-06
5.25813e-06
5.25829e-06
5.25782e-06
5.25675e-06
5.25536e-06
5.25527e-06
5.25613e-06
5.2571e-06
5.25733e-06
5.25779e-06
5.25724e-06
5.24469e-06
5.24526e-06
5.24546e-06
5.24543e-06
5.24594e-06
5.24681e-06
5.24772e-06
5.24837e-06
5.24856e-06
5.24825e-06
5.24774e-06
5.24806e-06
5.24988e-06
5.25212e-06
5.25426e-06
5.2561e-06
5.25746e-06
5.25822e-06
5.25831e-06
5.25777e-06
5.25661e-06
5.25525e-06
5.25531e-06
5.25624e-06
5.25724e-06
5.25743e-06
5.25788e-06
5.2573e-06
5.24396e-06
5.24471e-06
5.24526e-06
5.24543e-06
5.24542e-06
5.24598e-06
5.2469e-06
5.24783e-06
5.24847e-06
5.24861e-06
5.24825e-06
5.24771e-06
5.24813e-06
5.25003e-06
5.2523e-06
5.25445e-06
5.25628e-06
5.2576e-06
5.2583e-06
5.25833e-06
5.2577e-06
5.25646e-06
5.25515e-06
5.25536e-06
5.25636e-06
5.25737e-06
5.25754e-06
5.25797e-06
5.25735e-06
5.24321e-06
5.24397e-06
5.24472e-06
5.24526e-06
5.24539e-06
5.24541e-06
5.24603e-06
5.24699e-06
5.24794e-06
5.24856e-06
5.24866e-06
5.24824e-06
5.24769e-06
5.2482e-06
5.25018e-06
5.25249e-06
5.25465e-06
5.25645e-06
5.25774e-06
5.25838e-06
5.25833e-06
5.25762e-06
5.25631e-06
5.25507e-06
5.25542e-06
5.25649e-06
5.25751e-06
5.25765e-06
5.25806e-06
5.25741e-06
5.24264e-06
5.2432e-06
5.24398e-06
5.24473e-06
5.24525e-06
5.24535e-06
5.2454e-06
5.24609e-06
5.24709e-06
5.24805e-06
5.24865e-06
5.2487e-06
5.24823e-06
5.24766e-06
5.24829e-06
5.25035e-06
5.25268e-06
5.25485e-06
5.25663e-06
5.25788e-06
5.25845e-06
5.25833e-06
5.25754e-06
5.25615e-06
5.25501e-06
5.25549e-06
5.25663e-06
5.25766e-06
5.25776e-06
5.25815e-06
5.25747e-06
5.24236e-06
5.24262e-06
5.24319e-06
5.24399e-06
5.24475e-06
5.24525e-06
5.2453e-06
5.24541e-06
5.24615e-06
5.2472e-06
5.24817e-06
5.24874e-06
5.24874e-06
5.24821e-06
5.24763e-06
5.24838e-06
5.25051e-06
5.25288e-06
5.25504e-06
5.25681e-06
5.25801e-06
5.25852e-06
5.25831e-06
5.25744e-06
5.25598e-06
5.25496e-06
5.25558e-06
5.25677e-06
5.2578e-06
5.25787e-06
5.25824e-06
5.25753e-06
5.2421e-06
5.24236e-06
5.2426e-06
5.24318e-06
5.244e-06
5.24476e-06
5.24524e-06
5.24525e-06
5.24541e-06
5.24622e-06
5.24731e-06
5.24829e-06
5.24883e-06
5.24878e-06
5.24819e-06
5.2476e-06
5.24849e-06
5.25069e-06
5.25308e-06
5.25524e-06
5.25698e-06
5.25813e-06
5.25857e-06
5.25829e-06
5.25733e-06
5.25581e-06
5.25493e-06
5.25568e-06
5.25692e-06
5.25795e-06
5.25798e-06
5.25833e-06
5.25759e-06
5.24176e-06
5.2421e-06
5.24235e-06
5.24259e-06
5.24318e-06
5.24401e-06
5.24477e-06
5.24523e-06
5.2452e-06
5.24543e-06
5.24629e-06
5.24742e-06
5.2484e-06
5.24892e-06
5.24881e-06
5.24816e-06
5.24758e-06
5.2486e-06
5.25087e-06
5.25328e-06
5.25544e-06
5.25716e-06
5.25825e-06
5.25862e-06
5.25826e-06
5.25721e-06
5.25564e-06
5.25492e-06
5.25579e-06
5.25708e-06
5.25811e-06
5.25809e-06
5.25842e-06
5.25764e-06
5.24176e-06
5.2421e-06
5.24235e-06
5.24257e-06
5.24318e-06
5.24402e-06
5.24478e-06
5.24522e-06
5.24516e-06
5.24545e-06
5.24638e-06
5.24754e-06
5.24852e-06
5.24901e-06
5.24884e-06
5.24813e-06
5.24756e-06
5.24872e-06
5.25106e-06
5.25349e-06
5.25565e-06
5.25732e-06
5.25837e-06
5.25866e-06
5.25822e-06
5.25708e-06
5.25547e-06
5.25493e-06
5.2559e-06
5.25724e-06
5.25826e-06
5.2582e-06
5.25851e-06
5.2577e-06
5.24139e-06
5.24176e-06
5.2421e-06
5.24234e-06
5.24256e-06
5.24318e-06
5.24404e-06
5.2448e-06
5.2452e-06
5.24511e-06
5.24547e-06
5.24647e-06
5.24766e-06
5.24865e-06
5.24909e-06
5.24886e-06
5.24809e-06
5.24755e-06
5.24885e-06
5.25125e-06
5.2537e-06
5.25585e-06
5.25749e-06
5.25847e-06
5.2587e-06
5.25816e-06
5.25694e-06
5.25531e-06
5.25495e-06
5.25603e-06
5.25741e-06
5.25842e-06
5.25831e-06
5.2586e-06
5.25775e-06
5.24102e-06
5.24138e-06
5.24176e-06
5.24211e-06
5.24234e-06
5.24254e-06
5.24318e-06
5.24405e-06
5.24481e-06
5.24518e-06
5.24507e-06
5.24551e-06
5.24656e-06
5.24779e-06
5.24877e-06
5.24917e-06
5.24887e-06
5.24805e-06
5.24755e-06
5.24899e-06
5.25145e-06
5.25392e-06
5.25605e-06
5.25765e-06
5.25858e-06
5.25872e-06
5.2581e-06
5.25679e-06
5.25515e-06
5.25498e-06
5.25617e-06
5.25758e-06
5.25858e-06
5.25842e-06
5.25869e-06
5.25781e-06
5.241e-06
5.24137e-06
5.24177e-06
5.24211e-06
5.24233e-06
5.24253e-06
5.24318e-06
5.24407e-06
5.24482e-06
5.24515e-06
5.24503e-06
5.24555e-06
5.24667e-06
5.24792e-06
5.24889e-06
5.24925e-06
5.24888e-06
5.248e-06
5.24756e-06
5.24914e-06
5.25165e-06
5.25413e-06
5.25625e-06
5.25781e-06
5.25867e-06
5.25874e-06
5.25803e-06
5.25662e-06
5.25501e-06
5.25503e-06
5.25632e-06
5.25776e-06
5.25874e-06
5.25853e-06
5.25877e-06
5.25786e-06
5.24065e-06
5.24099e-06
5.24137e-06
5.24177e-06
5.24212e-06
5.24233e-06
5.24252e-06
5.24318e-06
5.24409e-06
5.24483e-06
5.24512e-06
5.245e-06
5.2456e-06
5.24678e-06
5.24806e-06
5.24901e-06
5.24932e-06
5.24889e-06
5.24795e-06
5.24758e-06
5.2493e-06
5.25186e-06
5.25435e-06
5.25645e-06
5.25797e-06
5.25876e-06
5.25874e-06
5.25794e-06
5.25645e-06
5.25489e-06
5.2551e-06
5.25648e-06
5.25794e-06
5.2589e-06
5.25864e-06
5.25886e-06
5.25791e-06
5.24033e-06
5.24063e-06
5.24098e-06
5.24137e-06
5.24178e-06
5.24213e-06
5.24233e-06
5.24251e-06
5.24319e-06
5.24411e-06
5.24484e-06
5.24509e-06
5.24498e-06
5.24565e-06
5.24689e-06
5.2482e-06
5.24914e-06
5.24939e-06
5.24888e-06
5.24789e-06
5.24761e-06
5.24947e-06
5.25208e-06
5.25457e-06
5.25665e-06
5.25812e-06
5.25884e-06
5.25874e-06
5.25784e-06
5.25627e-06
5.25479e-06
5.25518e-06
5.25665e-06
5.25813e-06
5.25906e-06
5.25874e-06
5.25894e-06
5.25796e-06
5.24002e-06
5.24031e-06
5.24061e-06
5.24096e-06
5.24137e-06
5.24179e-06
5.24214e-06
5.24233e-06
5.24249e-06
5.2432e-06
5.24413e-06
5.24484e-06
5.24505e-06
5.24496e-06
5.24572e-06
5.24701e-06
5.24834e-06
5.24926e-06
5.24945e-06
5.24887e-06
5.24783e-06
5.24766e-06
5.24965e-06
5.2523e-06
5.25479e-06
5.25684e-06
5.25827e-06
5.25891e-06
5.25872e-06
5.25773e-06
5.25609e-06
5.25471e-06
5.25527e-06
5.25683e-06
5.25833e-06
5.25922e-06
5.25885e-06
5.25903e-06
5.25801e-06
5.23973e-06
5.24001e-06
5.24029e-06
5.2406e-06
5.24096e-06
5.24137e-06
5.24181e-06
5.24215e-06
5.24232e-06
5.24248e-06
5.24321e-06
5.24415e-06
5.24485e-06
5.245e-06
5.24496e-06
5.24579e-06
5.24714e-06
5.24849e-06
5.24938e-06
5.24951e-06
5.24885e-06
5.24777e-06
5.24773e-06
5.24983e-06
5.25253e-06
5.25502e-06
5.25704e-06
5.25841e-06
5.25898e-06
5.2587e-06
5.25761e-06
5.2559e-06
5.25465e-06
5.25538e-06
5.25701e-06
5.25852e-06
5.25938e-06
5.25895e-06
5.25911e-06
5.25805e-06
5.23943e-06
5.23972e-06
5.23999e-06
5.24027e-06
5.24058e-06
5.24095e-06
5.24138e-06
5.24182e-06
5.24216e-06
5.24232e-06
5.24247e-06
5.24322e-06
5.24417e-06
5.24485e-06
5.24496e-06
5.24496e-06
5.24587e-06
5.24727e-06
5.24863e-06
5.24949e-06
5.24957e-06
5.24882e-06
5.24771e-06
5.24781e-06
5.25003e-06
5.25275e-06
5.25524e-06
5.25723e-06
5.25854e-06
5.25903e-06
5.25866e-06
5.25748e-06
5.2557e-06
5.25461e-06
5.2555e-06
5.2572e-06
5.25872e-06
5.25954e-06
5.25905e-06
5.25919e-06
5.2581e-06
5.23911e-06
5.23941e-06
5.2397e-06
5.23998e-06
5.24025e-06
5.24057e-06
5.24094e-06
5.24139e-06
5.24184e-06
5.24218e-06
5.24231e-06
5.24246e-06
5.24323e-06
5.24419e-06
5.24485e-06
5.24491e-06
5.24496e-06
5.24596e-06
5.24741e-06
5.24878e-06
5.24961e-06
5.24961e-06
5.24879e-06
5.24765e-06
5.2479e-06
5.25023e-06
5.25299e-06
5.25547e-06
5.25742e-06
5.25867e-06
5.25908e-06
5.25861e-06
5.25734e-06
5.25551e-06
5.2546e-06
5.25564e-06
5.25741e-06
5.25893e-06
5.2597e-06
5.25915e-06
5.25927e-06
5.25814e-06
5.23878e-06
5.2391e-06
5.2394e-06
5.23969e-06
5.23996e-06
5.24024e-06
5.24055e-06
5.24094e-06
5.2414e-06
5.24186e-06
5.24219e-06
5.24231e-06
5.24245e-06
5.24325e-06
5.24421e-06
5.24484e-06
5.24486e-06
5.24498e-06
5.24606e-06
5.24756e-06
5.24893e-06
5.24972e-06
5.24965e-06
5.24875e-06
5.24759e-06
5.24801e-06
5.25044e-06
5.25322e-06
5.25569e-06
5.25761e-06
5.25879e-06
5.25912e-06
5.25855e-06
5.25718e-06
5.25532e-06
5.2546e-06
5.25578e-06
5.25761e-06
5.25913e-06
5.25986e-06
5.25924e-06
5.25934e-06
5.25818e-06
5.23845e-06
5.23877e-06
5.23908e-06
5.23939e-06
5.23968e-06
5.23995e-06
5.24023e-06
5.24055e-06
5.24094e-06
5.24141e-06
5.24188e-06
5.24221e-06
5.2423e-06
5.24244e-06
5.24327e-06
5.24423e-06
5.24483e-06
5.2448e-06
5.245e-06
5.24616e-06
5.24771e-06
5.24909e-06
5.24983e-06
5.24969e-06
5.2487e-06
5.24753e-06
5.24813e-06
5.25066e-06
5.25346e-06
5.25592e-06
5.25779e-06
5.25891e-06
5.25914e-06
5.25848e-06
5.25701e-06
5.25513e-06
5.25463e-06
5.25595e-06
5.25783e-06
5.25934e-06
5.26002e-06
5.25933e-06
5.25941e-06
5.25822e-06
5.23812e-06
5.23843e-06
5.23875e-06
5.23907e-06
5.23938e-06
5.23967e-06
5.23994e-06
5.24021e-06
5.24054e-06
5.24095e-06
5.24143e-06
5.2419e-06
5.24222e-06
5.2423e-06
5.24244e-06
5.24328e-06
5.24425e-06
5.24482e-06
5.24475e-06
5.24504e-06
5.24627e-06
5.24786e-06
5.24924e-06
5.24994e-06
5.24971e-06
5.24864e-06
5.24748e-06
5.24827e-06
5.25089e-06
5.25371e-06
5.25614e-06
5.25797e-06
5.25901e-06
5.25916e-06
5.2584e-06
5.25683e-06
5.25495e-06
5.25467e-06
5.25612e-06
5.25805e-06
5.25955e-06
5.26018e-06
5.25942e-06
5.25949e-06
5.25826e-06
5.2378e-06
5.2381e-06
5.23842e-06
5.23874e-06
5.23906e-06
5.23938e-06
5.23967e-06
5.23993e-06
5.24021e-06
5.24053e-06
5.24095e-06
5.24145e-06
5.24192e-06
5.24223e-06
5.24229e-06
5.24243e-06
5.2433e-06
5.24427e-06
5.2448e-06
5.2447e-06
5.24508e-06
5.24639e-06
5.24802e-06
5.24939e-06
5.25004e-06
5.24973e-06
5.24858e-06
5.24743e-06
5.24842e-06
5.25112e-06
5.25395e-06
5.25636e-06
5.25814e-06
5.25911e-06
5.25917e-06
5.25831e-06
5.25664e-06
5.25479e-06
5.25474e-06
5.2563e-06
5.25828e-06
5.25976e-06
5.26033e-06
5.25951e-06
5.25956e-06
5.25829e-06
5.23748e-06
5.23778e-06
5.23809e-06
5.2384e-06
5.23873e-06
5.23905e-06
5.23937e-06
5.23966e-06
5.23993e-06
5.2402e-06
5.24053e-06
5.24096e-06
5.24147e-06
5.24195e-06
5.24225e-06
5.24228e-06
5.24243e-06
5.24332e-06
5.24429e-06
5.24478e-06
5.24465e-06
5.24512e-06
5.24652e-06
5.24819e-06
5.24954e-06
5.25014e-06
5.24974e-06
5.24851e-06
5.24739e-06
5.24858e-06
5.25136e-06
5.2542e-06
5.25658e-06
5.25831e-06
5.2592e-06
5.25917e-06
5.2582e-06
5.25645e-06
5.25464e-06
5.25482e-06
5.2565e-06
5.25851e-06
5.25997e-06
5.26048e-06
5.25959e-06
5.25962e-06
5.25832e-06
5.23717e-06
5.23746e-06
5.23776e-06
5.23807e-06
5.23839e-06
5.23872e-06
5.23905e-06
5.23937e-06
5.23966e-06
5.23992e-06
5.24019e-06
5.24053e-06
5.24097e-06
5.24149e-06
5.24198e-06
5.24226e-06
5.24227e-06
5.24243e-06
5.24335e-06
5.2443e-06
5.24476e-06
5.2446e-06
5.24518e-06
5.24665e-06
5.24835e-06
5.2497e-06
5.25023e-06
5.24974e-06
5.24843e-06
5.24736e-06
5.24875e-06
5.2516e-06
5.25444e-06
5.2568e-06
5.25847e-06
5.25929e-06
5.25915e-06
5.25808e-06
5.25624e-06
5.25452e-06
5.25491e-06
5.2567e-06
5.25875e-06
5.26019e-06
5.26063e-06
5.25967e-06
5.25969e-06
5.25835e-06
5.23683e-06
5.23715e-06
5.23745e-06
5.23775e-06
5.23806e-06
5.23838e-06
5.23871e-06
5.23904e-06
5.23937e-06
5.23966e-06
5.23992e-06
5.24019e-06
5.24053e-06
5.24098e-06
5.24152e-06
5.242e-06
5.24228e-06
5.24226e-06
5.24243e-06
5.24337e-06
5.24432e-06
5.24473e-06
5.24456e-06
5.24525e-06
5.24679e-06
5.24852e-06
5.24985e-06
5.25032e-06
5.24974e-06
5.24835e-06
5.24735e-06
5.24893e-06
5.25185e-06
5.25469e-06
5.25702e-06
5.25863e-06
5.25936e-06
5.25913e-06
5.25795e-06
5.25603e-06
5.25442e-06
5.25503e-06
5.25692e-06
5.25899e-06
5.2604e-06
5.26078e-06
5.25975e-06
5.25975e-06
5.25838e-06
5.23644e-06
5.23681e-06
5.23713e-06
5.23743e-06
5.23774e-06
5.23805e-06
5.23837e-06
5.2387e-06
5.23904e-06
5.23937e-06
5.23966e-06
5.23991e-06
5.24018e-06
5.24053e-06
5.241e-06
5.24154e-06
5.24203e-06
5.24229e-06
5.24225e-06
5.24244e-06
5.2434e-06
5.24433e-06
5.24469e-06
5.24452e-06
5.24532e-06
5.24694e-06
5.2487e-06
5.25e-06
5.2504e-06
5.24972e-06
5.24826e-06
5.24735e-06
5.24913e-06
5.2521e-06
5.25494e-06
5.25723e-06
5.25878e-06
5.25942e-06
5.25909e-06
5.2578e-06
5.25581e-06
5.25435e-06
5.25516e-06
5.25714e-06
5.25924e-06
5.26061e-06
5.26092e-06
5.25982e-06
5.25981e-06
5.2584e-06
5.23597e-06
5.23641e-06
5.23679e-06
5.23712e-06
5.23742e-06
5.23773e-06
5.23804e-06
5.23836e-06
5.2387e-06
5.23904e-06
5.23937e-06
5.23966e-06
5.23991e-06
5.24018e-06
5.24053e-06
5.24101e-06
5.24157e-06
5.24206e-06
5.2423e-06
5.24223e-06
5.24244e-06
5.24342e-06
5.24434e-06
5.24465e-06
5.2445e-06
5.24541e-06
5.24709e-06
5.24888e-06
5.25015e-06
5.25047e-06
5.2497e-06
5.24817e-06
5.24736e-06
5.24933e-06
5.25236e-06
5.25519e-06
5.25744e-06
5.25892e-06
5.25948e-06
5.25904e-06
5.25765e-06
5.2556e-06
5.2543e-06
5.25531e-06
5.25738e-06
5.25949e-06
5.26082e-06
5.26106e-06
5.25988e-06
5.25987e-06
5.25842e-06
5.23548e-06
5.23594e-06
5.23638e-06
5.23677e-06
5.23711e-06
5.23741e-06
5.23772e-06
5.23803e-06
5.23836e-06
5.2387e-06
5.23904e-06
5.23937e-06
5.23966e-06
5.23991e-06
5.24018e-06
5.24054e-06
5.24103e-06
5.2416e-06
5.24209e-06
5.24231e-06
5.24222e-06
5.24245e-06
5.24345e-06
5.24435e-06
5.24461e-06
5.24448e-06
5.2455e-06
5.24726e-06
5.24906e-06
5.25029e-06
5.25054e-06
5.24966e-06
5.24807e-06
5.2474e-06
5.24955e-06
5.25262e-06
5.25544e-06
5.25765e-06
5.25906e-06
5.25952e-06
5.25898e-06
5.25747e-06
5.25538e-06
5.25428e-06
5.25547e-06
5.25762e-06
5.25975e-06
5.26104e-06
5.2612e-06
5.25995e-06
5.25992e-06
5.25844e-06
5.23545e-06
5.2359e-06
5.23635e-06
5.23675e-06
5.2371e-06
5.23741e-06
5.23771e-06
5.23803e-06
5.23836e-06
5.2387e-06
5.23905e-06
5.23938e-06
5.23966e-06
5.23991e-06
5.24018e-06
5.24055e-06
5.24105e-06
5.24164e-06
5.24213e-06
5.24232e-06
5.2422e-06
5.24246e-06
5.24348e-06
5.24436e-06
5.24456e-06
5.24448e-06
5.2456e-06
5.24742e-06
5.24924e-06
5.25043e-06
5.25059e-06
5.24962e-06
5.24797e-06
5.24746e-06
5.24978e-06
5.25289e-06
5.25569e-06
5.25785e-06
5.25919e-06
5.25956e-06
5.2589e-06
5.25729e-06
5.25516e-06
5.25429e-06
5.25565e-06
5.25787e-06
5.26e-06
5.26125e-06
5.26133e-06
5.26001e-06
5.25997e-06
5.25846e-06
5.2351e-06
5.23543e-06
5.23587e-06
5.23633e-06
5.23674e-06
5.23709e-06
5.2374e-06
5.23771e-06
5.23802e-06
5.23836e-06
5.2387e-06
5.23905e-06
5.23939e-06
5.23967e-06
5.23991e-06
5.24018e-06
5.24056e-06
5.24108e-06
5.24167e-06
5.24216e-06
5.24233e-06
5.24218e-06
5.24247e-06
5.2435e-06
5.24436e-06
5.24451e-06
5.24449e-06
5.24571e-06
5.2476e-06
5.24942e-06
5.25057e-06
5.25065e-06
5.24956e-06
5.24787e-06
5.24754e-06
5.25001e-06
5.25316e-06
5.25594e-06
5.25805e-06
5.25931e-06
5.25958e-06
5.25881e-06
5.2571e-06
5.25496e-06
5.25432e-06
5.25584e-06
5.25813e-06
5.26026e-06
5.26145e-06
5.26145e-06
5.26006e-06
5.26002e-06
5.25847e-06
5.2351e-06
5.23542e-06
5.23585e-06
5.23631e-06
5.23672e-06
5.23708e-06
5.2374e-06
5.23771e-06
5.23802e-06
5.23836e-06
5.23871e-06
5.23906e-06
5.23939e-06
5.23967e-06
5.23992e-06
5.24018e-06
5.24057e-06
5.2411e-06
5.24171e-06
5.24219e-06
5.24234e-06
5.24216e-06
5.24248e-06
5.24353e-06
5.24436e-06
5.24445e-06
5.24451e-06
5.24584e-06
5.24778e-06
5.2496e-06
5.25071e-06
5.25069e-06
5.2495e-06
5.24777e-06
5.24764e-06
5.25026e-06
5.25343e-06
5.25619e-06
5.25824e-06
5.25942e-06
5.25959e-06
5.25871e-06
5.25689e-06
5.25476e-06
5.25437e-06
5.25604e-06
5.25839e-06
5.26052e-06
5.26166e-06
5.26158e-06
5.26011e-06
5.26007e-06
5.25848e-06
5.23504e-06
5.23512e-06
5.23541e-06
5.23583e-06
5.23629e-06
5.23671e-06
5.23707e-06
5.2374e-06
5.23771e-06
5.23803e-06
5.23836e-06
5.23871e-06
5.23907e-06
5.2394e-06
5.23968e-06
5.23992e-06
5.24019e-06
5.24058e-06
5.24113e-06
5.24175e-06
5.24222e-06
5.24235e-06
5.24214e-06
5.2425e-06
5.24356e-06
5.24436e-06
5.2444e-06
5.24454e-06
5.24597e-06
5.24796e-06
5.24979e-06
5.25084e-06
5.25072e-06
5.24943e-06
5.24767e-06
5.24776e-06
5.25051e-06
5.25371e-06
5.25644e-06
5.25843e-06
5.25952e-06
5.25959e-06
5.2586e-06
5.25668e-06
5.25458e-06
5.25445e-06
5.25626e-06
5.25866e-06
5.26078e-06
5.26186e-06
5.26169e-06
5.26016e-06
5.26011e-06
5.25849e-06
5.23509e-06
5.23514e-06
5.2354e-06
5.23581e-06
5.23627e-06
5.2367e-06
5.23707e-06
5.2374e-06
5.23771e-06
5.23803e-06
5.23837e-06
5.23872e-06
5.23908e-06
5.23941e-06
5.23969e-06
5.23992e-06
5.24019e-06
5.2406e-06
5.24116e-06
5.24179e-06
5.24226e-06
5.24235e-06
5.24212e-06
5.24251e-06
5.24358e-06
5.24435e-06
5.24434e-06
5.24458e-06
5.2461e-06
5.24815e-06
5.24997e-06
5.25096e-06
5.25074e-06
5.24934e-06
5.24758e-06
5.2479e-06
5.25078e-06
5.25398e-06
5.25668e-06
5.25861e-06
5.25962e-06
5.25958e-06
5.25847e-06
5.25645e-06
5.25441e-06
5.25454e-06
5.25649e-06
5.25894e-06
5.26105e-06
5.26205e-06
5.2618e-06
5.2602e-06
5.26015e-06
5.25849e-06
5.23515e-06
5.23517e-06
5.2354e-06
5.23579e-06
5.23625e-06
5.23669e-06
5.23707e-06
5.2374e-06
5.23771e-06
5.23803e-06
5.23837e-06
5.23873e-06
5.23909e-06
5.23943e-06
5.2397e-06
5.23993e-06
5.2402e-06
5.24062e-06
5.2412e-06
5.24183e-06
5.24229e-06
5.24235e-06
5.2421e-06
5.24253e-06
5.24361e-06
5.24433e-06
5.24428e-06
5.24463e-06
5.24625e-06
5.24835e-06
5.25016e-06
5.25108e-06
5.25076e-06
5.24925e-06
5.24749e-06
5.24806e-06
5.25105e-06
5.25426e-06
5.25692e-06
5.25878e-06
5.2597e-06
5.25955e-06
5.25833e-06
5.25622e-06
5.25427e-06
5.25466e-06
5.25672e-06
5.25922e-06
5.26131e-06
5.26225e-06
5.26191e-06
5.26024e-06
5.26018e-06
5.25849e-06
5.23522e-06
5.2352e-06
5.23541e-06
5.23578e-06
5.23624e-06
5.23668e-06
5.23706e-06
5.2374e-06
5.23772e-06
5.23804e-06
5.23838e-06
5.23874e-06
5.23911e-06
5.23944e-06
5.23971e-06
5.23994e-06
5.24021e-06
5.24064e-06
5.24123e-06
5.24187e-06
5.24232e-06
5.24236e-06
5.24207e-06
5.24255e-06
5.24364e-06
5.24432e-06
5.24422e-06
5.24469e-06
5.24641e-06
5.24854e-06
5.25034e-06
5.2512e-06
5.25076e-06
5.24915e-06
5.24741e-06
5.24823e-06
5.25132e-06
5.25454e-06
5.25716e-06
5.25895e-06
5.25977e-06
5.25952e-06
5.25817e-06
5.25598e-06
5.25415e-06
5.25479e-06
5.25697e-06
5.25951e-06
5.26157e-06
5.26244e-06
5.26201e-06
5.26027e-06
5.26022e-06
5.25849e-06
5.23553e-06
5.23529e-06
5.23524e-06
5.23542e-06
5.23578e-06
5.23623e-06
5.23667e-06
5.23706e-06
5.23741e-06
5.23773e-06
5.23805e-06
5.23839e-06
5.23876e-06
5.23912e-06
5.23946e-06
5.23972e-06
5.23994e-06
5.24022e-06
5.24066e-06
5.24127e-06
5.24192e-06
5.24235e-06
5.24235e-06
5.24205e-06
5.24257e-06
5.24366e-06
5.24429e-06
5.24417e-06
5.24476e-06
5.24657e-06
5.24875e-06
5.25052e-06
5.2513e-06
5.25076e-06
5.24904e-06
5.24734e-06
5.24842e-06
5.25161e-06
5.25482e-06
5.25739e-06
5.25911e-06
5.25984e-06
5.25946e-06
5.258e-06
5.25574e-06
5.25407e-06
5.25494e-06
5.25723e-06
5.2598e-06
5.26183e-06
5.26262e-06
5.2621e-06
5.2603e-06
5.26025e-06
5.25848e-06
5.23562e-06
5.23536e-06
5.23528e-06
5.23543e-06
5.23578e-06
5.23622e-06
5.23667e-06
5.23707e-06
5.23741e-06
5.23774e-06
5.23806e-06
5.23841e-06
5.23877e-06
5.23914e-06
5.23947e-06
5.23973e-06
5.23995e-06
5.24023e-06
5.24069e-06
5.24131e-06
5.24197e-06
5.24238e-06
5.24235e-06
5.24203e-06
5.24259e-06
5.24368e-06
5.24426e-06
5.24412e-06
5.24484e-06
5.24674e-06
5.24895e-06
5.25071e-06
5.2514e-06
5.25074e-06
5.24893e-06
5.24728e-06
5.24863e-06
5.25189e-06
5.2551e-06
5.25762e-06
5.25926e-06
5.25989e-06
5.2594e-06
5.25782e-06
5.2555e-06
5.25401e-06
5.25511e-06
5.2575e-06
5.26009e-06
5.26209e-06
5.2628e-06
5.26219e-06
5.26032e-06
5.26027e-06
5.25847e-06
5.23612e-06
5.23572e-06
5.23544e-06
5.23533e-06
5.23545e-06
5.23578e-06
5.23621e-06
5.23666e-06
5.23707e-06
5.23742e-06
5.23775e-06
5.23807e-06
5.23842e-06
5.23879e-06
5.23916e-06
5.23949e-06
5.23974e-06
5.23996e-06
5.24025e-06
5.24071e-06
5.24136e-06
5.24201e-06
5.24241e-06
5.24234e-06
5.242e-06
5.24262e-06
5.2437e-06
5.24423e-06
5.24407e-06
5.24493e-06
5.24692e-06
5.24916e-06
5.25088e-06
5.25149e-06
5.25071e-06
5.2488e-06
5.24724e-06
5.24885e-06
5.25219e-06
5.25538e-06
5.25785e-06
5.25941e-06
5.25993e-06
5.25932e-06
5.25762e-06
5.25527e-06
5.25399e-06
5.2553e-06
5.25777e-06
5.26038e-06
5.26234e-06
5.26298e-06
5.26227e-06
5.26034e-06
5.26029e-06
5.25846e-06
5.23623e-06
5.23582e-06
5.23551e-06
5.23538e-06
5.23548e-06
5.23578e-06
5.23621e-06
5.23666e-06
5.23707e-06
5.23743e-06
5.23776e-06
5.23809e-06
5.23844e-06
5.23881e-06
5.23918e-06
5.23951e-06
5.23976e-06
5.23997e-06
5.24026e-06
5.24074e-06
5.2414e-06
5.24206e-06
5.24244e-06
5.24233e-06
5.24198e-06
5.24264e-06
5.24372e-06
5.24419e-06
5.24404e-06
5.24503e-06
5.24711e-06
5.24937e-06
5.25106e-06
5.25158e-06
5.25067e-06
5.24867e-06
5.24722e-06
5.24908e-06
5.25249e-06
5.25566e-06
5.25807e-06
5.25954e-06
5.25996e-06
5.25923e-06
5.25742e-06
5.25504e-06
5.25399e-06
5.25549e-06
5.25805e-06
5.26068e-06
5.2626e-06
5.26315e-06
5.26235e-06
5.26036e-06
5.26031e-06
5.25845e-06
5.23634e-06
5.23592e-06
5.2356e-06
5.23544e-06
5.23551e-06
5.23579e-06
5.23621e-06
5.23666e-06
5.23708e-06
5.23745e-06
5.23778e-06
5.23811e-06
5.23846e-06
5.23883e-06
5.2392e-06
5.23952e-06
5.23977e-06
5.23998e-06
5.24028e-06
5.24077e-06
5.24145e-06
5.24211e-06
5.24247e-06
5.24232e-06
5.24196e-06
5.24267e-06
5.24374e-06
5.24415e-06
5.24401e-06
5.24515e-06
5.24731e-06
5.24959e-06
5.25123e-06
5.25165e-06
5.25062e-06
5.24854e-06
5.24722e-06
5.24933e-06
5.25279e-06
5.25594e-06
5.25828e-06
5.25966e-06
5.25997e-06
5.25912e-06
5.2572e-06
5.25481e-06
5.25402e-06
5.25571e-06
5.25834e-06
5.26098e-06
5.26285e-06
5.26331e-06
5.26242e-06
5.26037e-06
5.26033e-06
5.25843e-06
5.23645e-06
5.23602e-06
5.23568e-06
5.2355e-06
5.23554e-06
5.2358e-06
5.23621e-06
5.23666e-06
5.23709e-06
5.23746e-06
5.23779e-06
5.23812e-06
5.23847e-06
5.23885e-06
5.23922e-06
5.23954e-06
5.23978e-06
5.23999e-06
5.2403e-06
5.24081e-06
5.2415e-06
5.24216e-06
5.2425e-06
5.24231e-06
5.24193e-06
5.24269e-06
5.24375e-06
5.2441e-06
5.244e-06
5.24527e-06
5.24751e-06
5.2498e-06
5.2514e-06
5.25171e-06
5.25056e-06
5.2484e-06
5.24725e-06
5.24958e-06
5.25309e-06
5.25621e-06
5.25848e-06
5.25978e-06
5.25998e-06
5.25901e-06
5.25698e-06
5.2546e-06
5.25408e-06
5.25593e-06
5.25864e-06
5.26127e-06
5.2631e-06
5.26347e-06
5.26248e-06
5.26037e-06
5.26034e-06
5.2584e-06
5.23656e-06
5.23613e-06
5.23576e-06
5.23556e-06
5.23557e-06
5.23581e-06
5.23621e-06
5.23667e-06
5.2371e-06
5.23747e-06
5.23781e-06
5.23814e-06
5.2385e-06
5.23887e-06
5.23925e-06
5.23957e-06
5.2398e-06
5.24e-06
5.24032e-06
5.24084e-06
5.24155e-06
5.24221e-06
5.24252e-06
5.24229e-06
5.24191e-06
5.24272e-06
5.24376e-06
5.24405e-06
5.244e-06
5.24541e-06
5.24771e-06
5.25002e-06
5.25156e-06
5.25177e-06
5.25048e-06
5.24826e-06
5.2473e-06
5.24985e-06
5.2534e-06
5.25648e-06
5.25868e-06
5.25988e-06
5.25997e-06
5.25888e-06
5.25674e-06
5.25441e-06
5.25416e-06
5.25617e-06
5.25894e-06
5.26157e-06
5.26334e-06
5.26363e-06
5.26254e-06
5.26037e-06
5.26035e-06
5.25838e-06
5.23667e-06
5.23623e-06
5.23585e-06
5.23562e-06
5.23561e-06
5.23583e-06
5.23622e-06
5.23667e-06
5.23711e-06
5.23749e-06
5.23783e-06
5.23816e-06
5.23852e-06
5.2389e-06
5.23927e-06
5.23959e-06
5.23981e-06
5.24002e-06
5.24034e-06
5.24088e-06
5.2416e-06
5.24226e-06
5.24254e-06
5.24227e-06
5.2419e-06
5.24275e-06
5.24376e-06
5.244e-06
5.24401e-06
5.24555e-06
5.24793e-06
5.25024e-06
5.25172e-06
5.25181e-06
5.25039e-06
5.24812e-06
5.24738e-06
5.25013e-06
5.2537e-06
5.25674e-06
5.25887e-06
5.25998e-06
5.25995e-06
5.25873e-06
5.2565e-06
5.25423e-06
5.25426e-06
5.25642e-06
5.25925e-06
5.26187e-06
5.26358e-06
5.26377e-06
5.26259e-06
5.26037e-06
5.26035e-06
5.25835e-06
5.23678e-06
5.23633e-06
5.23594e-06
5.23569e-06
5.23565e-06
5.23585e-06
5.23623e-06
5.23668e-06
5.23712e-06
5.23751e-06
5.23785e-06
5.23819e-06
5.23854e-06
5.23893e-06
5.2393e-06
5.23961e-06
5.23983e-06
5.24003e-06
5.24036e-06
5.24092e-06
5.24166e-06
5.24231e-06
5.24257e-06
5.24224e-06
5.24188e-06
5.24278e-06
5.24376e-06
5.24394e-06
5.24404e-06
5.24571e-06
5.24815e-06
5.25046e-06
5.25187e-06