/*--------------------------------*- C++ -*----------------------------------*\
  =========                 |
  \\      /  F ield         | OpenFOAM: The Open Source CFD Toolbox
   \\    /   O peration     | Website:  https://openfoam.org
    \\  /    A nd           | Version:  7
     \\/     M anipulation  |
\*---------------------------------------------------------------------------*/
FoamFile
{
    version     2.0;
    format      ascii;
    class       volScalarField;
    location    "1400";
    object      p;
}
// * * * * * * * * * * * * * * * * * * * * * * * * * * * * * * * * * * * * * //

dimensions      [0 2 -2 0 0 0 0];

internalField   nonuniform List<scalar> 
23023
(
1.44868
0.465307
1.44612
1.92825
0.462402
1.4434
2.14848
1.92374
0.459379
1.44086
2.14366
1.9192
0.456584
1.43842
2.85741
2.13888
1.91497
0.453899
1.43597
3.23277
2.85228
2.13435
1.9109
0.451165
1.43347
3.72156
3.22791
2.84728
2.12997
1.90683
0.448359
1.43094
4.15081
3.71723
3.22333
2.84262
2.12558
1.90272
0.445519
1.42837
4.63533
4.14722
3.71331
3.21905
2.83809
2.12118
1.89861
0.442663
1.42578
5.13453
4.6325
4.14414
3.70965
3.21488
2.83354
2.11678
1.8945
0.439783
1.42315
5.13233
4.63028
4.14125
3.70607
3.21071
2.82898
2.11239
1.89037
0.436865
1.42049
5.67557
5.13076
4.62815
4.13842
3.70254
3.20657
2.82445
2.10799
1.88622
0.433907
1.4178
6.25727
5.67428
5.1293
4.62605
4.13569
3.6991
3.2025
2.81995
2.10358
1.88207
0.43091
1.41508
6.88547
6.25625
5.67363
5.12788
4.62412
4.13313
3.69579
3.1985
2.81546
2.09915
1.87791
0.427877
1.41234
7.55436
6.88435
6.25585
5.67287
5.12666
4.62243
4.13075
3.69259
3.19456
2.81099
2.0947
1.87373
0.424808
1.40958
7.55263
6.88381
6.25525
5.6721
5.12571
4.62096
4.12852
3.68948
3.19065
2.80651
2.09024
1.86955
0.421702
1.40681
8.25293
7.5514
6.88301
6.25464
5.67159
5.12502
4.61969
4.12644
3.68647
3.18679
2.80205
2.08575
1.86535
0.418558
1.40402
8.97579
8.2508
7.55003
6.8822
6.25435
5.67143
5.12457
4.6186
4.1245
3.68354
3.18296
2.79759
2.08126
1.86112
0.415377
1.40122
8.97223
8.24905
7.54873
6.88176
6.25445
5.67156
5.12434
4.61771
4.12269
3.6807
3.17917
2.79313
2.07675
1.85688
0.412163
1.3984
9.70606
8.96894
8.24699
7.54778
6.88174
6.25486
5.67194
5.12434
4.61699
4.12101
3.67793
3.1754
2.78866
2.07223
1.85262
0.408921
1.39556
10.4462
9.70127
8.96552
8.245
7.54725
6.88205
6.25554
5.67257
5.12456
4.61643
4.11943
3.67522
3.17166
2.78419
2.06769
1.84836
0.40566
1.3927
11.1822
10.4393
9.69661
8.96226
8.24345
7.54705
6.88265
6.2565
5.67346
5.12497
4.61601
4.11795
3.67256
3.16794
2.77971
2.06314
1.8441
0.402385
1.38983
11.8988
11.173
10.4325
9.69178
8.95941
8.24233
7.54715
6.88354
6.25774
5.67458
5.12556
4.61572
4.11656
3.66995
3.16424
2.77523
2.05859
1.83985
0.399099
1.38695
11.8872
11.1637
10.4256
9.68717
8.95699
8.24154
7.54754
6.88473
6.25925
5.67592
5.1263
4.61554
4.11524
3.66738
3.16055
2.77076
2.05404
1.83563
0.395803
1.38407
12.5623
11.8755
11.1546
10.4191
9.68304
8.9549
8.24103
7.54825
6.8862
6.261
5.67746
5.12718
4.61547
4.114
3.66486
3.15689
2.76628
2.04951
1.83143
0.392492
1.38119
13.1816
12.5488
11.8641
11.1459
10.413
9.67934
8.9531
8.24081
7.54925
6.88794
6.26297
5.67916
5.12821
4.61551
4.11283
3.66238
3.15325
2.76183
2.04498
1.82724
0.389161
1.37832
13.1662
12.5351
11.8533
11.1378
10.4074
9.67595
8.95158
8.2409
7.55053
6.88993
6.26514
5.68104
5.12938
4.61566
4.11174
3.65995
3.14963
2.75739
2.04047
1.82305
0.385806
1.37546
13.722
13.1507
12.522
11.843
11.1301
10.4021
9.67283
8.95037
8.24128
7.55208
6.89215
6.26752
5.68309
5.13069
4.61591
4.11073
3.65758
3.14606
2.75299
2.03598
1.81887
0.382422
1.3726
14.2262
13.7053
13.1357
12.5096
11.8331
11.1227
10.3971
9.66999
8.94946
8.24195
7.5539
6.89461
6.27009
5.68531
5.13214
4.61628
4.1098
3.65526
3.14253
2.74862
2.03149
1.81469
0.379009
1.36973
14.2084
13.6885
13.1214
12.4977
11.8235
11.1156
10.3923
9.66744
8.94884
8.2429
7.55596
6.89728
6.27286
5.68769
5.13372
4.61675
4.10895
3.65301
3.13904
2.74428
2.02701
1.81049
0.375566
1.36685
14.6864
14.1908
13.6726
13.1077
12.4861
11.8143
11.1087
10.3879
9.6652
8.94851
8.24412
7.55828
6.90018
6.27583
5.69023
5.13543
4.61733
4.10819
3.65083
3.1356
2.73997
2.02253
1.80629
0.372096
1.36395
15.1733
14.6683
14.1739
13.6574
13.0942
12.4747
11.8053
11.1022
10.3837
9.66325
8.94847
8.2456
7.56083
6.9033
6.27898
5.69293
5.13728
4.61801
4.10752
3.64871
3.1322
2.73568
2.01804
1.80207
0.368601
1.36104
15.1547
14.6506
14.1577
13.6427
13.0811
12.4637
11.7966
11.0959
10.3799
9.66159
8.94871
8.24734
7.56361
6.90662
6.28231
5.69578
5.13925
4.6188
4.10692
3.64665
3.12884
2.73139
2.01354
1.79785
0.365084
1.35812
15.6833
15.1367
14.6336
14.142
13.6282
13.0683
12.4529
11.7882
11.09
10.3763
9.66022
8.94922
8.24932
7.56662
6.91014
6.28581
5.69878
5.14135
4.61969
4.1064
3.64463
3.12549
2.72711
2.00903
1.79362
0.361549
1.35519
16.2786
15.6649
15.1194
14.6174
14.1266
13.6141
13.0558
12.4425
11.7801
11.0844
10.3731
9.65913
8.94998
8.25154
7.56985
6.91385
6.28948
5.70192
5.14357
4.62068
4.10595
3.64265
3.12216
2.72281
2.0045
1.78938
0.357998
1.35226
16.2595
15.6473
15.1028
14.6016
14.1116
13.6003
13.0435
12.4323
11.7723
11.0791
10.3701
9.65831
8.95098
8.25398
7.57327
6.91775
6.29331
5.70521
5.14591
4.62177
4.10556
3.64071
3.11883
2.71851
1.99996
1.78514
0.354435
1.34934
16.9311
16.2413
15.6303
15.0868
14.5863
14.097
13.5867
13.0316
12.4224
11.7647
11.074
10.3674
9.65773
8.95222
8.25664
7.57689
6.92182
6.2973
5.70863
5.14837
4.62294
4.10522
3.63879
3.1155
2.7142
1.99541
1.7809
0.350859
1.34641
17.6765
16.9119
16.2238
15.6141
15.0713
14.5713
14.0827
13.5735
13.0199
12.4128
11.7575
11.0692
10.365
9.65739
8.95367
8.2595
7.5807
6.92607
6.30146
5.7122
5.15095
4.62419
4.10493
3.63689
3.11218
2.70988
1.99085
1.77665
0.347272
1.34349
18.4792
17.6559
16.8937
16.2071
15.5984
15.0563
14.5568
14.0687
13.5606
13.0086
12.4035
11.7506
11.0647
10.3628
9.65728
8.95534
8.26255
7.5847
6.93049
6.30577
5.7159
5.15363
4.62551
4.10469
3.63502
3.10887
2.70556
1.98628
1.7724
0.343673
1.34057
19.3148
18.4568
17.6363
16.8761
16.1911
15.5834
15.0418
14.5426
14.0551
13.548
12.9976
12.3945
11.7438
11.0603
10.3608
9.65738
8.95721
8.2658
7.58887
6.93508
6.31023
5.71973
5.1564
4.6269
4.10449
3.63317
3.10556
2.70125
1.98172
1.76815
0.340061
1.33764
20.1592
19.2903
18.4353
17.6175
16.8593
16.1758
15.569
15.0277
14.5288
14.0419
13.5357
12.9868
12.3857
11.7373
11.0562
10.359
9.65768
8.95928
8.26923
7.59323
6.93984
6.31485
5.72368
5.15926
4.62835
4.10433
3.63134
3.10228
2.69694
1.97714
1.76389
0.336435
1.3347
20.9978
20.1324
19.2667
18.4148
17.5994
16.8434
16.1613
15.5552
15.0141
14.5154
14.029
13.5237
12.9763
12.3771
11.731
11.0524
10.3574
9.65819
8.96153
8.27284
7.59776
6.94476
6.3196
5.72775
5.16221
4.62985
4.10421
3.62955
3.09902
2.69264
1.97257
1.75962
0.332794
1.33174
20.9687
20.1066
19.2441
18.3951
17.5824
16.8282
16.1474
15.5418
15.0009
14.5025
14.0164
13.512
12.966
12.3687
11.7249
11.0487
10.3561
9.65889
8.96397
8.27663
7.60246
6.94983
6.32448
5.73191
5.16522
4.63141
4.10414
3.6278
3.09578
2.68835
1.96798
1.75535
0.329135
1.32877
21.7995
20.9405
20.0818
19.2226
18.3765
17.5662
16.8139
16.134
15.5289
14.9882
14.4899
14.0042
13.5006
12.9559
12.3605
11.719
11.0452
10.3549
9.65977
8.96658
8.28059
7.60732
6.95505
6.32948
5.73617
5.16831
4.63303
4.10411
3.62608
3.09255
2.68406
1.96339
1.75107
0.325458
1.32577
22.6404
21.7692
20.9135
20.0581
19.202
18.3588
17.5509
16.8002
16.1213
15.5166
14.976
14.4778
13.9924
13.4894
12.946
12.3525
11.7133
11.0419
10.3539
9.66083
8.96937
8.28472
7.61234
6.9604
6.33459
5.74051
5.17146
4.6347
4.10413
3.62439
3.08935
2.67978
1.95879
1.74678
0.321764
1.32276
22.6078
21.7399
20.8876
20.0355
19.1825
18.342
17.5363
16.7872
16.1092
15.5048
14.9643
14.466
13.9807
13.4785
12.9363
12.3447
11.7078
11.0388
10.3531
9.66206
8.97232
8.28901
7.6175
6.96587
6.3398
5.74493
5.17467
4.63641
4.10418
3.62273
3.08615
2.67549
1.95417
1.74249
0.318053
1.31974
23.4783
22.5763
21.7117
20.8628
20.0139
19.1638
18.326
17.5224
16.7748
16.0976
15.4936
14.953
14.4545
13.9694
13.4677
12.9268
12.3371
11.7025
11.0359
10.3524
9.66344
8.97543
8.29345
7.62279
6.97146
6.34509
5.74942
5.17794
4.63818
4.10427
3.62109
3.08296
2.67119
1.94953
1.73818
0.314327
1.31672
24.3994
23.4445
22.5459
21.6848
20.839
19.9931
19.146
18.3107
17.5092
16.763
16.0867
15.4828
14.9421
14.4434
13.9582
13.4571
12.9175
12.3297
11.6974
11.0331
10.3519
9.66498
8.97869
8.29804
7.62821
6.97715
6.35047
5.75398
5.18126
4.63999
4.1044
3.61946
3.07977
2.66688
1.94488
1.73387
0.310589
1.31369
25.3772
24.363
23.412
22.5168
21.6589
20.8162
19.9732
19.1289
18.2962
17.4967
16.7518
16.0762
15.4726
14.9316
14.4326
13.9473
13.4467
12.9084
12.3225
11.6924
11.0305
10.3516
9.66666
8.9821
8.30276
7.63375
6.98293
6.35593
5.7586
5.18464
4.64184
4.10454
3.61784
3.07656
2.66255
1.94022
1.72956
0.306841
1.31067
26.4087
25.3379
24.3279
23.3807
22.4889
21.634
20.7942
19.9542
19.1127
18.2824
17.4848
16.7412
16.0663
15.4627
14.9214
14.422
13.9366
13.4365
12.8994
12.3154
11.6875
11.028
10.3514
9.66849
8.98565
8.30761
7.63939
6.9888
6.36147
5.76329
5.18807
4.64373
4.10471
3.61623
3.07335
2.65821
1.93554
1.72524
0.303085
1.30766
27.4878
26.3661
25.3001
24.2942
23.3506
22.462
21.61
20.7731
19.9359
19.0971
18.2692
17.4735
16.7312
16.0569
15.4533
14.9116
14.4116
13.9261
13.4265
12.8906
12.3084
11.6828
11.0256
10.3513
9.67047
8.98934
8.31259
7.64514
6.99476
6.36707
5.76804
5.19155
4.64565
4.1049
3.61462
3.07013
2.65386
1.93086
1.72091
0.299323
1.30466
28.6134
27.4417
26.3252
25.2637
24.2618
23.3217
22.4361
21.587
20.7528
19.9184
19.0821
18.2566
17.4627
16.7217
16.0479
15.4442
14.902
14.4015
13.9158
13.4166
12.8819
12.3016
11.6782
11.0234
10.3514
9.67258
8.99316
8.31767
7.65098
7.0008
6.37276
5.77285
5.19507
4.6476
4.1051
3.61301
3.06691
2.6495
1.92618
1.71659
0.295555
1.30167
29.7909
28.5634
27.3973
26.2857
25.2287
24.2307
23.2939
22.4112
21.5648
20.7333
19.9015
19.0678
18.2445
17.4525
16.7127
16.0394
15.4355
14.8927
14.3916
13.9056
13.4069
12.8734
12.2948
11.6737
11.0213
10.3516
9.67483
8.9971
8.32286
7.65691
7.00693
6.37851
5.77771
5.19864
4.64959
4.10533
3.61142
3.06369
2.64515
1.92149
1.71227
0.291783
1.29868
31.0295
29.7367
28.5152
27.3545
26.248
25.1952
24.201
23.2673
22.3873
21.5434
20.7144
19.8851
19.0539
18.233
17.4428
16.7041
16.0313
15.4272
14.8837
14.3819
13.8956
13.3973
12.865
12.2882
11.6693
11.0193
10.3519
9.67721
9.00115
8.32815
7.66294
7.01314
6.38433
5.78264
5.20226
4.65161
4.10557
3.60983
3.06048
2.64079
1.91681
1.70796
0.288007
1.2957
32.3376
30.9707
29.6844
28.4689
27.3136
26.2118
25.1632
24.1723
23.2416
22.3642
21.5228
20.6962
19.8694
19.0407
18.2219
17.4336
16.6961
16.0236
15.4191
14.8749
14.3724
13.8858
13.3879
12.8566
12.2817
11.665
11.0175
10.3524
9.67972
9.00532
8.33354
7.66905
7.01942
6.39023
5.78762
5.20592
4.65366
4.10584
3.60827
3.05728
2.63645
1.91213
1.70364
0.284227
1.29272
33.7221
32.2739
30.914
29.6341
28.4245
27.2744
26.1771
25.1324
24.1448
23.2169
22.3419
21.5028
20.6786
19.8542
19.0279
18.2115
17.4249
16.6885
16.0163
15.4114
14.8664
14.363
13.8761
13.3785
12.8484
12.2753
11.6609
11.0158
10.353
9.68235
9.00959
8.33902
7.67525
7.0258
6.39619
5.79266
5.20963
4.65576
4.10614
3.60673
3.05409
2.63211
1.90746
1.69933
0.280443
1.28974
35.1887
33.653
32.2125
30.8595
29.586
28.3819
27.2368
26.1438
25.1027
24.1183
23.193
22.3204
21.4836
20.6615
19.8395
19.0158
18.2016
17.4167
16.6813
16.0093
15.4039
14.858
14.3539
13.8666
13.3693
12.8403
12.269
11.6569
11.0142
10.3537
9.68509
9.01396
8.3446
7.68155
7.03225
6.40223
5.79776
5.21338
4.65789
4.10648
3.60521
3.05093
2.62778
1.90279
1.69502
0.276653
1.28675
36.744
35.1138
33.5865
32.1535
30.8073
29.5399
28.3412
27.2007
26.1118
25.0742
24.0927
23.1701
22.2997
21.465
20.6451
19.8255
19.0042
18.1922
17.409
16.6746
16.0027
15.3967
14.8499
14.3449
13.8572
13.3602
12.8323
12.2628
11.653
11.0128
10.3546
9.68793
9.01843
8.35027
7.68793
7.03879
6.40833
5.80291
5.21719
4.66006
4.10685
3.60372
3.04778
2.62347
1.89812
1.69071
0.27286
1.28376
38.396
36.6628
35.0417
33.5225
32.0969
30.7573
29.4957
28.302
27.166
26.0809
25.0467
24.0682
23.148
22.2797
21.447
20.6293
19.812
18.9931
18.1833
17.4018
16.6682
15.9963
15.3897
14.8419
14.336
13.8479
13.3512
12.8244
12.2568
11.6493
11.0115
10.3555
9.69089
9.023
8.35604
7.69441
7.0454
6.41451
5.80813
5.22104
4.66228
4.10725
3.60226
3.04466
2.61916
1.89345
1.6864
0.269059
1.28073
40.1541
38.3078
36.5845
34.9724
33.4613
32.0428
30.7094
29.4532
28.2644
27.1327
26.0513
25.0203
24.0445
23.1267
22.2604
21.4296
20.614
19.7992
18.9827
18.175
17.3951
16.6622
15.9902
15.3829
14.8341
14.3273
13.8387
13.3423
12.8167
12.2509
11.6457
11.0103
10.3566
9.69394
9.02768
8.3619
7.70097
7.05209
6.42075
5.81339
5.22495
4.66454
4.10769
3.60083
3.04154
2.61485
1.88877
1.68209
0.265229
1.27768
42.0284
40.0583
38.2229
36.5093
34.9059
33.4025
31.9908
30.6634
29.4125
28.2283
27.1006
26.0228
24.995
24.0219
23.1062
22.2418
21.4129
20.5994
19.7869
18.9727
18.1672
17.3887
16.6566
15.9844
15.3764
14.8265
14.3187
13.8297
13.3335
12.809
12.2451
11.6422
11.0092
10.3578
9.69709
9.03244
8.36785
7.70761
7.05886
6.42705
5.81872
5.2289
4.66684
4.10816
3.59941
3.03843
2.61055
1.88409
1.67774
0.261373
1.27463
44.0309
41.9242
39.966
38.1413
36.4372
34.8422
33.3462
31.941
30.6193
29.3733
28.1935
27.0698
25.9955
24.9707
24.0001
23.0865
22.2239
21.3968
20.5854
19.7752
18.9633
18.1597
17.3827
16.6512
15.9788
15.37
14.819
14.3103
13.8208
13.3249
12.8016
12.2394
11.6388
11.0082
10.359
9.70034
9.03731
8.37389
7.71433
7.06569
6.43342
5.8241
5.23289
4.66917
4.10866
3.59801
3.03533
2.60623
1.87937
1.67337
0.257548
1.27161
43.9175
41.8239
39.8773
38.063
36.3681
34.7811
33.2921
31.8931
30.5769
29.3357
28.1602
27.0403
25.9693
24.9474
23.9791
23.0675
22.2066
21.3814
20.572
19.764
18.9544
18.1527
17.377
16.6461
15.9735
15.3639
14.8118
14.3021
13.812
13.3165
12.7942
12.2339
11.6355
11.0073
10.3604
9.70368
9.04226
8.38002
7.72113
7.0726
6.43984
5.82953
5.23693
4.67154
4.10918
3.59662
3.03223
2.60188
1.87461
1.66902
0.253761
1.26857
46.0514
43.8083
41.7275
39.7923
37.9879
36.3018
34.7225
33.2403
31.8472
30.5362
29.2996
28.1282
27.0119
25.9442
24.925
23.959
23.0493
22.19
21.3665
20.5592
19.7533
18.9459
18.1461
17.3717
16.6412
15.9684
15.358
14.8048
14.2941
13.8035
13.3081
12.7869
12.2284
11.6323
11.0065
10.3619
9.70712
9.0473
8.38622
7.728
7.07956
6.44632
5.835
5.24101
4.67393
4.10971
3.59524
3.02909
2.59749
1.86988
1.66472
0.249978
1.26553
45.9328
43.7034
41.635
39.7107
37.9159
36.2381
34.6662
33.1904
31.8031
30.4971
29.265
28.0975
26.9847
25.9201
24.9035
23.9397
23.0317
22.1741
21.3523
20.5469
19.7431
18.9378
18.1398
17.3666
16.6367
15.9636
15.3523
14.7979
14.2862
13.7951
13.2999
12.7798
12.2231
11.6292
11.0058
10.3634
9.71064
9.05242
8.3925
7.73493
7.08658
6.45285
5.84052
5.24511
4.67635
4.11025
3.59383
3.02592
2.59313
1.8652
1.66041
0.24619
1.26248
48.2126
45.8186
43.6027
41.5463
39.6324
37.8467
36.177
34.6121
33.1426
31.7608
30.4596
29.2318
28.0681
26.9587
25.897
24.8829
23.9211
23.0149
22.1588
21.3386
20.5351
19.7334
18.9301
18.1339
17.3619
16.6324
15.959
15.3468
14.7913
14.2785
13.7868
13.2918
12.7727
12.2178
11.6262
11.0051
10.3651
9.71424
9.05762
8.39885
7.74193
7.09366
6.45942
5.84607
5.24925
4.67878
4.1108
3.5924
3.02276
2.5888
1.86051
1.65609
0.242402
1.25943
48.0884
45.7088
43.5061
41.4611
39.5572
37.7803
36.1183
34.5602
33.0968
31.7201
30.4236
29.1999
28.0398
26.9336
25.8747
24.863
23.9033
22.9987
22.1441
21.3255
20.5238
19.7241
18.9228
18.1283
17.3575
16.6284
15.9547
15.3416
14.785
14.271
13.7787
13.2839
12.7657
12.2126
11.6232
11.0046
10.3668
9.71793
9.06288
8.40526
7.74898
7.10078
6.46604
5.85166
5.2534
4.68123
4.11133
3.59098
3.01963
2.58447
1.85581
1.65177
0.23862
1.25639
47.9688
45.6034
43.4133
41.3792
39.4849
37.7165
36.0619
34.5105
33.0527
31.6812
30.3891
29.1693
28.0127
26.9095
25.8533
24.844
23.8861
22.9831
22.1301
21.313
20.513
19.7153
18.9159
18.123
17.3534
16.6248
15.9507
15.3367
14.7788
14.2637
13.7707
13.276
12.7589
12.2074
11.6203
11.0041
10.3686
9.72168
9.06822
8.41173
7.75608
7.10795
6.47269
5.85728
5.2576
4.68368
4.11184
3.58955
3.01647
2.58011
1.85111
1.64744
0.234846
1.25335
47.8538
45.5023
43.3242
41.3007
39.4156
37.6553
36.0079
34.4627
33.0105
31.6438
30.356
29.1399
27.9866
26.8864
25.8328
24.8257
23.8697
22.9682
22.1166
21.301
20.5027
19.7068
18.9093
18.1181
17.3496
16.6214
15.947
15.332
14.7728
14.2565
13.7628
13.2682
12.752
12.2024
11.6175
11.0037
10.3704
9.72551
9.07361
8.41825
7.76323
7.11515
6.47938
5.86295
5.2618
4.68609
4.11233
3.58809
3.01329
2.57576
1.84642
1.64313
0.231079
1.25032
50.275
47.7434
45.4052
43.2386
41.2252
39.349
37.5965
35.956
34.4168
32.9699
31.6079
30.3241
29.1116
27.9615
26.8641
25.8131
24.8082
23.854
22.954
22.1037
21.2895
20.4928
19.6987
18.9031
18.1135
17.3461
16.6183
15.9435
15.3275
14.767
14.2495
13.7551
13.2604
12.7453
12.1974
11.6148
11.0034
10.3724
9.7294
9.07906
8.42482
7.77041
7.1224
6.48613
5.86864
5.26595
4.68846
4.11279
3.5866
3.0101
2.5714
1.84174
1.63881
0.227322
1.24729
50.1548
47.6374
45.3119
43.1564
41.1527
39.2851
37.5401
35.9061
34.3728
32.931
31.5734
30.2936
29.0845
27.9374
26.8428
25.7942
24.7914
23.8389
22.9403
22.0913
21.2784
20.4833
19.691
18.8972
18.1093
17.3429
16.6154
15.9402
15.3232
14.7613
14.2426
13.7474
13.2528
12.7386
12.1924
11.6121
11.0031
10.3744
9.73335
9.08457
8.43143
7.77764
7.12971
6.4929
5.87425
5.27004
4.69079
4.11321
3.5851
3.00692
2.56706
1.83706
1.63449
0.223576
1.24427
52.7559
50.039
47.5357
45.2223
43.0775
41.0831
39.2237
37.4859
35.8583
34.3305
32.8936
31.5403
30.2642
29.0584
27.9143
26.8223
25.776
24.7753
23.8245
22.9272
22.0795
21.2678
20.4741
19.6836
18.8916
18.1053
17.34
16.6128
15.9372
15.319
14.7558
14.2358
13.7397
13.2452
12.7319
12.1875
11.6095
11.0029
10.3764
9.73735
9.09011
8.43809
7.78494
7.13705
6.49958
5.87978
5.27407
4.69308
4.11361
3.58359
3.00373
2.56271
1.83239
1.63018
0.219844
1.24127
52.6296
49.9277
47.4379
45.1363
43.0017
41.0163
39.1647
37.4339
35.8124
34.2899
32.8577
31.5085
30.236
29.0334
27.892
26.8026
25.7586
24.7598
23.8107
22.9147
22.0681
21.2576
20.4654
19.6765
18.8863
18.1015
17.3373
16.6104
15.9343
15.3151
14.7505
14.2291
13.7322
13.2376
12.7253
12.1827
11.6069
11.0028
10.3786
9.7414
9.0957
8.44481
7.79226
7.14428
6.50616
5.88525
5.27807
4.69535
4.114
3.58208
3.00054
2.55838
1.82773
1.62587
0.216126
1.23826
52.5081
49.8208
47.344
45.0536
42.9289
40.9521
39.1081
37.3839
35.7683
34.2509
32.8232
31.478
30.2089
29.0093
27.8707
26.7837
25.7419
24.745
23.7975
22.9027
22.0572
21.2478
20.4569
19.6697
18.8812
18.0981
17.3348
16.6083
15.9317
15.3113
14.7452
14.2224
13.7247
13.2301
12.7188
12.178
11.6045
11.0027
10.3807
9.7455
9.10135
8.45155
7.79947
7.1514
6.51268
5.8907
5.28205
4.6976
4.11437
3.58055
2.99735
2.55405
1.82307
1.62156
0.212423
1.23526
52.3912
49.7183
47.2538
44.9742
42.859
40.8905
39.0538
37.336
35.7259
34.2135
32.7901
31.4486
30.1829
28.9862
27.8502
26.7655
25.7259
24.7309
23.7848
22.8912
22.0466
21.2384
20.4488
19.6632
18.8764
18.0948
17.3326
16.6063
15.9292
15.3076
14.74
14.2158
13.7172
13.2226
12.7123
12.1733
11.602
11.0027
10.3829
9.74965
9.10701
8.45817
7.80655
7.15846
6.51917
5.89611
5.28599
4.69982
4.11472
3.57901
2.99417
2.54972
1.81843
1.61725
0.208735
1.23227
52.2791
49.6198
47.1672
44.898
42.7918
40.8313
39.0016
37.2899
35.6852
34.1776
32.7583
31.4205
30.1579
28.964
27.8305
26.7481
25.7105
24.7172
23.7726
22.8801
22.0365
21.2292
20.4409
19.6569
18.8718
18.0917
17.3305
16.6045
15.9268
15.3041
14.7349
14.2093
13.7098
13.2153
12.7058
12.1686
11.5997
11.0027
10.3852
9.75379
9.11254
8.46465
7.81358
7.16549
6.52563
5.90148
5.2899
4.70201
4.11506
3.57747
2.99099
2.5454
1.81378
1.61295
0.205062
1.22927
52.1714
49.5252
47.084
44.8247
42.7273
40.7745
38.9515
37.2457
35.6462
34.1431
32.7279
31.3935
30.134
28.9427
27.8116
26.7314
25.6958
24.7042
23.7609
22.8695
22.0267
21.2204
20.4333
19.6508
18.8674
18.0888
17.3287
16.6029
15.9246
15.3007
14.73
14.2029
13.7025
13.2079
12.6995
12.164
11.5974
11.0028
10.3874
9.75781
9.11795
8.47108
7.82057
7.17248
6.53204
5.90681
5.29377
4.70418
4.11538
3.57593
2.98781
2.54108
1.80914
1.60864
0.201404
1.22627
52.068
49.4343
47.0041
44.7544
42.6654
40.7199
38.9033
37.2032
35.6087
34.11
32.6986
31.3676
30.111
28.9223
27.7934
26.7153
25.6816
24.6916
23.7496
22.8592
22.0173
21.2119
20.4259
19.6449
18.8632
18.0862
17.327
16.6014
15.9226
15.2974
14.725
14.1965
13.6953
13.2007
12.6932
12.1595
11.595
11.0028
10.3896
9.76171
9.12329
8.47747
7.82752
7.17943
6.5384
5.9121
5.29761
4.70633
4.11568
3.57437
2.98462
2.53676
1.80451
1.60434
0.197761
1.22328
51.9687
49.347
46.9273
44.6869
42.6059
40.6674
38.8571
37.1625
35.5728
34.0783
32.6705
31.3427
30.0889
28.9026
27.7759
26.6998
25.6679
24.6795
23.7388
22.8493
22.0082
21.2036
20.4188
19.6392
18.8592
18.0837
17.3254
16.6001
15.9206
15.2942
14.7202
14.1903
13.6881
13.1935
12.6869
12.155
11.5927
11.0027
10.3916
9.76554
9.12859
8.48382
7.83442
7.18632
6.54471
5.91734
5.30142
4.70844
4.11597
3.57281
2.98144
2.53244
1.79988
1.60003
0.194132
1.22028
51.8733
49.2632
46.8536
44.622
42.5488
40.6171
38.8128
37.1234
35.5383
34.0478
32.6436
31.3188
30.0676
28.8837
27.7591
26.6849
25.6548
24.668
23.7284
22.8398
21.9994
21.1956
20.4119
19.6338
18.8554
18.0813
17.3241
16.5989
15.9188
15.2911
14.7155
14.1841
13.681
13.1864
12.6807
12.1504
11.5903
11.0025
10.3935
9.76933
9.13384
8.49011
7.84126
7.19315
6.55098
5.92254
5.30519
4.71053
4.11624
3.57123
2.97825
2.52812
1.79524
1.59572
0.190517
1.21727
51.7816
49.1826
46.7828
44.5597
42.4939
40.5688
38.7702
37.0859
35.5052
34.0186
32.6177
31.2959
30.0472
28.8655
27.7429
26.6706
25.6422
24.6568
23.7185
22.8307
21.9909
21.1878
20.4052
19.6285
18.8518
18.0792
17.3229
16.5979
15.9172
15.2881
14.7109
14.178
13.674
13.1792
12.6744
12.1458
11.5878
11.0023
10.3954
9.77306
9.13903
8.49634
7.84805
7.19994
6.5572
5.9277
5.30893
4.71259
4.11649
3.56965
2.97505
2.5238
1.79061
1.59141
0.186916
1.21426
51.6936
49.1053
46.7148
44.4999
42.4413
40.5225
38.7294
37.0499
35.4734
33.9905
32.5929
31.2739
30.0276
28.848
27.7274
26.6568
25.6301
24.6462
23.7089
22.8219
21.9827
21.1803
20.3987
19.6235
18.8484
18.0772
17.3219
16.5971
15.9156
15.2852
14.7065
14.172
13.667
13.1721
12.6681
12.1411
11.5852
11.002
10.3973
9.77672
9.14417
8.50251
7.85478
7.20666
6.56336
5.93281
5.31262
4.71462
4.11671
3.56804
2.97185
2.51948
1.78599
1.5871
0.183329
1.21125
51.609
49.031
46.6495
44.4424
42.3907
40.478
38.6902
37.0153
35.4429
33.9635
32.569
31.2527
30.0088
28.8312
27.7124
26.6436
25.6185
24.636
23.6997
22.8135
21.9748
21.1731
20.3925
19.6186
18.8451
18.0755
17.3211
16.5964
15.9143
15.2825
14.7021
14.166
13.6599
13.1649
12.6617
12.1363
11.5826
11.0016
10.399
9.78033
9.14924
8.50863
7.86144
7.21332
6.56946
5.93786
5.31626
4.71661
4.1169
3.56642
2.96863
2.51515
1.78136
1.5828
0.179755
1.20824
51.5278
48.9596
46.5868
44.3873
42.3422
40.4353
38.6526
36.9822
35.4136
33.9377
32.5461
31.2323
29.9907
28.8151
27.6981
26.631
25.6074
24.6262
23.691
22.8054
21.9672
21.1661
20.3864
19.614
18.8421
18.0739
17.3204
16.5958
15.913
15.2799
14.6978
14.16
13.6529
13.1576
12.6552
12.1315
11.5799
11.0012
10.4008
9.78387
9.15426
8.51468
7.86804
7.21991
6.57549
5.94286
5.31986
4.71856
4.11707
3.56478
2.96541
2.51083
1.77674
1.57849
0.176197
1.20522
51.4498
48.8911
46.5266
44.3343
42.2956
40.3943
38.6165
36.9503
35.3855
33.9128
32.5241
31.2128
29.9733
28.7996
27.6843
26.6188
25.5967
24.6168
23.6826
22.7976
21.9598
21.1593
20.3806
19.6095
18.8392
18.0724
17.3199
16.5954
15.9119
15.2774
14.6934
14.154
13.6458
13.1504
12.6487
12.1266
11.5771
11.0007
10.4024
9.78736
9.15921
8.52066
7.87455
7.22643
6.58146
5.9478
5.32341
4.72047
4.11721
3.56312
2.96218
2.5065
1.77213
1.57418
0.172653
1.2022
51.3749
48.8253
46.4687
44.2835
42.251
40.355
38.5819
36.9198
35.3585
33.8889
32.5029
31.194
29.9565
28.7847
27.6711
26.6071
25.5865
24.6079
23.6745
22.7901
21.9528
21.1528
20.375
19.6052
18.8365
18.0712
17.3195
16.5952
15.9109
15.2749
14.6891
14.148
13.6386
13.143
12.6421
12.1216
11.5743
11.0002
10.404
9.79078
9.16408
8.52655
7.88099
7.23286
6.58735
5.95268
5.3269
4.72234
4.11731
3.56144
2.95894
2.50217
1.76752
1.56987
0.169125
1.19917
51.3029
48.7621
46.4132
44.2347
42.2081
40.3173
38.5486
36.8904
35.3326
33.866
32.4826
31.176
29.9405
28.7704
27.6584
26.596
25.5768
24.5993
23.6668
22.7829
21.946
21.1465
20.3696
19.6011
18.834
18.0701
17.3193
16.5951
15.9099
15.2723
14.6846
14.1419
13.6314
13.1355
12.6355
12.1166
11.5714
10.9996
10.4055
9.79412
9.16887
8.53236
7.88733
7.23921
6.59317
5.95748
5.33034
4.72416
4.11738
3.55974
2.9557
2.49784
1.76292
1.56557
0.165613
1.19615
51.2339
48.7014
46.3599
44.1879
42.1669
40.281
38.5167
36.8622
35.3077
33.844
32.4631
31.1586
29.925
28.7566
27.6461
26.5852
25.5674
24.5911
23.6595
22.776
21.9394
21.1404
20.3643
19.5972
18.8316
18.0692
17.3192
16.5949
15.9088
15.2696
14.6801
14.1356
13.624
13.128
12.6287
12.1115
11.5685
10.9989
10.407
9.79739
9.17357
8.53807
7.89358
7.24547
6.5989
5.96222
5.33372
4.72593
4.11741
3.55801
2.95244
2.49352
1.75833
1.56127
0.162119
1.19312
51.1675
48.6431
46.3087
44.1429
42.1274
40.2462
38.486
36.8351
35.2838
33.8228
32.4444
31.142
29.9102
28.7434
27.6344
26.5749
25.5584
24.5833
23.6524
22.7694
21.9331
21.1345
20.3593
19.5935
18.8294
18.0683
17.3191
16.5947
15.9076
15.2669
14.6755
14.1293
13.6166
13.1203
12.6219
12.1064
11.5655
10.9982
10.4084
9.80055
9.17817
8.54368
7.89973
7.25164
6.60456
5.96689
5.33704
4.72766
4.11742
3.55627
2.94918
2.48919
1.75374
1.55696
0.158643
1.19009
51.1038
48.5871
46.2595
44.0998
42.0894
40.2128
38.4565
36.8091
35.2608
33.8025
32.4263
31.126
29.896
28.7307
27.6232
26.5651
25.5499
24.5758
23.6456
22.763
21.9269
21.1287
20.3544
19.5899
18.8273
18.0675
17.3189
16.5943
15.9063
15.264
14.6707
14.1228
13.609
13.1126
12.6151
12.1012
11.5624
10.9974
10.4096
9.80362
9.18266
8.54918
7.90578
7.25771
6.61012
5.97148
5.34029
4.72934
4.11738
3.55451
2.94591
2.48486
1.74916
1.55266
0.155186
1.18707
51.0426
48.5333
46.2124
44.0583
42.053
40.1807
38.4282
36.7841
35.2387
33.7829
32.409
31.1106
29.8823
28.7185
27.6124
26.5556
25.5417
24.5686
23.6392
22.7569
21.921
21.1232
20.3496
19.5863
18.8252
18.0665
17.3185
16.5937
15.9048
15.2609
14.6658
14.1162
13.6014
13.1049
12.6082
12.0959
11.5593
10.9965
10.4108
9.80657
9.18704
8.55457
7.91172
7.26369
6.61561
5.976
5.34348
4.73097
4.11731
3.55272
2.94264
2.48054
1.74459
1.54836
0.15175
1.18404
50.9838
48.4817
46.1671
44.0186
42.018
40.1499
38.401
36.7601
35.2175
33.7642
32.3924
31.0959
29.8692
28.7069
27.602
26.5465
25.5338
24.5617
23.633
22.751
21.9153
21.1178
20.345
19.5828
18.8229
18.0653
17.318
16.5931
15.9032
15.2578
14.6608
14.1096
13.5937
13.0971
12.6012
12.0906
11.5561
10.9955
10.4119
9.80941
9.19129
8.55984
7.91755
7.26956
6.621
5.98044
5.34661
4.73254
4.1172
3.55091
2.93935
2.47621
1.74002
1.54405
0.148336
1.18101
50.9274
48.4322
46.1236
43.9804
41.9844
40.1203
38.3749
36.7371
35.1971
33.7462
32.3765
31.0817
29.8566
28.6957
27.5921
26.5379
25.5263
24.5552
23.627
22.7453
21.9097
21.1125
20.3402
19.579
18.8204
18.064
17.3173
16.5923
15.9015
15.2545
14.6556
14.1028
13.5859
13.0892
12.5942
12.0852
11.5527
10.9943
10.4128
9.81212
9.19542
8.565
7.92328
7.27534
6.6263
5.9848
5.34967
4.73406
4.11706
3.54907
2.93605
2.47189
1.73545
1.53974
0.144944
1.17797
50.8732
48.3846
46.0819
43.9437
41.9522
40.0919
38.3498
36.7149
35.1775
33.7289
32.3612
31.0682
29.8445
28.6849
27.5826
26.5295
25.5191
24.5489
23.6213
22.7398
21.9043
21.1071
20.3353
19.5751
18.8177
18.0625
17.3165
16.5913
15.8996
15.251
14.6504
14.0959
13.578
13.0812
12.5871
12.0797
11.5493
10.9931
10.4136
9.8147
9.19943
8.57004
7.92889
7.28102
6.63151
5.98907
5.35266
4.73553
4.11687
3.54721
2.93275
2.46756
1.73089
1.53543
0.141576
1.17493
50.8212
48.339
46.0419
43.9086
41.9212
40.0645
38.3257
36.6936
35.1587
33.7123
32.3465
31.0552
29.833
28.6746
27.5735
26.5216
25.5122
24.5428
23.6157
22.7345
21.8987
21.1015
20.3302
19.571
18.8149
18.0609
17.3154
16.5902
15.8975
15.2474
14.645
14.0889
13.5701
13.0732
12.5799
12.0741
11.5457
10.9917
10.4142
9.81714
9.20331
8.57495
7.93439
7.28659
6.63662
5.99326
5.35558
4.73693
4.11663
3.54532
2.92943
2.46323
1.72632
1.53112
0.138233
1.17189
50.7712
48.2952
46.0034
43.8748
41.8914
40.0383
38.3025
36.6732
35.1407
33.6963
32.3324
31.0427
29.8219
28.6648
27.5647
26.5139
25.5055
24.537
23.6104
22.729
21.8929
21.0957
20.3249
19.5667
18.812
18.059
17.3142
16.5888
15.8952
15.2436
14.6394
14.0818
13.5621
13.0651
12.5726
12.0683
11.542
10.9901
10.4148
9.81946
9.20707
8.57975
7.93978
7.29205
6.64163
5.99737
5.35842
4.73828
4.11636
3.54341
2.9261
2.45889
1.72177
1.5268
0.134917
1.16884
50.7233
48.2531
45.9665
43.8423
41.8628
40.013
38.2803
36.6536
35.1234
33.6811
32.3189
31.0307
29.8113
28.6553
27.5563
26.5065
25.4992
24.5313
23.6048
22.7232
21.887
21.0898
20.3195
19.5623
18.8088
18.057
17.3128
16.5873
15.8928
15.2396
14.6338
14.0746
13.554
13.0569
12.5652
12.0625
11.5382
10.9885
10.4152
9.82164
9.21069
8.58442
7.94505
7.29739
6.64654
6.00137
5.36119
4.73956
4.11603
3.54146
2.92275
2.45455
1.71721
1.52248
0.131628
1.16578
50.6772
48.2127
45.931
43.8111
41.8353
39.9888
38.2589
36.6347
35.1068
33.6664
32.306
31.0193
29.8011
28.6462
27.5483
26.4995
25.4929
24.5255
23.5991
22.7173
21.8808
21.0836
20.3138
19.5576
18.8054
18.0548
17.3112
16.5855
15.8901
15.2355
14.628
14.0673
13.5457
13.0485
12.5576
12.0565
11.5342
10.9867
10.4154
9.82369
9.21419
8.58897
7.95018
7.30262
6.65133
6.00529
5.36387
4.74078
4.11566
3.53948
2.91939
2.45021
1.71266
1.51816
0.128367
1.16272
50.633
48.1739
45.897
43.7812
41.8089
39.9655
38.2384
36.6167
35.0909
33.6524
32.2936
31.0083
29.7913
28.6375
27.5405
26.4925
25.4866
24.5195
23.5931
22.7112
21.8744
21.0772
20.3079
19.5528
18.8018
18.0523
17.3094
16.5836
15.8873
15.2313
14.6221
14.0599
13.5374
13.0401
12.55
12.0504
11.5301
10.9847
10.4156
9.82561
9.21755
8.59338
7.95519
7.30771
6.65601
6.0091
5.36647
4.74192
4.11524
3.53747
2.91602
2.44586
1.70812
1.51383
0.125136
1.15964
50.5905
48.1366
45.8643
43.7524
41.7835
39.9432
38.2188
36.5994
35.0757
33.639
32.2817
30.9978
29.7819
28.6291
27.5329
26.4855
25.4799
24.5132
23.5869
22.7047
21.8678
21.0706
20.3018
19.5477
18.798
18.0496
17.3073
16.5814
15.8843
15.2269
14.616
14.0524
13.5289
13.0315
12.5422