/*--------------------------------*- C++ -*----------------------------------*\
  =========                 |
  \\      /  F ield         | OpenFOAM: The Open Source CFD Toolbox
   \\    /   O peration     | Website:  https://openfoam.org
    \\  /    A nd           | Version:  7
     \\/     M anipulation  |
\*---------------------------------------------------------------------------*/
FoamFile
{
    version     2.0;
    format      ascii;
    class       surfaceScalarField;
    location    "1400";
    object      phi;
}
// * * * * * * * * * * * * * * * * * * * * * * * * * * * * * * * * * * * * * //

dimensions      [0 3 -1 0 0 0 0];

internalField   nonuniform List<scalar> 
45693
(
-0.00164417
0.0638068
-0.00164332
0.0619002
-0.00157797
0.0638062
-0.00164276
0.0599519
-0.00157716
0.0618993
-0.00151454
0.0638057
0.0580822
-0.00157662
0.0599513
-0.00151375
0.0618986
-0.00145351
0.0638052
-0.00157601
0.0580816
-0.00151323
0.0599508
-0.00145276
0.0618978
-0.001395
0.0638047
-0.00157556
0.056254
-0.00151264
0.058081
-0.00145226
0.0599503
-0.00139428
0.0618971
-0.0013389
0.0638043
-0.00157519
0.0544698
-0.00151221
0.0562536
-0.00145169
0.0580804
-0.00139379
0.0599498
-0.0013382
0.0618964
-0.00128501
0.0638038
-0.00157493
0.0527486
-0.00151185
0.0544695
-0.00145127
0.0562532
-0.00139324
0.0580799
-0.00133774
0.0599493
-0.00128434
0.0618957
-0.00123327
0.0638034
-0.00157473
0.0510666
-0.0015116
0.0527483
-0.00145092
0.0544691
-0.00139283
0.0562528
-0.00133721
0.0580794
-0.00128389
0.0599489
-0.00123263
0.0618951
-0.0011836
0.063803
-0.0015746
0.0494125
-0.00151141
0.0510665
-0.00145067
0.0527481
-0.0013925
0.0544688
-0.00133681
0.0562524
-0.00128338
0.0580788
-0.0012322
0.0599485
-0.00118298
0.0618945
-0.00113599
0.0638026
0.0478131
-0.00151128
0.0494124
-0.00145049
0.0510663
-0.00139226
0.0527479
-0.00133648
0.0544685
-0.00128299
0.056252
-0.0012317
0.0580784
-0.00118257
0.059948
-0.00113539
0.0618939
-0.00109028
0.0638023
-0.00151117
0.047813
-0.00145036
0.0494122
-0.00139208
0.0510661
-0.00133625
0.0527476
-0.00128267
0.0544681
-0.00123133
0.0562516
-0.00118209
0.0580779
-0.00113499
0.0599476
-0.00108971
0.0618933
-0.00104639
0.0638019
-0.00151108
0.0462453
-0.00145026
0.0478129
-0.00139196
0.0494121
-0.00133608
0.0510659
-0.00128245
0.0527474
-0.00123102
0.0544678
-0.00118173
0.0562512
-0.00113453
0.0580774
-0.00108933
0.0599473
-0.00104584
0.0618927
-0.0010043
0.0638016
-0.00151099
0.0447233
-0.00145018
0.0462452
-0.00139186
0.0478128
-0.00133596
0.049412
-0.00128228
0.0510658
-0.0012308
0.0527472
-0.00118143
0.0544675
-0.00113418
0.0562509
-0.00108888
0.058077
-0.00104547
0.0599469
-0.00100377
0.0618922
-0.000963866
0.0638013
-0.00151086
0.0432489
-0.00145009
0.0447232
-0.00139179
0.0462451
-0.00133587
0.0478128
-0.00128217
0.0494119
-0.00123064
0.0510656
-0.00118121
0.052747
-0.00113389
0.0544672
-0.00108854
0.0562505
-0.00104504
0.0580765
-0.00100341
0.0599465
-0.00096336
0.0618917
-0.000925042
0.063801
0.0418121
-0.00144998
0.0432488
-0.0013917
0.0447231
-0.0013358
0.0462451
-0.00128208
0.0478127
-0.00123053
0.0494118
-0.00118106
0.0510654
-0.00113368
0.0527468
-0.00108826
0.054467
-0.00104471
0.0562502
-0.001003
0.0580761
-0.000963016
0.0599462
-0.000924555
0.0618912
-0.000887825
0.0638007
-0.00144982
0.0418119
-0.0013916
0.0432487
-0.00133572
0.044723
-0.00128201
0.046245
-0.00123045
0.0478126
-0.00118095
0.0494117
-0.00113353
0.0510653
-0.00108806
0.0527466
-0.00104443
0.0544667
-0.00100268
0.0562499
-0.000962616
0.0580757
-0.000924225
0.0599459
-0.000887358
0.0618908
-0.000852115
0.0638004
-0.00144962
0.0404341
-0.00139145
0.0418118
-0.00133562
0.0432486
-0.00128194
0.044723
-0.00123038
0.0462449
-0.00118087
0.0478125
-0.00113342
0.0494116
-0.00108791
0.0510651
-0.00104424
0.0527464
-0.00100241
0.0544664
-0.000962306
0.0562496
-0.000923839
0.0580753
-0.00088704
0.0599455
-0.000851666
0.0618903
-0.00081781
0.0638001
0.0390837
-0.00139126
0.0404339
-0.00133549
0.0418117
-0.00128185
0.0432485
-0.00123032
0.0447229
-0.00118081
0.0462449
-0.00113335
0.0478124
-0.0010878
0.0494115
-0.00104409
0.051065
-0.00100222
0.0527462
-0.000962046
0.0544662
-0.000923538
0.0562493
-0.000886667
0.058075
-0.00085136
0.0599452
-0.00081738
0.0618899
-0.000784862
0.0637999
-0.00139102
0.0390835
-0.00133531
0.0404337
-0.00128173
0.0418115
-0.00123023
0.0432484
-0.00118075
0.0447229
-0.00113329
0.0462448
-0.00108773
0.0478124
-0.00104399
0.0494114
-0.00100208
0.0510649
-0.00096186
0.052746
-0.000923286
0.0544659
-0.000886376
0.056249
-0.000851
0.0580746
-0.000817085
0.0599449
-0.000784449
0.0618895
-0.00075332
0.0637996
-0.00139073
0.0377859
-0.00133508
0.0390833
-0.00128156
0.0404336
-0.00123012
0.0418114
-0.00118067
0.0432483
-0.00113323
0.0447228
-0.00108768
0.0462448
-0.00104392
0.0478123
-0.00100198
0.0494113
-0.000961722
0.0510647
-0.000923104
0.0527458
-0.000886131
0.0544657
-0.000850718
0.0562487
-0.000816739
0.0580743
-0.000784166
0.0599447
-0.000752923
0.0618891
-0.000722984
0.0637994
-0.00139039
0.0365284
-0.00133481
0.0377856
-0.00128135
0.0390831
-0.00122996
0.0404334
-0.00118056
0.0418113
-0.00113316
0.0432483
-0.00108763
0.0447227
-0.00104387
0.0462447
-0.00100191
0.0478122
-0.000961628
0.0494112
-0.00092297
0.0510646
-0.000885954
0.0527456
-0.00085048
0.0544654
-0.000816465
0.0562484
-0.000783831
0.0580739
-0.000752651
0.0599444
-0.000722603
0.0618887
-0.000693903
0.0637992
-0.00138999
0.0353166
-0.00133448
0.0365281
-0.00128109
0.0377853
-0.00122976
0.0390829
-0.00118042
0.0404333
-0.00113307
0.0418112
-0.00108756
0.0432482
-0.00104382
0.0447227
-0.00100187
0.0462447
-0.000961562
0.0478122
-0.000922878
0.0494111
-0.000885823
0.0510645
-0.000850308
0.0527455
-0.000816234
0.0544652
-0.000783567
0.0562482
-0.000752329
0.0580736
-0.000722341
0.0599441
-0.000693537
0.0618883
-0.000665926
0.063799
0.034146
-0.00133411
0.0353162
-0.00128077
0.0365278
-0.00122952
0.0377851
-0.00118023
0.0390827
-0.00113293
0.0404331
-0.00108747
0.0418111
-0.00104376
0.0432481
-0.00100182
0.0447226
-0.000961516
0.0462446
-0.000922815
0.0478121
-0.000885733
0.049411
-0.00085018
0.0510643
-0.000816066
0.0527453
-0.000783342
0.054465
-0.000752072
0.0562479
-0.00072203
0.0580733
-0.000693286
0.0599439
-0.000665576
0.061888
-0.000639206
0.0637988
-0.0013337
0.0341456
-0.00128042
0.0353159
-0.00122922
0.0365275
-0.00118
0.0377849
-0.00113275
0.0390825
-0.00108734
0.040433
-0.00104368
0.041811
-0.00100177
0.0432481
-0.000961474
0.0447226
-0.000922771
0.0462446
-0.000885672
0.047812
-0.000850092
0.0494109
-0.000815941
0.0510642
-0.000783178
0.0527451
-0.000751854
0.0544647
-0.000721782
0.0562477
-0.000692986
0.058073
-0.000665334
0.0599436
-0.000638869
0.0618876
-0.000613389
0.0637986
-0.0013333
0.0330161
-0.00128003
0.0341452
-0.00122888
0.0353155
-0.00117972
0.0365272
-0.00113253
0.0377846
-0.00108718
0.0390823
-0.00104356
0.0404329
-0.00100169
0.041811
-0.000961424
0.043248
-0.000922732
0.0447226
-0.000885629
0.0462445
-0.000850033
0.047812
-0.000815856
0.0494108
-0.000783056
0.0510641
-0.000751694
0.052745
-0.00072157
0.0544645
-0.000692745
0.0562474
-0.000665045
0.0580727
-0.000638637
0.0599434
-0.000613066
0.0618873
-0.000588778
0.0637984
0.0319274
-0.00127964
0.0330157
-0.00122851
0.0341449
-0.0011794
0.0353152
-0.00113227
0.0365269
-0.00108697
0.0377844
-0.00104341
0.0390822
-0.00100158
0.0404328
-0.000961352
0.0418109
-0.000922685
0.043248
-0.000885594
0.0447225
-0.000849992
0.0462445
-0.000815798
0.0478119
-0.000782973
0.0494107
-0.000751575
0.051064
-0.000721414
0.0527448
-0.000692539
0.0544643
-0.000664812
0.0562472
-0.000638359
0.0580724
-0.000612844
0.0599432
-0.000588468
0.061887
-0.00056502
0.0637982
-0.00127929
0.0319271
-0.00122814
0.0330153
-0.00117904
0.0341445
-0.00113196
0.0353149
-0.00108672
0.0365267
-0.00104321
0.0377842
-0.00100143
0.039082
-0.000961251
0.0404327
-0.000922619
0.0418108
-0.000885551
0.043248
-0.000849959
0.0447225
-0.000815759
0.0462445
-0.000782916
0.0478119
-0.000751494
0.0494106
-0.000721298
0.0510638
-0.000692387
0.0527447
-0.000664612
0.0544641
-0.000638133
0.056247
-0.000612575
0.0580722
-0.000588254
0.059943
-0.000564723
0.0618867
-0.000542317
0.063798
-0.00127899
0.0308722
-0.00122779
0.0319267
-0.00117868
0.0330149
-0.00113162
0.0341442
-0.00108643
0.0353146
-0.00104297
0.0365264
-0.00100125
0.0377841
-0.000961116
0.0390819
-0.000922526
0.0404326
-0.00088549
0.0418108
-0.00084992
0.0432479
-0.000815728
0.0447225
-0.000782879
0.0462444
-0.000751438
0.0478118
-0.000721218
0.0494106
-0.000692274
0.0510637
-0.000664464
0.0527445
-0.000637939
0.0544639
-0.000612357
0.0562468
-0.000587996
0.0580719
-0.000564518
0.0599428
-0.000542032
0.0618864
-0.000520518
0.0637979
0.0298492
-0.0012275
0.0308719
-0.00117835
0.0319264
-0.00113128
0.0330146
-0.0010861
0.0341438
-0.00104269
0.0353143
-0.00100102
0.0365262
-0.000960943
0.0377839
-0.000922399
0.0390818
-0.000885403
0.0404325
-0.000849864
0.0418107
-0.000815692
0.0432479
-0.00078285
0.0447224
-0.000751403
0.0462444
-0.000721164
0.0478118
-0.000692196
0.0494105
-0.000664353
0.0510636
-0.000637794
0.0527444
-0.000612168
0.0544637
-0.000587784
0.0562465
-0.000564269
0.0580716
-0.000541835
0.0599426
-0.000520245
0.0618861
-0.000499523
0.0637977
-0.00122729
0.029849
-0.00117807
0.0308716
-0.00113095
0.0319261
-0.00108577
0.0330143
-0.00104238
0.0341435
-0.00100076
0.035314
-0.000960729
0.036526
-0.000922237
0.0377837
-0.000885285
0.0390817
-0.000849783
0.0404324
-0.000815641
0.0418107
-0.000782817
0.0432478
-0.000751376
0.0447224
-0.00072113
0.0462443
-0.000692143
0.0478117
-0.000664277
0.0494104
-0.000637686
0.0510635
-0.000612027
0.0527442
-0.000587601
0.0544636
-0.000564064
0.0562463
-0.000541595
0.0580714
-0.000520056
0.0599424
-0.000499261
0.0618859
-0.000479431
0.0637976
-0.00122715
0.028853
-0.00117786
0.0298488
-0.00113068
0.0308713
-0.00108546
0.0319258
-0.00104206
0.0330139
-0.00100046
0.0341432
-0.000960476
0.0353138
-0.000922035
0.0365258
-0.000885132
0.0377836
-0.000849673
0.0390815
-0.000815566
0.0404323
-0.00078277
0.0418106
-0.000751346
0.0432478
-0.000721104
0.0447224
-0.00069211
0.0462443
-0.000664225
0.0478116
-0.000637611
0.0494103
-0.000611922
0.0510634
-0.000587464
0.0527441
-0.000563886
0.0544634
-0.000541398
0.0562461
-0.000519825
0.0580712
-0.00049908
0.0599422
-0.000479181
0.0618856
-0.000460143
0.0637974
0.0278844
-0.00117773
0.0288529
-0.00113048
0.0298486
-0.00108519
0.0308711
-0.00104176
0.0319254
-0.00100016
0.0330136
-0.000960193
0.034143
-0.000921794
0.0353135
-0.000884942
0.0365256
-0.00084953
0.0377834
-0.000815464
0.0390814
-0.000782701
0.0404323
-0.000751302
0.0418106
-0.000721077
0.0432478
-0.000692086
0.0447224
-0.000664193
0.0462443
-0.000637561
0.0478116
-0.000611848
0.0494103
-0.00058736
0.0510633
-0.000563753
0.052744
-0.000541225
0.0544632
-0.000519634
0.0562459
-0.000498857
0.058071
-0.000479006
0.059942
-0.000459903
0.0618854
-0.000441609
0.0637973
-0.00117765
0.0278844
-0.00113035
0.0288527
-0.001085
0.0298484
-0.00104151
0.0308708
-0.000999865
0.0319252
-0.000959898
0.0330133
-0.000921524
0.0341427
-0.000884713
0.0353133
-0.00084935
0.0365254
-0.000815329
0.0377833
-0.000782606
0.0390813
-0.000751239
0.0404322
-0.000721037
0.0418105
-0.000692061
0.0432478
-0.000664171
0.0447223
-0.00063753
0.0462443
-0.000611799
0.0478115
-0.000587288
0.0494102
-0.000563652
0.0510632
-0.000541095
0.0527438
-0.000519466
0.054463
-0.000498672
0.0562458
-0.000478792
0.0580707
-0.000459736
0.0599419
-0.000441379
0.0618852
-0.000423878
0.0637972
-0.0011776
0.0269369
-0.00113027
0.0278843
-0.00108487
0.0288526
-0.00104131
0.0298482
-0.000999617
0.0308706
-0.000959617
0.0319249
-0.000921241
0.0330131
-0.000884455
0.0341424
-0.000849133
0.0353131
-0.000815159
0.0365252
-0.00078248
0.0377832
-0.00075115
0.0390813
-0.000720979
0.0404322
-0.000692025
0.0418105
-0.000664148
0.0432477
-0.000637508
0.0447223
-0.000611768
0.0462442
-0.00058724
0.0478115
-0.000563581
0.0494101
-0.000540996
0.0510631
-0.000519339
0.0527437
-0.000498509
0.0544629
-0.000478613
0.0562456
-0.00045953
0.0580705
-0.000441218
0.0599417
-0.000423657
0.0618849
-0.000406749
0.063797
0.0260162
-0.00113023
0.0269369
-0.0010848
0.0278842
-0.00104119
0.0288525
-0.00099943
0.029848
-0.000959377
0.0308703
-0.00092097
0.0319246
-0.000884183
0.0330128
-0.000848886
0.0341422
-0.000814953
0.0353129
-0.000782319
0.0365251
-0.000751032
0.037783
-0.000720896
0.0390812
-0.000691971
0.0404321
-0.000664115
0.0418105
-0.000637487
0.0432477
-0.000611748
0.0447223
-0.00058721
0.0462442
-0.000563534
0.0478115
-0.000540927
0.04941
-0.000519242
0.051063
-0.000498386
0.0527436
-0.000478455
0.0544627
-0.000459357
0.0562454
-0.00044102
0.0580703
-0.000423503
0.0599415
-0.000406538
0.0618847
-0.000390425
0.0637969
-0.00113019
0.0260161
-0.00108476
0.0269369
-0.00104112
0.0278842
-0.000999308
0.0288524
-0.000959195
0.0298479
-0.000920737
0.0308701
-0.000883922
0.0319243
-0.000848625
0.0330125
-0.000814718
0.0341419
-0.000782124
0.0353127
-0.000750881
0.0365249
-0.000720786
0.0377829
-0.000691894
0.0390811
-0.000664065
0.0404321
-0.000637457
0.0418104
-0.000611729
0.0432477
-0.000587191
0.0447223
-0.000563505
0.0462442
-0.00054088
0.0478114
-0.000519175
0.04941
-0.000498291
0.0510629
-0.000478335
0.0527435
-0.000459204
0.0544626
-0.000440853
0.0562452
-0.000423313
0.0580701
-0.000406391
0.0599414
-0.000390222
0.0618845
-0.000374703
0.0637968
-0.00113013
0.0251179
-0.00108472
0.0260161
-0.00104108
0.0269368
-0.000999239
0.0278841
-0.000959075
0.0288523
-0.00092056
0.0298477
-0.000883696
0.0308699
-0.000848374
0.0319241
-0.000814468
0.0330123
-0.0007819
0.0341417
-0.000750696
0.0353125
-0.000720643
0.0365248
-0.000691791
0.0377828
-0.000663994
0.039081
-0.000637412
0.040432
-0.000611702
0.0418104
-0.000587174
0.0432477
-0.000563486
0.0447223
-0.000540852
0.0462441
-0.000519129
0.0478114
-0.000498225
0.0494099
-0.000478243
0.0510628
-0.000459086
0.0527433
-0.000440704
0.0544624
-0.000423151
0.0562451
-0.000406207
0.05807
-0.000390081
0.0599412
-0.000374508
0.0618843
-0.000359643
0.0637967
-0.00113002
0.0242465
-0.00108466
0.0251178
-0.00104105
0.0260161
-0.000999202
0.0269368
-0.000959008
0.027884
-0.000920442
0.0288521
-0.000883523
0.0298475
-0.000848155
0.0308697
-0.000814225
0.0319239
-0.00078166
0.033012
-0.000750482
0.0341415
-0.000720468
0.0353123
-0.000691657
0.0365247
-0.000663898
0.0377827
-0.000637346
0.039081
-0.00061166
0.040432
-0.000587149
0.0418104
-0.00056347
0.0432477
-0.000540834
0.0447222
-0.000519101
0.0462441
-0.00049818
0.0478113
-0.000478177
0.0494098
-0.000458996
0.0510627
-0.00044059
0.0527432
-0.000423007
0.0544623
-0.000406051
0.0562449
-0.000389904
0.0580698
-0.000374373
0.0599411
-0.000359457
0.0618841
-0.000345152
0.0637966
-0.00112987
0.0234029
-0.00108456
0.0242464
-0.00104099
0.0251178
-0.00099917
0.026016
-0.000958973
0.0269367
-0.000920377
0.027884
-0.000883409
0.028852
-0.000847986
0.0298473
-0.000814013
0.0308694
-0.000781426
0.0319236
-0.000750252
0.0330118
-0.000720264
0.0341413
-0.000691491
0.0353122
-0.000663772
0.0365245
-0.000637256
0.0377826
-0.000611599
0.0390809
-0.000587111
0.0404319
-0.000563448
0.0418104
-0.000540819
0.0432477
-0.000519084
0.0447222
-0.000498152
0.0462441
-0.000478133
0.0478113
-0.000458932
0.0494098
-0.000440502
0.0510626
-0.000422895
0.0527431
-0.000405911
0.0544621
-0.000389754
0.0562448
-0.000374203
0.0580696
-0.000359328
0.059941
-0.000344974
0.061884
-0.000331263
0.0637965
-0.00112969
0.0225858
-0.00108442
0.0234027
-0.0010409
0.0242464
-0.000999119
0.0251177
-0.000958944
0.026016
-0.000920343
0.0269367
-0.000883344
0.0278839
-0.000847874
0.0288519
-0.000813849
0.0298472
-0.00078122
0.0308692
-0.000750027
0.0319234
-0.000720044
0.0330116
-0.000691297
0.0341411
-0.000663615
0.035312
-0.000637137
0.0365244
-0.000611515
0.0377826
-0.000587054
0.0390808
-0.000563413
0.0404319
-0.000540799
0.0418103
-0.00051907
0.0432476
-0.000498136
0.0447222
-0.000478106
0.0462441
-0.000458889
0.0478112
-0.000440439
0.0494097
-0.000422809
0.0510626
-0.000405803
0.052743
-0.000389618
0.054462
-0.000374058
0.0562446
-0.000359165
0.0580694
-0.000344849
0.0599409
-0.000331092
0.0618838
-0.000317931
0.0637964
-0.00112949
0.0217966
-0.00108424
0.0225856
-0.00104076
0.0234026
-0.000999033
0.0242463
-0.000958897
0.0251177
-0.000920316
0.026016
-0.000883311
0.0269367
-0.000847811
0.0278838
-0.000813739
0.0288518
-0.00078106
0.029847
-0.000749827
0.030869
-0.000719827
0.0319232
-0.000691086
0.0330114
-0.00066343
0.0341409
-0.000636989
0.0353119
-0.000611404
0.0365243
-0.000586976
0.0377825
-0.000563361
0.0390808
-0.000540767
0.0404319
-0.000519052
0.0418103
-0.000498124
0.0432476
-0.000478091
0.0447222
-0.000458862
0.046244
-0.000440396
0.0478112
-0.000422748
0.0494097
-0.000405719
0.0510625
-0.000389512
0.0527429
-0.000373926
0.0544619
-0.000359024
0.0562445
-0.000344693
0.0580693
-0.000330973
0.0599407
-0.000317768
0.0618836
-0.000305137
0.0637963
0.0210322
-0.00108406
0.0217964
-0.0010406
0.0225854
-0.000998906
0.0234025
-0.000958816
0.0242462
-0.000920272
0.0251176
-0.000883286
0.026016
-0.000847779
0.0269366
-0.000813677
0.0278838
-0.000780953
0.0288517
-0.000749672
0.0298469
-0.000719634
0.0308688
-0.000690877
0.031923
-0.000663228
0.0330112
-0.000636813
0.0341407
-0.000611264
0.0353117
-0.000586872
0.0365242
-0.000563288
0.0377824
-0.000540719
0.0390807
-0.000519023
0.0404318
-0.000498107
0.0418103
-0.000478079
0.0432476
-0.000458847
0.0447222
-0.00044037
0.046244
-0.000422706
0.0478111
-0.000405658
0.0494096
-0.00038943
0.0510624
-0.000373824
0.0527428
-0.000358897
0.0544617
-0.000344557
0.0562444
-0.000330822
0.0580691
-0.000317654
0.0599406
-0.00030498
0.0618835
-0.000292855
0.0637962
-0.00108388
0.021032
-0.00104042
0.0217962
-0.000998749
0.0225853
-0.000958697
0.0234024
-0.000920197
0.0242461
-0.000883247
0.0251176
-0.000847756
0.0260159
-0.000813646
0.0269366
-0.000780892
0.0278837
-0.000749566
0.0288516
-0.000719482
0.0298467
-0.00069069
0.0308687
-0.000663027
0.0319228
-0.00063662
0.033011
-0.000611097
0.0341406
-0.000586739
0.0353116
-0.00056319
0.0365241
-0.000540651
0.0377823
-0.000518979
0.0390807
-0.000498081
0.0404318
-0.000478064
0.0418103
-0.000458836
0.0432476
-0.000440355
0.0447222
-0.00042268
0.046244
-0.000405617
0.0478111
-0.000389371
0.0494095
-0.000373743
0.0510623
-0.000358796
0.0527427
-0.000344433
0.0544616
-0.000330692
0.0562442
-0.000317509
0.058069
-0.000304871
0.0599405
-0.000292705
0.0618833
-0.00028107
0.0637962
-0.00108372
0.0202911
-0.00104025
0.0210319
-0.000998578
0.0217961
-0.000958547
0.0225851
-0.000920085
0.0234023
-0.000883176
0.024246
-0.000847719
0.0251175
-0.000813624
0.0260159
-0.000780861
0.0269366
-0.000749506
0.0278836
-0.000719379
0.0288515
-0.000690542
0.0298466
-0.000662846
0.0308685
-0.000636426
0.0319226
-0.000610912
0.0330108
-0.00058658
0.0341404
-0.000563065
0.0353115
-0.00054056
0.036524
-0.000518916
0.0377823
-0.00049804
0.0390807
-0.00047804
0.0404318
-0.000458823
0.0418103
-0.000440345
0.0432476
-0.000422666
0.0447222
-0.000405591
0.0462439
-0.00038933
0.0478111
-0.000373685
0.0494095
-0.000358718
0.0510622
-0.000344336
0.0527426
-0.000330572
0.0544615
-0.000317383
0.0562441
-0.000304732
0.0580689
-0.000292601
0.0599404
-0.000280927
0.0618832
-0.000269763
0.0637961
0.0195733
-0.00104009
0.0202909
-0.000998413
0.0210317
-0.000958384
0.0217959
-0.000919942
0.022585
-0.00088307
0.0234021
-0.000847654
0.024246
-0.000813591
0.0251175
-0.000780841
0.0260159
-0.000749476
0.0269366
-0.000719319
0.0278836
-0.000690441
0.0288514
-0.000662702
0.0298464
-0.000636251
0.0308683
-0.000610726
0.0319224
-0.000586404
0.0330106
-0.000562914
0.0341403
-0.000540442
0.0353114
-0.00051883
0.0365239
-0.000497982
0.0377822
-0.000478003
0.0390806
-0.000458801
0.0404318
-0.000440333
0.0418103
-0.000422656
0.0432476
-0.000405577
0.0447221
-0.000389305
0.0462439
-0.000373645
0.047811
-0.000358661
0.0494094
-0.000344259
0.0510622
-0.000330477
0.0527425
-0.000317267
0.0544614
-0.00030461
0.056244
-0.000292467
0.0580687
-0.000280827
0.0599403
-0.000269625
0.061883
-0.000258902
0.063796
-0.00103996
0.0195732
-0.000998265
0.0202908
-0.000958225
0.0210315
-0.000919786
0.0217957
-0.000882935
0.0225848
-0.000847554
0.023402
-0.00081353
0.0242459
-0.000780811
0.0251175
-0.000749457
0.0260159
-0.00071929
0.0269365
-0.000690382
0.0278835
-0.000662602
0.0288513
-0.000636111
0.0298463
-0.000610556
0.0308681
-0.000586225
0.0319222
-0.000562746
0.0330105
-0.000540299
0.0341401
-0.000518719
0.0353112
-0.000497902
0.0365238
-0.000477949
0.0377822
-0.000458767
0.0390806
-0.000440313
0.0404317
-0.000422645
0.0418103
-0.000405569
0.0432476
-0.000389291
0.0447221
-0.00037362
0.0462439
-0.000358621
0.047811
-0.000344203
0.0494094
-0.000330402
0.0510621
-0.000317175
0.0527424
-0.000304498
0.0544613
-0.00029235
0.0562439
-0.000280699
0.0580686
-0.000269529
0.0599402
-0.000258771
0.0618829
-0.000248483
0.0637959
-0.00103983
0.0188742
-0.000998134
0.019573
-0.000958083
0.0202907
-0.000919634
0.0210314
-0.000882786
0.0217956
-0.000847425
0.0225847
-0.000813436
0.023402
-0.000780754
0.0242459
-0.000749429
0.0251175
-0.000719273
0.0260159
-0.000690354
0.0269365
-0.000662545
0.0278835
-0.000636014
0.0288512
-0.00061042
0.0298461
-0.000586061
0.030868
-0.000562574
0.031922
-0.000540138
0.0330103
-0.000518583
0.03414
-0.000497797
0.0353111
-0.000477874
0.0365238
-0.000458717
0.0377821
-0.000440282
0.0390806
-0.000422627
0.0404317
-0.000405559
0.0418102
-0.000389283
0.0432476
-0.000373607
0.0447221
-0.000358597
0.0462439
-0.000344164
0.0478109
-0.000330347
0.0494093
-0.000317101
0.051062
-0.000304408
0.0527423
-0.000292241
0.0544612
-0.000280585
0.0562437
-0.000269407
0.0580685
-0.000258679
0.0599401
-0.000248358
0.0618828
-0.000238482
0.0637959
-0.00103969
0.0181941
-0.000998011
0.0188741
-0.000957958
0.0195729
-0.000919498
0.0202905
-0.00088264
0.0210313
-0.000847283
0.0217954
-0.000813313
0.0225846
-0.000780665
0.0234019
-0.000749377
0.0242458
-0.000719247
0.0251174
-0.000690337
0.0260158
-0.000662517
0.0269365
-0.000635956
0.0278834
-0.000610324
0.0288511
-0.000585928
0.029846
-0.000562415
0.0308678
-0.000539972
0.0319219
-0.00051843
0.0330101
-0.000497668
0.0341399
-0.000477775
0.035311
-0.000458647
0.0365237
-0.000440236
0.0377821
-0.000422599
0.0390805
-0.000405543
0.0404317
-0.000389274
0.0418102
-0.000373599
0.0432476
-0.000358584
0.0447221
-0.00034414
0.0462438
-0.000330309
0.0478109
-0.000317048
0.0494093
-0.000304337
0.0510619
-0.000292154
0.0527422
-0.00028048
0.0544611
-0.000269297
0.0562436
-0.000258561
0.0580684
-0.00024827
0.05994
-0.000238361
0.0618827
-0.000228887
0.0637958
-0.00103955
0.0175344
-0.000997884
0.018194
-0.000957841
0.018874
-0.000919378
0.0195728
-0.000882509
0.0202904
-0.000847143
0.0210311
-0.000813177
0.0217953
-0.000780549
0.0225845
-0.000749294
0.0234018
-0.000719198
0.0242458
-0.000690314
0.0251174
-0.000662501
0.0260158
-0.000635929
0.0269364
-0.000610268
0.0278834
-0.000585834
0.028851
-0.000562286
0.0298459
-0.000539819
0.0308677
-0.000518271
0.0319217
-0.000497521
0.03301
-0.000477653
0.0341397
-0.000458554
0.0353109
-0.000440171
0.0365236
-0.000422556
0.037782
-0.000405517
0.0390805
-0.00038926
0.0404317
-0.000373591
0.0418102
-0.000358576
0.0432476
-0.000344127
0.0447221
-0.000330285
0.0462438
-0.00031701
0.0478109
-0.000304284
0.0494092
-0.000292084
0.0510619
-0.000280395
0.0527421
-0.000269196
0.054461
-0.000258456
0.0562435
-0.000248157
0.0580682
-0.000238277
0.05994
-0.000228771
0.0618826
-0.000219673
0.0637957
-0.00103938
0.0168934
-0.000997744
0.0175343
-0.000957721
0.0181938
-0.000919267
0.0188739
-0.000882395
0.0195727
-0.000847017
0.0202903
-0.000813043
0.021031
-0.000780419
0.0217952
-0.000749183
0.0225844
-0.00071912
0.0234017
-0.000690269
0.0242457
-0.00066248
0.0251174
-0.000635914
0.0260158
-0.00061024
0.0269364
-0.000585779
0.0278833
-0.000562194
0.0288509
-0.000539693
0.0298458
-0.000518123
0.0308675
-0.000497369
0.0319216
-0.000477513
0.0330099
-0.000458439
0.0341396
-0.000440084
0.0353109
-0.000422495
0.0365236
-0.000405477
0.037782
-0.000389236
0.0390805
-0.000373578
0.0404317
-0.000358569
0.0418102
-0.00034412
0.0432475
-0.000330272
0.0447221
-0.000316986
0.0462438
-0.000304247
0.0478108
-0.000292032
0.0494092
-0.000280327
0.0510618
-0.000269113
0.0527421
-0.000258357
0.0544609
-0.000248055
0.0562434
-0.000238169
0.0580681
-0.000228691
0.0599399
-0.000219563
0.0618824
-0.000210837
0.0637957
-0.00103921
0.0162713
-0.000997591
0.0168932
-0.000957588
0.0175341
-0.000919152
0.0181937
-0.000882289
0.0188738
-0.000846908
0.0195726
-0.000812923
0.0202901
-0.00078029
0.0210308
-0.000749059
0.021795
-0.000719015
0.0225843
-0.000690195
0.0234016
-0.000662438
0.0242457
-0.000635894
0.0251174
-0.000610226
0.0260158
-0.000585751
0.0269364
-0.000562139
0.0278832
-0.000539603
0.0288508
-0.000518
0.0298456
-0.000497226
0.0308674
-0.000477367
0.0319214
-0.000458305
0.0330097
-0.000439974
0.0341395
-0.000422414
0.0353108
-0.000405421
0.0365235
-0.0003892
0.037782
-0.000373556
0.0390805
-0.000358557
0.0404317
-0.000344113
0.0418102
-0.000330265
0.0432475
-0.000316973
0.0447221
-0.000304224
0.0462438
-0.000291996
0.0478108
-0.000280277
0.0494091
-0.000269047
0.0510617
-0.000258277
0.052742
-0.00024796
0.0544608
-0.000238071
0.0562433
-0.000228587
0.058068
-0.000219486
0.0599398
-0.000210731
0.0618823
-0.000202347
0.0637956
-0.00103903
0.0156668
-0.000997427
0.0162711
-0.000957442
0.0168931
-0.000919026
0.017534
-0.00088218
0.0181936
-0.000846807
0.0188737
-0.000812818
0.0195725
-0.000780175
0.02029
-0.000748935
0.0210307
-0.000718897
0.0217949
-0.000690096
0.0225842
-0.000662369
0.0234016
-0.000635856
0.0242456
-0.000610208
0.0251173
-0.000585738
0.0260158
-0.000562112
0.0269364
-0.000539549
0.0278832
-0.000517912
0.0288507
-0.000497107
0.0298455
-0.000477229
0.0308672
-0.000458165
0.0319213
-0.000439847
0.0330096
-0.00042231
0.0341394
-0.000405344
0.0353107
-0.000389147
0.0365235
-0.000373523
0.0377819
-0.000358538
0.0390804
-0.000344103
0.0404317
-0.000330259
0.0418102
-0.000316967
0.0432475
-0.000304211
0.044722
-0.000291972
0.0462438
-0.00028024
0.0478108
-0.000268997
0.0494091
-0.000258212
0.0510617
-0.000247882
0.0527419
-0.000237979
0.0544607
-0.000228493
0.0562432
-0.000219387
0.0580679
-0.000210658
0.0599397
-0.000202246
0.0618822
-0.000194208
0.0637956
-0.00103885
0.0150805
-0.000997256
0.0156666
-0.000957286
0.016271
-0.000918888
0.016893
-0.00088206
0.0175339
-0.000846703
0.0181935
-0.000812721
0.0188736
-0.000780075
0.0195724
-0.000748824
0.0202899
-0.000718778
0.0210306
-0.000689982
0.0217948
-0.000662275
0.0225841
-0.000635791
0.0234015
-0.000610173
0.0242456
-0.000585721
0.0251173
-0.000562099
0.0260158
-0.000539522
0.0269363
-0.000517858
0.0278831
-0.000497021
0.0288506
-0.000477113
0.0298454
-0.000458032
0.0308671
-0.000439713
0.0319211
-0.000422189
0.0330095
-0.000405247
0.0341393
-0.000389075
0.0353106
-0.000373474
0.0365234
-0.000358507
0.0377819
-0.000344085
0.0390804
-0.00033025
0.0404316
-0.000316961
0.0418102
-0.000304204
0.0432475
-0.00029196
0.044722
-0.000280217
0.0462437
-0.000268961
0.0478107
-0.000258164
0.049409
-0.000247819
0.0510616
-0.000237903
0.0527418
-0.000228404
0.0544606
-0.000219296
0.0562431
-0.000210562
0.0580678
-0.000202176
0.0599397
-0.000194112
0.0618821
-0.000186391
0.0637955
-0.00103865
0.0145112
-0.00099708
0.0150804
-0.000957124
0.0156664
-0.000918739
0.0162708
-0.000881928
0.0168928
-0.00084659
0.0175338
-0.000812623
0.0181934
-0.000779983
0.0188735
-0.000748728
0.0195723
-0.000718672
0.0202898
-0.000689869
0.0210305
-0.000662166
0.0217947
-0.000635702
0.022584
-0.000610112
0.0234014
-0.000585688
0.0242456
-0.000562084
0.0251173
-0.000539509
0.0260158
-0.000517832
0.0269363
-0.000496967
0.0278831
-0.000477029
0.0288506
-0.000457919
0.0298453
-0.000439584
0.030867
-0.00042206
0.031921
-0.000405132
0.0330094
-0.000388983
0.0341392
-0.000373407
0.0353106
-0.000358462
0.0365234
-0.000344057
0.0377819
-0.000330234
0.0390804
-0.000316953
0.0404316
-0.0003042
0.0418102
-0.000291953
0.0432475
-0.000280205
0.044722
-0.000268939
0.0462437
-0.000258129
0.0478107
-0.000247771
0.049409
-0.000237842
0.0510615
-0.00022833
0.0527418
-0.00021921
0.0544605
-0.000210475
0.0562431
-0.000202084
0.0580677
-0.000194045
0.0599396
-0.000186299
0.061882
-0.000178886
0.0637955
-0.00103844
0.0139563
-0.000996894
0.014511
-0.000956956
0.0150802
-0.000918585
0.0156663
-0.000881787
0.0162707
-0.000846464
0.0168927
-0.000812515
0.0175337
-0.000779889
0.0181933
-0.000748641
0.0188734
-0.000718579
0.0195722
-0.000689766
0.0202897
-0.000662057
0.0210304
-0.000635598
0.0217946
-0.000610027
0.0225839
-0.000585632
0.0234014
-0.000562053
0.0242455
-0.000539496
0.0251173
-0.000517819
0.0260158
-0.000496941
0.0269363
-0.000476976
0.027883
-0.000457836
0.0288505
-0.000439475
0.0298452
-0.000421937
0.0308668
-0.000405008
0.0319209
-0.000388874
0.0330092
-0.00037332
0.0341391
-0.000358399
0.0353105
-0.000344016
0.0365233
-0.000330208
0.0377818
-0.000316939
0.0390804
-0.000304192
0.0404316
-0.000291949
0.0418102
-0.000280199
0.0432475
-0.000268926
0.044722
-0.000258106
0.0462437
-0.000247737
0.0478106
-0.000237795
0.0494089
-0.00022827
0.0510615
-0.000219138
0.0527417
-0.000210392
0.0544604
-0.000202
0.056243
-0.000193957
0.0580677
-0.000186235
0.0599395
-0.000178797
0.061882
-0.000171691
0.0637954
-0.00103822
0.013417
-0.000996696
0.0139561
-0.000956779
0.0145108
-0.000918425
0.01508
-0.00088164
0.0156661
-0.000846329
0.0162705
-0.000812395
0.0168926
-0.000779786
0.0175336
-0.000748552
0.0181932
-0.000718496
0.0188733
-0.000689678
0.0195721
-0.000661959
0.0202896
-0.000635494
0.0210303
-0.000609929
0.0217945
-0.000585552
0.0225838
-0.000562
0.0234013
-0.000539468
0.0242455
-0.000517807
0.0251173
-0.000496929
0.0260157
-0.00047695
0.0269363
-0.000457785
0.027883
-0.000439394
0.0288504
-0.00042183
0.0298451
-0.000404888
0.0308667
-0.000388755
0.0319208
-0.000373216
0.0330091
-0.000358317
0.0341391
-0.000343957
0.0353104
-0.00033017
0.0365233
-0.000316915
0.0377818
-0.000304179
0.0390804
-0.000291943
0.0404316
-0.000280195
0.0418102
-0.00026892
0.0432475
-0.000258093
0.044722
-0.000247714
0.0462437
-0.000237761