/*--------------------------------*- C++ -*----------------------------------*\
  =========                 |
  \\      /  F ield         | OpenFOAM: The Open Source CFD Toolbox
   \\    /   O peration     | Website:  https://openfoam.org
    \\  /    A nd           | Version:  7
     \\/     M anipulation  |
\*---------------------------------------------------------------------------*/
FoamFile
{
    version     2.0;
    format      ascii;
    class       volVectorField;
    location    "1400";
    object      U;
}
// * * * * * * * * * * * * * * * * * * * * * * * * * * * * * * * * * * * * * //

dimensions      [0 1 -1 0 0 0 0];

internalField   nonuniform List<vector> 
23023
(
(50.2537 12.3729 0)
(50.2075 12.3876 0)
(50.2539 12.3728 0)
(50.1997 12.3817 0)
(50.2077 12.3874 0)
(50.2541 12.3727 0)
(50.1744 12.3791 0)
(50.1998 12.3816 0)
(50.2078 12.3872 0)
(50.2542 12.3726 0)
(50.1744 12.3789 0)
(50.1999 12.3815 0)
(50.208 12.3871 0)
(50.2544 12.3725 0)
(50.1605 12.3745 0)
(50.1744 12.3788 0)
(50.2 12.3814 0)
(50.2082 12.3869 0)
(50.2546 12.3724 0)
(50.1459 12.3684 0)
(50.1603 12.3744 0)
(50.1744 12.3787 0)
(50.2002 12.3813 0)
(50.2084 12.3868 0)
(50.2548 12.3723 0)
(50.1368 12.3592 0)
(50.1456 12.3683 0)
(50.1602 12.3743 0)
(50.1744 12.3786 0)
(50.2003 12.3812 0)
(50.2086 12.3866 0)
(50.255 12.3722 0)
(50.1293 12.3469 0)
(50.1364 12.3591 0)
(50.1453 12.3682 0)
(50.1601 12.3742 0)
(50.1745 12.3785 0)
(50.2005 12.3811 0)
(50.2088 12.3865 0)
(50.2552 12.3722 0)
(50.1244 12.3316 0)
(50.1289 12.3469 0)
(50.136 12.3591 0)
(50.145 12.3681 0)
(50.16 12.3741 0)
(50.1745 12.3783 0)
(50.2007 12.381 0)
(50.2091 12.3864 0)
(50.2555 12.3721 0)
(50.1205 12.3135 0)
(50.1239 12.3316 0)
(50.1284 12.3469 0)
(50.1356 12.359 0)
(50.1448 12.368 0)
(50.1599 12.374 0)
(50.1746 12.3782 0)
(50.2008 12.3809 0)
(50.2093 12.3863 0)
(50.2557 12.372 0)
(50.12 12.3135 0)
(50.1234 12.3316 0)
(50.1279 12.3468 0)
(50.1352 12.3589 0)
(50.1446 12.368 0)
(50.1599 12.3739 0)
(50.1747 12.3781 0)
(50.2011 12.3808 0)
(50.2096 12.3862 0)
(50.256 12.3719 0)
(50.117 12.2928 0)
(50.1195 12.3135 0)
(50.1228 12.3315 0)
(50.1275 12.3468 0)
(50.1348 12.3589 0)
(50.1444 12.3679 0)
(50.1598 12.3739 0)
(50.1748 12.378 0)
(50.2013 12.3807 0)
(50.2099 12.386 0)
(50.2562 12.3719 0)
(50.1141 12.2698 0)
(50.1165 12.2928 0)
(50.119 12.3134 0)
(50.1223 12.3315 0)
(50.127 12.3467 0)
(50.1345 12.3588 0)
(50.1442 12.3678 0)
(50.1598 12.3738 0)
(50.175 12.3779 0)
(50.2015 12.3807 0)
(50.2101 12.3859 0)
(50.2565 12.3718 0)
(50.1106 12.2449 0)
(50.1137 12.2698 0)
(50.1161 12.2928 0)
(50.1184 12.3134 0)
(50.1218 12.3315 0)
(50.1265 12.3467 0)
(50.1341 12.3588 0)
(50.144 12.3678 0)
(50.1598 12.3737 0)
(50.1751 12.3778 0)
(50.2018 12.3806 0)
(50.2105 12.3858 0)
(50.2567 12.3717 0)
(50.1059 12.2186 0)
(50.1104 12.2449 0)
(50.1133 12.2697 0)
(50.1156 12.2927 0)
(50.1179 12.3134 0)
(50.1213 12.3314 0)
(50.1261 12.3467 0)
(50.1338 12.3587 0)
(50.1438 12.3677 0)
(50.1598 12.3736 0)
(50.1753 12.3778 0)
(50.202 12.3805 0)
(50.2108 12.3857 0)
(50.257 12.3717 0)
(50.1058 12.2186 0)
(50.1101 12.2448 0)
(50.1129 12.2697 0)
(50.1151 12.2927 0)
(50.1174 12.3134 0)
(50.1208 12.3314 0)
(50.1256 12.3466 0)
(50.1335 12.3587 0)
(50.1436 12.3676 0)
(50.1598 12.3736 0)
(50.1755 12.3777 0)
(50.2023 12.3804 0)
(50.2111 12.3856 0)
(50.2573 12.3716 0)
(50.0998 12.1914 0)
(50.1057 12.2185 0)
(50.1098 12.2448 0)
(50.1125 12.2697 0)
(50.1146 12.2927 0)
(50.1168 12.3134 0)
(50.1203 12.3314 0)
(50.1252 12.3466 0)
(50.1332 12.3586 0)
(50.1435 12.3676 0)
(50.1598 12.3735 0)
(50.1757 12.3776 0)
(50.2026 12.3804 0)
(50.2114 12.3855 0)
(50.2576 12.3716 0)
(50.0919 12.1639 0)
(50.0998 12.1914 0)
(50.1056 12.2185 0)
(50.1095 12.2448 0)
(50.1121 12.2697 0)
(50.1141 12.2927 0)
(50.1163 12.3133 0)
(50.1197 12.3314 0)
(50.1248 12.3465 0)
(50.1329 12.3586 0)
(50.1434 12.3675 0)
(50.1599 12.3734 0)
(50.1759 12.3775 0)
(50.2029 12.3803 0)
(50.2118 12.3855 0)
(50.2579 12.3715 0)
(50.0921 12.1638 0)
(50.0999 12.1913 0)
(50.1055 12.2184 0)
(50.1092 12.2447 0)
(50.1116 12.2697 0)
(50.1135 12.2927 0)
(50.1157 12.3133 0)
(50.1192 12.3313 0)
(50.1243 12.3465 0)
(50.1326 12.3585 0)
(50.1432 12.3674 0)
(50.16 12.3734 0)
(50.1762 12.3774 0)
(50.2032 12.3802 0)
(50.2121 12.3854 0)
(50.2582 12.3715 0)
(50.0826 12.1361 0)
(50.0924 12.1637 0)
(50.0999 12.1912 0)
(50.1053 12.2184 0)
(50.1089 12.2447 0)
(50.1112 12.2697 0)
(50.113 12.2926 0)
(50.1152 12.3133 0)
(50.1187 12.3313 0)
(50.1239 12.3465 0)
(50.1323 12.3585 0)
(50.1431 12.3674 0)
(50.1601 12.3733 0)
(50.1764 12.3774 0)
(50.2035 12.3802 0)
(50.2125 12.3853 0)
(50.2586 12.3714 0)
(50.0711 12.1087 0)
(50.083 12.136 0)
(50.0926 12.1636 0)
(50.0999 12.1912 0)
(50.1051 12.2184 0)
(50.1086 12.2447 0)
(50.1107 12.2696 0)
(50.1125 12.2926 0)
(50.1146 12.3133 0)
(50.1182 12.3313 0)
(50.1235 12.3464 0)
(50.1321 12.3585 0)
(50.1431 12.3673 0)
(50.1602 12.3732 0)
(50.1767 12.3773 0)
(50.2039 12.3801 0)
(50.2129 12.3852 0)
(50.2589 12.3714 0)
(50.0577 12.0819 0)
(50.0716 12.1086 0)
(50.0833 12.1359 0)
(50.0927 12.1636 0)
(50.0999 12.1912 0)
(50.1049 12.2183 0)
(50.1082 12.2447 0)
(50.1102 12.2696 0)
(50.1119 12.2926 0)
(50.1141 12.3133 0)
(50.1177 12.3312 0)
(50.1231 12.3464 0)
(50.1318 12.3584 0)
(50.143 12.3673 0)
(50.1603 12.3732 0)
(50.177 12.3772 0)
(50.2042 12.3801 0)
(50.2133 12.3851 0)
(50.2592 12.3714 0)
(50.0429 12.056 0)
(50.0584 12.0817 0)
(50.0721 12.1085 0)
(50.0837 12.1359 0)
(50.0929 12.1635 0)
(50.0999 12.1911 0)
(50.1047 12.2183 0)
(50.1078 12.2447 0)
(50.1097 12.2696 0)
(50.1113 12.2926 0)
(50.1135 12.3132 0)
(50.1172 12.3312 0)
(50.1227 12.3464 0)
(50.1316 12.3584 0)
(50.143 12.3672 0)
(50.1605 12.3731 0)
(50.1773 12.3771 0)
(50.2046 12.38 0)
(50.2137 12.3851 0)
(50.2595 12.3713 0)
(50.0436 12.0558 0)
(50.059 12.0816 0)
(50.0726 12.1084 0)
(50.084 12.1358 0)
(50.0931 12.1635 0)
(50.0998 12.1911 0)
(50.1045 12.2183 0)
(50.1074 12.2447 0)
(50.1092 12.2696 0)
(50.1108 12.2926 0)
(50.1129 12.3132 0)
(50.1167 12.3312 0)
(50.1224 12.3463 0)
(50.1314 12.3583 0)
(50.1429 12.3672 0)
(50.1606 12.3731 0)
(50.1776 12.3771 0)
(50.205 12.38 0)
(50.2141 12.385 0)
(50.2599 12.3713 0)
(50.0282 12.0308 0)
(50.0443 12.0556 0)
(50.0596 12.0815 0)
(50.0731 12.1083 0)
(50.0844 12.1357 0)
(50.0932 12.1634 0)
(50.0997 12.191 0)
(50.1042 12.2183 0)
(50.107 12.2446 0)
(50.1087 12.2696 0)
(50.1102 12.2926 0)
(50.1124 12.3132 0)
(50.1162 12.3312 0)
(50.122 12.3463 0)
(50.1311 12.3583 0)
(50.1429 12.3671 0)
(50.1608 12.373 0)
(50.178 12.377 0)
(50.2054 12.3799 0)
(50.2145 12.3849 0)
(50.2602 12.3712 0)
(50.0133 12.0065 0)
(50.0289 12.0306 0)
(50.045 12.0555 0)
(50.0602 12.0814 0)
(50.0736 12.1082 0)
(50.0847 12.1356 0)
(50.0933 12.1634 0)
(50.0997 12.191 0)
(50.104 12.2183 0)
(50.1066 12.2446 0)
(50.1082 12.2696 0)
(50.1096 12.2926 0)
(50.1118 12.3132 0)
(50.1157 12.3312 0)
(50.1216 12.3463 0)
(50.131 12.3583 0)
(50.1429 12.3671 0)
(50.161 12.373 0)
(50.1783 12.377 0)
(50.2058 12.3799 0)
(50.2149 12.3849 0)
(50.2606 12.3712 0)
(50.0139 12.0063 0)
(50.0296 12.0305 0)
(50.0457 12.0554 0)
(50.0609 12.0813 0)
(50.0741 12.1081 0)
(50.085 12.1356 0)
(50.0934 12.1633 0)
(50.0995 12.191 0)
(50.1037 12.2182 0)
(50.1061 12.2446 0)
(50.1076 12.2696 0)
(50.109 12.2926 0)
(50.1113 12.3132 0)
(50.1152 12.3311 0)
(50.1213 12.3463 0)
(50.1308 12.3582 0)
(50.143 12.367 0)
(50.1612 12.3729 0)
(50.1787 12.3769 0)
(50.2062 12.3798 0)
(50.2153 12.3848 0)
(50.2609 12.3712 0)
(50.0009 11.9818 0)
(50.0146 12.0062 0)
(50.0302 12.0304 0)
(50.0464 12.0553 0)
(50.0615 12.0812 0)
(50.0746 12.108 0)
(50.0852 12.1355 0)
(50.0935 12.1633 0)
(50.0994 12.1909 0)
(50.1033 12.2182 0)
(50.1057 12.2446 0)
(50.1071 12.2696 0)
(50.1085 12.2925 0)
(50.1107 12.3132 0)
(50.1148 12.3311 0)
(50.1209 12.3462 0)
(50.1306 12.3582 0)
(50.143 12.367 0)
(50.1614 12.3729 0)
(50.1791 12.3768 0)
(50.2066 12.3798 0)
(50.2158 12.3847 0)
(50.2613 12.3711 0)
(49.9906 11.956 0)
(50.0014 11.9817 0)
(50.0152 12.006 0)
(50.0309 12.0303 0)
(50.0471 12.0552 0)
(50.0621 12.0811 0)
(50.075 12.108 0)
(50.0855 12.1355 0)
(50.0935 12.1632 0)
(50.0993 12.1909 0)
(50.103 12.2182 0)
(50.1052 12.2446 0)
(50.1065 12.2695 0)
(50.1079 12.2925 0)
(50.1101 12.3131 0)
(50.1143 12.3311 0)
(50.1206 12.3462 0)
(50.1305 12.3582 0)
(50.1431 12.367 0)
(50.1617 12.3728 0)
(50.1795 12.3768 0)
(50.207 12.3798 0)
(50.2162 12.3847 0)
(50.2617 12.3711 0)
(49.991 11.9559 0)
(50.0019 11.9816 0)
(50.0158 12.0059 0)
(50.0316 12.0301 0)
(50.0477 12.055 0)
(50.0627 12.081 0)
(50.0755 12.1079 0)
(50.0857 12.1354 0)
(50.0936 12.1632 0)
(50.0991 12.1909 0)
(50.1027 12.2182 0)
(50.1047 12.2446 0)
(50.1059 12.2695 0)
(50.1073 12.2925 0)
(50.1096 12.3131 0)
(50.1139 12.3311 0)
(50.1203 12.3462 0)
(50.1304 12.3581 0)
(50.1431 12.3669 0)
(50.162 12.3728 0)
(50.1799 12.3767 0)
(50.2075 12.3797 0)
(50.2166 12.3846 0)
(50.262 12.3711 0)
(49.9839 11.9277 0)
(49.9914 11.9558 0)
(50.0024 11.9815 0)
(50.0165 12.0058 0)
(50.0323 12.03 0)
(50.0484 12.0549 0)
(50.0633 12.0809 0)
(50.0759 12.1078 0)
(50.086 12.1354 0)
(50.0936 12.1632 0)
(50.0989 12.1909 0)
(50.1023 12.2182 0)
(50.1042 12.2446 0)
(50.1053 12.2695 0)
(50.1067 12.2925 0)
(50.109 12.3131 0)
(50.1134 12.3311 0)
(50.12 12.3462 0)
(50.1302 12.3581 0)
(50.1432 12.3669 0)
(50.1623 12.3727 0)
(50.1803 12.3767 0)
(50.2079 12.3797 0)
(50.2171 12.3846 0)
(50.2624 12.3711 0)
(49.9797 11.8962 0)
(49.9842 11.9277 0)
(49.9918 11.9558 0)
(50.0029 11.9814 0)
(50.0171 12.0057 0)
(50.033 12.0299 0)
(50.0491 12.0548 0)
(50.0638 12.0808 0)
(50.0763 12.1078 0)
(50.0862 12.1353 0)
(50.0936 12.1631 0)
(50.0987 12.1909 0)
(50.1019 12.2182 0)
(50.1037 12.2446 0)
(50.1048 12.2695 0)
(50.1061 12.2925 0)
(50.1085 12.3131 0)
(50.113 12.331 0)
(50.1197 12.3461 0)
(50.1302 12.3581 0)
(50.1434 12.3668 0)
(50.1626 12.3727 0)
(50.1807 12.3766 0)
(50.2084 12.3796 0)
(50.2176 12.3845 0)
(50.2628 12.371 0)
(49.9799 11.8961 0)
(49.9844 11.9276 0)
(49.9921 11.9557 0)
(50.0034 11.9813 0)
(50.0177 12.0056 0)
(50.0338 12.0298 0)
(50.0498 12.0547 0)
(50.0644 12.0808 0)
(50.0767 12.1077 0)
(50.0864 12.1353 0)
(50.0935 12.1631 0)
(50.0985 12.1908 0)
(50.1015 12.2181 0)
(50.1032 12.2446 0)
(50.1042 12.2695 0)
(50.1055 12.2925 0)
(50.1079 12.3131 0)
(50.1125 12.331 0)
(50.1195 12.3461 0)
(50.1301 12.358 0)
(50.1435 12.3668 0)
(50.1629 12.3726 0)
(50.1812 12.3766 0)
(50.2089 12.3796 0)
(50.218 12.3845 0)
(50.2632 12.371 0)
(49.9776 11.8608 0)
(49.9801 11.8961 0)
(49.9847 11.9276 0)
(49.9925 11.9556 0)
(50.004 11.9812 0)
(50.0184 12.0055 0)
(50.0345 12.0297 0)
(50.0505 12.0547 0)
(50.065 12.0807 0)
(50.0771 12.1077 0)
(50.0865 12.1352 0)
(50.0935 12.1631 0)
(50.0982 12.1908 0)
(50.1011 12.2181 0)
(50.1026 12.2446 0)
(50.1036 12.2695 0)
(50.1049 12.2925 0)
(50.1074 12.3131 0)
(50.1121 12.331 0)
(50.1192 12.3461 0)
(50.13 12.358 0)
(50.1436 12.3668 0)
(50.1632 12.3726 0)
(50.1817 12.3765 0)
(50.2093 12.3796 0)
(50.2185 12.3844 0)
(50.2636 12.371 0)
(49.9761 11.8218 0)
(49.9778 11.8608 0)
(49.9803 11.8961 0)
(49.9849 11.9275 0)
(49.9929 11.9555 0)
(50.0045 11.9811 0)
(50.0191 12.0054 0)
(50.0352 12.0296 0)
(50.0511 12.0546 0)
(50.0655 12.0806 0)
(50.0774 12.1076 0)
(50.0867 12.1352 0)
(50.0934 12.163 0)
(50.098 12.1908 0)
(50.1007 12.2181 0)
(50.1021 12.2445 0)
(50.1029 12.2695 0)
(50.1043 12.2925 0)
(50.1069 12.3131 0)
(50.1117 12.331 0)
(50.119 12.3461 0)
(50.13 12.358 0)
(50.1438 12.3667 0)
(50.1636 12.3726 0)
(50.1821 12.3765 0)
(50.2098 12.3795 0)
(50.219 12.3844 0)
(50.264 12.3709 0)
(49.9763 11.8218 0)
(49.978 11.8608 0)
(49.9805 11.896 0)
(49.9852 11.9274 0)
(49.9933 11.9554 0)
(50.0051 11.981 0)
(50.0197 12.0053 0)
(50.0359 12.0295 0)
(50.0518 12.0545 0)
(50.066 12.0805 0)
(50.0778 12.1075 0)
(50.0868 12.1352 0)
(50.0933 12.163 0)
(50.0977 12.1908 0)
(50.1003 12.2181 0)
(50.1015 12.2445 0)
(50.1023 12.2695 0)
(50.1037 12.2925 0)
(50.1064 12.3131 0)
(50.1113 12.331 0)
(50.1187 12.346 0)
(50.13 12.3579 0)
(50.144 12.3667 0)
(50.164 12.3725 0)
(50.1826 12.3765 0)
(50.2103 12.3795 0)
(50.2195 12.3844 0)
(50.2644 12.3709 0)
(49.9742 11.7797 0)
(49.9765 11.8218 0)
(49.9781 11.8607 0)
(49.9806 11.896 0)
(49.9855 11.9274 0)
(49.9937 11.9554 0)
(50.0056 11.9809 0)
(50.0204 12.0052 0)
(50.0366 12.0294 0)
(50.0525 12.0544 0)
(50.0666 12.0805 0)
(50.0781 12.1075 0)
(50.0869 12.1351 0)
(50.0932 12.163 0)
(50.0974 12.1908 0)
(50.0998 12.2181 0)
(50.101 12.2445 0)
(50.1017 12.2695 0)
(50.1031 12.2925 0)
(50.1058 12.313 0)
(50.1109 12.331 0)
(50.1185 12.346 0)
(50.13 12.3579 0)
(50.1442 12.3666 0)
(50.1643 12.3725 0)
(50.1831 12.3764 0)
(50.2108 12.3795 0)
(50.22 12.3843 0)
(50.2648 12.3709 0)
(49.9706 11.7354 0)
(49.9745 11.7797 0)
(49.9767 11.8218 0)
(49.9783 11.8607 0)
(49.9808 11.8959 0)
(49.9857 11.9273 0)
(49.9941 11.9553 0)
(50.0062 11.9808 0)
(50.0211 12.0051 0)
(50.0373 12.0293 0)
(50.0531 12.0543 0)
(50.0671 12.0804 0)
(50.0784 12.1075 0)
(50.087 12.1351 0)
(50.0931 12.163 0)
(50.0971 12.1908 0)
(50.0993 12.2181 0)
(50.1004 12.2445 0)
(50.1011 12.2695 0)
(50.1025 12.2925 0)
(50.1053 12.313 0)
(50.1106 12.3309 0)
(50.1183 12.346 0)
(50.13 12.3579 0)
(50.1444 12.3666 0)
(50.1648 12.3725 0)
(50.1837 12.3764 0)
(50.2113 12.3794 0)
(50.2205 12.3843 0)
(50.2652 12.3709 0)
(49.9649 11.6898 0)
(49.971 11.7354 0)
(49.9748 11.7797 0)
(49.9769 11.8218 0)
(49.9784 11.8607 0)
(49.981 11.8959 0)
(49.986 11.9273 0)
(49.9946 11.9552 0)
(50.0068 11.9807 0)
(50.0218 12.005 0)
(50.0381 12.0292 0)
(50.0538 12.0543 0)
(50.0676 12.0804 0)
(50.0787 12.1074 0)
(50.0871 12.1351 0)
(50.093 12.163 0)
(50.0968 12.1908 0)
(50.0988 12.2181 0)
(50.0998 12.2445 0)
(50.1005 12.2695 0)
(50.1019 12.2925 0)
(50.1048 12.313 0)
(50.1102 12.3309 0)
(50.1182 12.346 0)
(50.13 12.3579 0)
(50.1447 12.3666 0)
(50.1652 12.3724 0)
(50.1842 12.3763 0)
(50.2119 12.3794 0)
(50.221 12.3842 0)
(50.2656 12.3709 0)
(49.9574 11.6434 0)
(49.9654 11.6897 0)
(49.9714 11.7354 0)
(49.9751 11.7797 0)
(49.9771 11.8217 0)
(49.9785 11.8607 0)
(49.9811 11.8959 0)
(49.9863 11.9272 0)
(49.995 11.9552 0)
(50.0074 11.9806 0)
(50.0225 12.0049 0)
(50.0388 12.0291 0)
(50.0544 12.0542 0)
(50.0681 12.0803 0)
(50.079 12.1074 0)
(50.0871 12.135 0)
(50.0928 12.1629 0)
(50.0964 12.1907 0)
(50.0983 12.2181 0)
(50.0992 12.2445 0)
(50.0998 12.2695 0)
(50.1013 12.2925 0)
(50.1043 12.313 0)
(50.1099 12.3309 0)
(50.118 12.3459 0)
(50.1301 12.3578 0)
(50.145 12.3665 0)
(50.1656 12.3724 0)
(50.1847 12.3763 0)
(50.2124 12.3794 0)
(50.2215 12.3842 0)
(50.266 12.3708 0)
(49.9488 11.5964 0)
(49.958 11.6433 0)
(49.966 11.6896 0)
(49.9718 11.7353 0)
(49.9754 11.7797 0)
(49.9772 11.8217 0)
(49.9787 11.8607 0)
(49.9813 11.8959 0)
(49.9866 11.9272 0)
(49.9954 11.9551 0)
(50.008 11.9806 0)
(50.0232 12.0048 0)
(50.0395 12.0291 0)
(50.0551 12.0541 0)
(50.0685 12.0803 0)
(50.0792 12.1073 0)
(50.0872 12.135 0)
(50.0926 12.1629 0)
(50.096 12.1907 0)
(50.0978 12.2181 0)
(50.0986 12.2445 0)
(50.0992 12.2695 0)
(50.1007 12.2924 0)
(50.1038 12.313 0)
(50.1095 12.3309 0)
(50.1179 12.3459 0)
(50.1301 12.3578 0)
(50.1452 12.3665 0)
(50.1661 12.3724 0)
(50.1853 12.3763 0)
(50.2129 12.3794 0)
(50.222 12.3842 0)
(50.2664 12.3708 0)
(49.9401 11.5486 0)
(49.9495 11.5963 0)
(49.9586 11.6432 0)
(49.9665 11.6896 0)
(49.9722 11.7353 0)
(49.9756 11.7796 0)
(49.9774 11.8217 0)
(49.9788 11.8606 0)
(49.9814 11.8958 0)
(49.9868 11.9272 0)
(49.9959 11.955 0)
(50.0086 11.9805 0)
(50.0239 12.0047 0)
(50.0402 12.029 0)
(50.0557 12.0541 0)
(50.069 12.0802 0)
(50.0795 12.1073 0)
(50.0872 12.135 0)
(50.0924 12.1629 0)
(50.0957 12.1907 0)
(50.0973 12.2181 0)
(50.098 12.2445 0)
(50.0985 12.2695 0)
(50.1001 12.2924 0)
(50.1034 12.313 0)
(50.1092 12.3309 0)
(50.1177 12.3459 0)
(50.1302 12.3578 0)
(50.1455 12.3665 0)
(50.1665 12.3723 0)
(50.1859 12.3762 0)
(50.2134 12.3793 0)
(50.2225 12.3841 0)
(50.2668 12.3708 0)
(49.9408 11.5485 0)
(49.9501 11.5962 0)
(49.9592 11.6431 0)
(49.967 11.6895 0)
(49.9726 11.7353 0)
(49.9758 11.7796 0)
(49.9775 11.8217 0)
(49.9789 11.8606 0)
(49.9816 11.8958 0)
(49.9871 11.9271 0)
(49.9964 11.955 0)
(50.0092 11.9804 0)
(50.0246 12.0047 0)
(50.0409 12.0289 0)
(50.0563 12.054 0)
(50.0694 12.0802 0)
(50.0797 12.1073 0)
(50.0872 12.135 0)
(50.0922 12.1629 0)
(50.0953 12.1907 0)
(50.0967 12.2181 0)
(50.0973 12.2445 0)
(50.0979 12.2695 0)
(50.0995 12.2924 0)
(50.1029 12.313 0)
(50.1089 12.3309 0)
(50.1176 12.3459 0)
(50.1303 12.3578 0)
(50.1459 12.3665 0)
(50.167 12.3723 0)
(50.1864 12.3762 0)
(50.214 12.3793 0)
(50.223 12.3841 0)
(50.2672 12.3708 0)
(49.9329 11.499 0)
(49.9415 11.5484 0)
(49.9508 11.5962 0)
(49.9598 11.6431 0)
(49.9675 11.6895 0)
(49.9729 11.7352 0)
(49.976 11.7796 0)
(49.9776 11.8217 0)
(49.979 11.8606 0)
(49.9818 11.8958 0)
(49.9874 11.9271 0)
(49.9968 11.9549 0)
(50.0098 11.9803 0)
(50.0254 12.0046 0)
(50.0416 12.0289 0)
(50.0569 12.0539 0)
(50.0699 12.0801 0)
(50.0799 12.1072 0)
(50.0872 12.1349 0)
(50.092 12.1629 0)
(50.0948 12.1907 0)
(50.0962 12.2181 0)
(50.0967 12.2445 0)
(50.0973 12.2695 0)
(50.0989 12.2924 0)
(50.1024 12.313 0)
(50.1086 12.3308 0)
(50.1176 12.3459 0)
(50.1305 12.3577 0)
(50.1462 12.3664 0)
(50.1675 12.3723 0)
(50.187 12.3762 0)
(50.2145 12.3793 0)
(50.2236 12.3841 0)
(50.2676 12.3708 0)
(49.9259 11.4471 0)
(49.9336 11.4989 0)
(49.9421 11.5483 0)
(49.9514 11.5961 0)
(49.9604 11.643 0)
(49.9679 11.6894 0)
(49.9732 11.7352 0)
(49.9762 11.7796 0)
(49.9777 11.8217 0)
(49.979 11.8606 0)
(49.9819 11.8958 0)
(49.9877 11.927 0)
(49.9973 11.9549 0)
(50.0105 11.9803 0)
(50.0261 12.0045 0)
(50.0424 12.0288 0)
(50.0575 12.0539 0)
(50.0703 12.0801 0)
(50.0801 12.1072 0)
(50.0871 12.1349 0)
(50.0917 12.1629 0)
(50.0944 12.1907 0)
(50.0956 12.2181 0)
(50.0961 12.2445 0)
(50.0966 12.2695 0)
(50.0983 12.2924 0)
(50.102 12.313 0)
(50.1083 12.3308 0)
(50.1175 12.3458 0)
(50.1306 12.3577 0)
(50.1466 12.3664 0)
(50.1681 12.3722 0)
(50.1876 12.3761 0)
(50.2151 12.3793 0)
(50.2241 12.3841 0)
(50.268 12.3708 0)
(49.9266 11.447 0)
(49.9342 11.4988 0)
(49.9428 11.5482 0)
(49.952 11.596 0)
(49.9609 11.6429 0)
(49.9684 11.6894 0)
(49.9735 11.7352 0)
(49.9764 11.7796 0)
(49.9778 11.8217 0)
(49.9791 11.8606 0)
(49.9821 11.8957 0)
(49.9881 11.927 0)
(49.9978 11.9548 0)
(50.0111 11.9802 0)
(50.0268 12.0044 0)
(50.0431 12.0287 0)
(50.0581 12.0538 0)
(50.0707 12.08 0)
(50.0803 12.1072 0)
(50.0871 12.1349 0)
(50.0915 12.1629 0)
(50.0939 12.1907 0)
(50.095 12.2181 0)
(50.0954 12.2445 0)
(50.096 12.2695 0)
(50.0978 12.2924 0)
(50.1016 12.3129 0)
(50.1081 12.3308 0)
(50.1174 12.3458 0)
(50.1308 12.3577 0)
(50.147 12.3664 0)
(50.1686 12.3722 0)
(50.1882 12.3761 0)
(50.2156 12.3792 0)
(50.2246 12.384 0)
(50.2685 12.3707 0)
(49.9204 11.392 0)
(49.9273 11.4469 0)
(49.9349 11.4988 0)
(49.9434 11.5481 0)
(49.9526 11.5959 0)
(49.9615 11.6429 0)
(49.9688 11.6893 0)
(49.9738 11.7351 0)
(49.9765 11.7795 0)
(49.9779 11.8217 0)
(49.9792 11.8606 0)
(49.9822 11.8957 0)
(49.9884 11.9269 0)
(49.9983 11.9547 0)
(50.0118 11.9801 0)
(50.0276 12.0044 0)
(50.0438 12.0287 0)
(50.0587 12.0538 0)
(50.0711 12.08 0)
(50.0804 12.1071 0)
(50.087 12.1349 0)
(50.0912 12.1628 0)
(50.0935 12.1907 0)
(50.0945 12.2181 0)
(50.0948 12.2445 0)
(50.0954 12.2695 0)
(50.0972 12.2924 0)
(50.1011 12.3129 0)
(50.1078 12.3308 0)
(50.1174 12.3458 0)
(50.131 12.3577 0)
(50.1473 12.3664 0)
(50.1691 12.3722 0)
(50.1888 12.3761 0)
(50.2162 12.3792 0)
(50.2251 12.384 0)
(50.2689 12.3707 0)
(49.9142 11.3338 0)
(49.9211 11.3919 0)
(49.928 11.4468 0)
(49.9355 11.4987 0)
(49.944 11.548 0)
(49.9532 11.5958 0)
(49.962 11.6428 0)
(49.9692 11.6893 0)
(49.9741 11.7351 0)
(49.9767 11.7795 0)
(49.9779 11.8217 0)
(49.9793 11.8606 0)
(49.9824 11.8957 0)
(49.9887 11.9269 0)
(49.9988 11.9547 0)
(50.0125 11.9801 0)
(50.0283 12.0043 0)
(50.0445 12.0286 0)
(50.0593 12.0537 0)
(50.0714 12.08 0)
(50.0805 12.1071 0)
(50.0869 12.1349 0)
(50.0908 12.1628 0)
(50.093 12.1907 0)
(50.0939 12.2181 0)
(50.0941 12.2445 0)
(50.0947 12.2695 0)
(50.0967 12.2924 0)
(50.1007 12.3129 0)
(50.1076 12.3308 0)
(50.1174 12.3458 0)
(50.1312 12.3577 0)
(50.1478 12.3663 0)
(50.1697 12.3722 0)
(50.1895 12.3761 0)
(50.2167 12.3792 0)
(50.2257 12.384 0)
(50.2693 12.3707 0)
(49.9076 11.2726 0)
(49.915 11.3337 0)
(49.9218 11.3919 0)
(49.9286 11.4468 0)
(49.9361 11.4986 0)
(49.9446 11.548 0)
(49.9538 11.5957 0)
(49.9625 11.6427 0)
(49.9696 11.6892 0)
(49.9743 11.7351 0)
(49.9768 11.7795 0)
(49.978 11.8217 0)
(49.9794 11.8606 0)
(49.9826 11.8957 0)
(49.989 11.9269 0)
(49.9994 11.9546 0)
(50.0131 11.98 0)
(50.029 12.0042 0)
(50.0452 12.0285 0)
(50.0598 12.0537 0)
(50.0718 12.0799 0)
(50.0807 12.1071 0)
(50.0867 12.1349 0)
(50.0905 12.1628 0)
(50.0925 12.1907 0)
(50.0933 12.2181 0)
(50.0935 12.2445 0)
(50.0941 12.2694 0)
(50.0961 12.2924 0)
(50.1003 12.3129 0)
(50.1074 12.3308 0)
(50.1174 12.3458 0)
(50.1314 12.3576 0)
(50.1482 12.3663 0)
(50.1703 12.3721 0)
(50.1901 12.376 0)
(50.2173 12.3792 0)
(50.2262 12.384 0)
(50.2697 12.3707 0)
(49.9001 11.2085 0)
(49.9084 11.2725 0)
(49.9158 11.3336 0)
(49.9225 11.3918 0)
(49.9292 11.4467 0)
(49.9367 11.4985 0)
(49.9452 11.5479 0)
(49.9543 11.5957 0)
(49.963 11.6427 0)
(49.9699 11.6892 0)
(49.9745 11.735 0)
(49.9769 11.7795 0)
(49.978 11.8216 0)
(49.9794 11.8605 0)
(49.9828 11.8956 0)
(49.9894 11.9268 0)
(49.9999 11.9546 0)
(50.0138 11.9799 0)
(50.0298 12.0042 0)
(50.0459 12.0285 0)
(50.0604 12.0536 0)
(50.0721 12.0799 0)
(50.0807 12.1071 0)
(50.0866 12.1348 0)
(50.0902 12.1628 0)
(50.092 12.1907 0)
(50.0926 12.2181 0)
(50.0928 12.2445 0)
(50.0935 12.2694 0)
(50.0956 12.2924 0)
(50.1 12.3129 0)
(50.1072 12.3308 0)
(50.1174 12.3458 0)
(50.1316 12.3576 0)
(50.1486 12.3663 0)
(50.1709 12.3721 0)
(50.1907 12.376 0)
(50.2179 12.3792 0)
(50.2268 12.3839 0)
(50.2701 12.3707 0)
(49.8921 11.1417 0)
(49.9011 11.2084 0)
(49.9093 11.2724 0)
(49.9165 11.3336 0)
(49.9232 11.3917 0)
(49.9298 11.4466 0)
(49.9373 11.4984 0)
(49.9458 11.5478 0)
(49.9549 11.5956 0)
(49.9635 11.6426 0)
(49.9703 11.6891 0)
(49.9748 11.735 0)
(49.977 11.7795 0)
(49.9781 11.8216 0)
(49.9795 11.8605 0)
(49.983 11.8956 0)
(49.9898 11.9268 0)
(50.0004 11.9545 0)
(50.0145 11.9799 0)
(50.0305 12.0041 0)
(50.0466 12.0284 0)
(50.0609 12.0536 0)
(50.0724 12.0799 0)
(50.0808 12.1071 0)
(50.0864 12.1348 0)
(50.0898 12.1628 0)
(50.0915 12.1907 0)
(50.092 12.218 0)
(50.0922 12.2445 0)
(50.0928 12.2694 0)
(50.0951 12.2924 0)
(50.0996 12.3129 0)
(50.1071 12.3307 0)
(50.1175 12.3457 0)
(50.1319 12.3576 0)
(50.1491 12.3663 0)
(50.1715 12.3721 0)
(50.1914 12.376 0)
(50.2184 12.3792 0)
(50.2273 12.3839 0)
(50.2706 12.3707 0)
(49.8836 11.072 0)
(49.8931 11.1416 0)
(49.902 11.2083 0)
(49.9101 11.2723 0)
(49.9172 11.3335 0)
(49.9238 11.3916 0)
(49.9304 11.4465 0)
(49.9379 11.4984 0)
(49.9464 11.5477 0)
(49.9554 11.5955 0)
(49.9639 11.6425 0)
(49.9706 11.6891 0)
(49.975 11.735 0)
(49.9771 11.7795 0)
(49.9781 11.8216 0)
(49.9796 11.8605 0)
(49.9831 11.8956 0)
(49.9901 11.9267 0)
(50.001 11.9545 0)
(50.0152 11.9798 0)
(50.0313 12.0041 0)
(50.0473 12.0284 0)
(50.0614 12.0536 0)
(50.0727 12.0798 0)
(50.0809 12.107 0)
(50.0862 12.1348 0)
(50.0894 12.1628 0)
(50.0909 12.1907 0)
(50.0914 12.218 0)
(50.0915 12.2445 0)
(50.0922 12.2694 0)
(50.0946 12.2924 0)
(50.0992 12.3129 0)
(50.1069 12.3307 0)
(50.1175 12.3457 0)
(50.1322 12.3576 0)
(50.1496 12.3662 0)
(50.1721 12.3721 0)
(50.192 12.376 0)
(50.219 12.3791 0)
(50.2278 12.3839 0)
(50.271 12.3707 0)
(49.8749 10.9989 0)
(49.8847 11.0719 0)
(49.8941 11.1415 0)
(49.9029 11.2082 0)
(49.9108 11.2722 0)
(49.9179 11.3334 0)
(49.9244 11.3916 0)
(49.931 11.4465 0)
(49.9384 11.4983 0)
(49.9469 11.5477 0)
(49.956 11.5955 0)
(49.9644 11.6425 0)
(49.971 11.6891 0)
(49.9751 11.735 0)
(49.9772 11.7795 0)
(49.9781 11.8216 0)
(49.9796 11.8605 0)
(49.9833 11.8956 0)
(49.9905 11.9267 0)
(50.0016 11.9544 0)
(50.0159 11.9798 0)
(50.032 12.004 0)
(50.0479 12.0283 0)
(50.0619 12.0535 0)
(50.073 12.0798 0)
(50.0809 12.107 0)
(50.086 12.1348 0)
(50.089 12.1628 0)
(50.0904 12.1907 0)
(50.0907 12.218 0)
(50.0908 12.2445 0)
(50.0916 12.2694 0)
(50.0941 12.2924 0)
(50.0989 12.3129 0)
(50.1068 12.3307 0)
(50.1176 12.3457 0)
(50.1325 12.3576 0)
(50.1501 12.3662 0)
(50.1727 12.3721 0)
(50.1927 12.376 0)
(50.2196 12.3791 0)
(50.2284 12.3839 0)
(50.2714 12.3707 0)
(49.8657 10.9222 0)
(49.876 10.9988 0)
(49.8857 11.0717 0)
(49.895 11.1414 0)
(49.9037 11.2081 0)
(49.9116 11.2721 0)
(49.9186 11.3333 0)
(49.925 11.3915 0)
(49.9316 11.4464 0)
(49.939 11.4982 0)
(49.9475 11.5476 0)
(49.9565 11.5954 0)
(49.9648 11.6424 0)
(49.9713 11.689 0)
(49.9753 11.735 0)
(49.9772 11.7795 0)
(49.9782 11.8216 0)
(49.9797 11.8605 0)
(49.9836 11.8955 0)
(49.9909 11.9267 0)
(50.0022 11.9544 0)
(50.0166 11.9797 0)
(50.0328 12.004 0)
(50.0486 12.0283 0)
(50.0624 12.0535 0)
(50.0732 12.0798 0)
(50.0809 12.107 0)
(50.0858 12.1348 0)
(50.0886 12.1628 0)
(50.0898 12.1907 0)
(50.0901 12.218 0)
(50.0902 12.2445 0)
(50.091 12.2694 0)
(50.0936 12.2924 0)
(50.0986 12.3129 0)
(50.1066 12.3307 0)
(50.1177 12.3457 0)
(50.1328 12.3575 0)
(50.1506 12.3662 0)
(50.1734 12.372 0)
(50.1934 12.3759 0)
(50.2202 12.3791 0)
(50.2289 12.3839 0)
(50.2718 12.3707 0)
(49.8561 10.8416 0)
(49.867 10.9221 0)
(49.8772 10.9987 0)
(49.8868 11.0716 0)
(49.8959 11.1413 0)
(49.9045 11.208 0)
(49.9123 11.2721 0)
(49.9192 11.3333 0)
(49.9256 11.3915 0)
(49.9321 11.4464 0)
(49.9395 11.4982 0)
(49.948 11.5475 0)
(49.957 11.5953 0)
(49.9652 11.6424 0)
(49.9716 11.689 0)
(49.9755 11.735 0)
(49.9773 11.7795 0)
(49.9782 11.8216 0)
(49.9798 11.8605 0)
(49.9838 11.8955 0)
(49.9913 11.9266 0)
(50.0028 11.9543 0)
(50.0174 11.9797 0)
(50.0335 12.0039 0)
(50.0493 12.0283 0)
(50.0629 12.0535 0)
(50.0735 12.0798 0)
(50.0809 12.107 0)
(50.0856 12.1348 0)
(50.0882 12.1628 0)
(50.0893 12.1907 0)
(50.0894 12.218 0)
(50.0895 12.2445 0)
(50.0904 12.2694 0)
(50.0931 12.2923 0)
(50.0983 12.3129 0)
(50.1065 12.3307 0)
(50.1178 12.3457 0)
(50.1332 12.3575 0)
(50.1512 12.3662 0)
(50.174 12.372 0)
(50.194 12.3759 0)
(50.2207 12.3791 0)
(50.2295 12.3838 0)
(50.2722 12.3706 0)
(49.8458 10.7569 0)
(49.8575 10.8415 0)
(49.8682 10.922 0)
(49.8782 10.9986 0)
(49.8877 11.0715 0)
(49.8968 11.1412 0)
(49.9053 11.208 0)
(49.913 11.272 0)
(49.9199 11.3332 0)
(49.9261 11.3914 0)
(49.9326 11.4463 0)
(49.9401 11.4981 0)
(49.9486 11.5475 0)
(49.9575 11.5953 0)
(49.9656 11.6424 0)
(49.9719 11.689 0)
(49.9756 11.7349 0)
(49.9773 11.7795 0)
(49.9782 11.8216 0)
(49.9799 11.8605 0)
(49.984 11.8955 0)
(49.9917 11.9266 0)
(50.0034 11.9543 0)
(50.0181 11.9796 0)
(50.0343 12.0039 0)
(50.0499 12.0282 0)
(50.0634 12.0534 0)
(50.0737 12.0797 0)
(50.0808 12.107 0)
(50.0853 12.1348 0)
(50.0877 12.1628 0)
(50.0887 12.1907 0)
(50.0888 12.218 0)
(50.0888 12.2445 0)
(50.0898 12.2694 0)
(50.0926 12.2923 0)
(50.098 12.3128 0)
(50.1065 12.3307 0)
(50.118 12.3457 0)
(50.1335 12.3575 0)
(50.1517 12.3662 0)
(50.1747 12.372 0)
(50.1947 12.3759 0)
(50.2213 12.3791 0)
(50.23 12.3838 0)
(50.2727 12.3706 0)
(49.8346 10.6679 0)
(49.8472 10.7567 0)
(49.8588 10.8413 0)
(49.8694 10.9218 0)
(49.8793 10.9985 0)
(49.8887 11.0714 0)
(49.8977 11.1411 0)
(49.9061 11.2079 0)
(49.9137 11.2719 0)
(49.9205 11.3332 0)
(49.9267 11.3913 0)
(49.9332 11.4463 0)
(49.9406 11.4981 0)
(49.9491 11.5474 0)
(49.958 11.5953 0)
(49.966 11.6423 0)
(49.9721 11.689 0)
(49.9757 11.7349 0)
(49.9773 11.7794 0)
(49.9782 11.8216 0)
(49.9799 11.8604 0)
(49.9842 11.8954 0)
(49.9922 11.9265 0)
(50.004 11.9542 0)
(50.0188 11.9796 0)
(50.035 12.0038 0)
(50.0506 12.0282 0)
(50.0638 12.0534 0)
(50.0739 12.0797 0)
(50.0808 12.107 0)
(50.085 12.1348 0)
(50.0873 12.1628 0)
(50.0881 12.1907 0)
(50.0881 12.218 0)
(50.0882 12.2445 0)
(50.0892 12.2694 0)
(50.0922 12.2923 0)
(50.0977 12.3128 0)
(50.1064 12.3307 0)
(50.1181 12.3457 0)
(50.1339 12.3575 0)
(50.1523 12.3661 0)
(50.1754 12.372 0)
(50.1954 12.3759 0)
(50.2219 12.3791 0)
(50.2306 12.3838 0)
(50.2731 12.3706 0)
(49.8226 10.5742 0)
(49.8362 10.6677 0)
(49.8487 10.7566 0)
(49.8601 10.8412 0)
(49.8705 10.9217 0)
(49.8803 10.9983 0)
(49.8896 11.0713 0)
(49.8985 11.141 0)
(49.9068 11.2078 0)
(49.9144 11.2718 0)
(49.921 11.3331 0)
(49.9272 11.3913 0)
(49.9337 11.4462 0)
(49.9411 11.498 0)
(49.9496 11.5474 0)
(49.9584 11.5952 0)
(49.9664 11.6423 0)
(49.9724 11.6889 0)
(49.9758 11.7349 0)
(49.9774 11.7794 0)
(49.9782 11.8216 0)
(49.98 11.8604 0)
(49.9845 11.8954 0)
(49.9926 11.9265 0)
(50.0046 11.9542 0)
(50.0196 11.9795 0)
(50.0358 12.0038 0)
(50.0512 12.0282 0)
(50.0642 12.0534 0)
(50.0741 12.0797 0)
(50.0807 12.107 0)
(50.0847 12.1348 0)
(50.0868 12.1628 0)
(50.0875 12.1907 0)
(50.0874 12.218 0)
(50.0875 12.2445 0)
(50.0886 12.2694 0)
(50.0917 12.2923 0)
(50.0975 12.3128 0)
(50.1064 12.3307 0)
(50.1183 12.3456 0)
(50.1343 12.3575 0)
(50.1529 12.3661 0)
(50.176 12.372 0)
(50.1961 12.3759 0)
(50.2225 12.3791 0)
(50.2311 12.3838 0)
(50.2735 12.3706 0)
(49.8095 10.4756 0)
(49.8243 10.574 0)
(49.8378 10.6675 0)
(49.85 10.7564 0)
(49.8613 10.8411 0)
(49.8716 10.9216 0)
(49.8813 10.9982 0)
(49.8905 11.0712 0)
(49.8993 11.1409 0)
(49.9076 11.2077 0)
(49.915 11.2718 0)
(49.9216 11.3331 0)
(49.9277 11.3913 0)
(49.9342 11.4462 0)
(49.9416 11.498 0)
(49.9501 11.5473 0)
(49.9589 11.5952 0)
(49.9668 11.6423 0)
(49.9726 11.6889 0)
(49.9759 11.7349 0)
(49.9774 11.7794 0)
(49.9782 11.8216 0)
(49.9801 11.8604 0)
(49.9847 11.8954 0)
(49.9931 11.9265 0)
(50.0053 11.9542 0)
(50.0203 11.9795 0)
(50.0365 12.0038 0)
(50.0518 12.0281 0)
(50.0646 12.0534 0)
(50.0742 12.0797 0)
(50.0806 12.107 0)
(50.0844 12.1348 0)
(50.0863 12.1628 0)
(50.0869 12.1907 0)
(50.0868 12.218 0)
(50.0868 12.2445 0)
(50.088 12.2694 0)
(50.0913 12.2923 0)
(50.0972 12.3128 0)
(50.1063 12.3307 0)
(50.1185 12.3456 0)
(50.1347 12.3575 0)
(50.1535 12.3661 0)
(50.1767 12.3719 0)
(50.1968 12.3758 0)
(50.2231 12.3791 0)
(50.2317 12.3838 0)
(50.2739 12.3706 0)
(49.7952 10.3718 0)
(49.8114 10.4754 0)
(49.826 10.5738 0)
(49.8393 10.6673 0)
(49.8514 10.7563 0)
(49.8625 10.8409 0)
(49.8727 10.9215 0)
(49.8822 10.9981 0)
(49.8914 11.0711 0)
(49.9001 11.1409 0)
(49.9083 11.2077 0)
(49.9156 11.2717 0)
(49.9222 11.333 0)
(49.9282 11.3912 0)
(49.9346 11.4461 0)
(49.9421 11.4979 0)
(49.9506 11.5473 0)
(49.9594 11.5951 0)
(49.9671 11.6422 0)
(49.9728 11.6889 0)
(49.976 11.7349 0)
(49.9774 11.7794 0)