/*--------------------------------*- C++ -*----------------------------------*\
  =========                 |
  \\      /  F ield         | OpenFOAM: The Open Source CFD Toolbox
   \\    /   O peration     | Website:  https://openfoam.org
    \\  /    A nd           | Version:  7
     \\/     M anipulation  |
\*---------------------------------------------------------------------------*/
FoamFile
{
    version     2.0;
    format      ascii;
    class       volScalarField;
    location    "1400";
    object      yPlus;
}
// * * * * * * * * * * * * * * * * * * * * * * * * * * * * * * * * * * * * * //

dimensions      [0 0 0 0 0 0 0];

internalField   uniform 0;

boundaryField
{
    inlet-l
    {
        type            calculated;
        value           nonuniform 0();
    }
    airfoil-l1
    {
        type            calculated;
        value           nonuniform 0();
    }
    empty-1
    {
        type            empty;
    }
    empty-2
    {
        type            empty;
    }
    wall-l1
    {
        type            calculated;
        value           nonuniform 0();
    }
    airfoil-l2
    {
        type            calculated;
        value           nonuniform 0();
    }
    empty-3
    {
        type            empty;
    }
    empty-4
    {
        type            empty;
    }
    wall-l2
    {
        type            calculated;
        value           nonuniform 0();
    }
    outlet-l
    {
        type            calculated;
        value           uniform 0;
    }
    empty-5
    {
        type            empty;
    }
    empty-6
    {
        type            empty;
    }
    outlet-h
    {
        type            calculated;
        value           uniform 0;
    }
    wall-h2
    {
        type            calculated;
        value           nonuniform List<scalar> 
74
(
143.272
143.395
143.532
143.669
143.812
143.966
144.133
144.311
144.501
144.702
144.916
145.142
145.382
145.637
145.9
146.179
146.474
146.782
147.107
147.447
147.803
148.175
148.563
148.967
149.387
149.824
150.277
150.747
151.232
151.733
152.249
152.78
153.326
153.886
154.459
155.044
155.642
156.25
156.869
157.497
158.132
158.773
159.42
160.071
160.723
161.376
162.028
162.677
163.321
163.959
164.587
165.204
165.808
166.396
166.966
167.516
168.044
168.546
169.02
169.463
169.873
170.245
170.576
170.862
171.098
171.277
171.39
171.427
171.37
171.203
170.869
170.461
169.447
170.751
)
;
    }
    empty-7
    {
        type            empty;
    }
    empty-8
    {
        type            empty;
    }
    airfoil-h2
    {
        type            calculated;
        value           nonuniform List<scalar> 
34
(
23.4257
23.2271
23.0288
22.8282
22.6225
22.4163
22.2069
21.9916
21.7722
21.5467
21.3199
21.0902
20.8499
20.6032
20.3491
20.089
19.8199
19.5407
19.2485
18.944
18.6285
18.296
17.9488
17.5829
17.1961
16.7864
16.356
15.8895
15.4161
14.863
14.395
13.6388
13.5363
11.4227
)
;
    }
    wall-h1
    {
        type            calculated;
        value           nonuniform List<scalar> 
34
(
143.272
143.268
143.257
143.256
143.244
143.243
143.233
143.233
143.225
143.224
143.216
143.217
143.209
143.211
143.204
143.206
143.201
143.204
143.198
143.201
143.198
143.195
143.199
143.195
143.202
143.199
143.203
143.203
143.209
143.208
143.214
143.213
143.22
143.222
)
;
    }
    empty-9
    {
        type            empty;
    }
    empty-10
    {
        type            empty;
    }
    inlet-h
    {
        type            calculated;
        value           nonuniform 0();
    }
    airfoil-h1
    {
        type            calculated;
        value           nonuniform 0();
    }
    empty-11
    {
        type            empty;
    }
    empty-12
    {
        type            empty;
    }
    procBoundary2to1
    {
        type            processor;
        value           uniform 0;
    }
    procBoundary2to3
    {
        type            processor;
        value           uniform 0;
    }
}


// ************************************************************************* //
