/*--------------------------------*- C++ -*----------------------------------*\
  =========                 |
  \\      /  F ield         | OpenFOAM: The Open Source CFD Toolbox
   \\    /   O peration     | Website:  https://openfoam.org
    \\  /    A nd           | Version:  7
     \\/     M anipulation  |
\*---------------------------------------------------------------------------*/
FoamFile
{
    version     2.0;
    format      ascii;
    class       volScalarField;
    location    "1800";
    object      nut;
}
// * * * * * * * * * * * * * * * * * * * * * * * * * * * * * * * * * * * * * //

dimensions      [0 2 -1 0 0 0 0];

internalField   nonuniform List<scalar> 
23117
(
5.2192e-06
5.21681e-06
5.23219e-06
5.21666e-06
5.23046e-06
5.24013e-06
5.21598e-06
5.2297e-06
5.23773e-06
5.24164e-06
5.21567e-06
5.22877e-06
5.23621e-06
5.23713e-06
5.23563e-06
5.21537e-06
5.228e-06
5.23444e-06
5.23457e-06
5.22997e-06
5.22789e-06
5.21514e-06
5.22719e-06
5.23261e-06
5.2316e-06
5.22752e-06
5.2248e-06
5.22719e-06
5.21494e-06
5.22635e-06
5.23069e-06
5.22883e-06
5.22503e-06
5.22471e-06
5.22781e-06
5.23088e-06
5.21476e-06
5.22546e-06
5.22872e-06
5.22625e-06
5.22336e-06
5.22479e-06
5.22854e-06
5.231e-06
5.23122e-06
5.21459e-06
5.22451e-06
5.22672e-06
5.22399e-06
5.22238e-06
5.22528e-06
5.22897e-06
5.23031e-06
5.22883e-06
5.22761e-06
5.2144e-06
5.22349e-06
5.22476e-06
5.22211e-06
5.22208e-06
5.22588e-06
5.22908e-06
5.22924e-06
5.22717e-06
5.22496e-06
5.22554e-06
5.21421e-06
5.22242e-06
5.22289e-06
5.22069e-06
5.22233e-06
5.22646e-06
5.22878e-06
5.22785e-06
5.22546e-06
5.2244e-06
5.2252e-06
5.22677e-06
5.21399e-06
5.2213e-06
5.22115e-06
5.21974e-06
5.22274e-06
5.22684e-06
5.2281e-06
5.2263e-06
5.22411e-06
5.22399e-06
5.22537e-06
5.22687e-06
5.22754e-06
5.21375e-06
5.22014e-06
5.2196e-06
5.21927e-06
5.22328e-06
5.22694e-06
5.2271e-06
5.22476e-06
5.22318e-06
5.22388e-06
5.22543e-06
5.22637e-06
5.22608e-06
5.22532e-06
5.21348e-06
5.21898e-06
5.21829e-06
5.21925e-06
5.22382e-06
5.22675e-06
5.22588e-06
5.2234e-06
5.2227e-06
5.22391e-06
5.22532e-06
5.22563e-06
5.22442e-06
5.22201e-06
5.22049e-06
5.21318e-06
5.21784e-06
5.21725e-06
5.21959e-06
5.22427e-06
5.22625e-06
5.22456e-06
5.22233e-06
5.22249e-06
5.22395e-06
5.22495e-06
5.2245e-06
5.2226e-06
5.21974e-06
5.21647e-06
5.21517e-06
5.21285e-06
5.21674e-06
5.21649e-06
5.22e-06
5.22455e-06
5.22551e-06
5.22325e-06
5.2216e-06
5.22241e-06
5.22387e-06
5.2243e-06
5.2231e-06
5.22057e-06
5.21746e-06
5.21451e-06
5.21202e-06
5.2117e-06
5.21249e-06
5.2157e-06
5.21603e-06
5.22048e-06
5.2246e-06
5.22456e-06
5.22206e-06
5.2212e-06
5.2224e-06
5.22361e-06
5.22338e-06
5.22149e-06
5.21854e-06
5.21536e-06
5.21271e-06
5.21111e-06
5.21044e-06
5.21104e-06
5.2121e-06
5.21475e-06
5.21587e-06
5.22097e-06
5.22443e-06
5.2235e-06
5.22106e-06
5.22098e-06
5.22238e-06
5.22315e-06
5.22223e-06
5.21979e-06
5.2166e-06
5.21357e-06
5.2114e-06
5.21046e-06
5.21068e-06
5.21144e-06
5.2125e-06
5.21169e-06
5.21392e-06
5.216e-06
5.22141e-06
5.22406e-06
5.2224e-06
5.2203e-06
5.22087e-06
5.22225e-06
5.22248e-06
5.22093e-06
5.21806e-06
5.21482e-06
5.21211e-06
5.21056e-06
5.21031e-06
5.211e-06
5.21236e-06
5.21388e-06
5.21503e-06
5.21127e-06
5.21322e-06
5.21635e-06
5.22175e-06
5.2235e-06
5.22133e-06
5.21981e-06
5.22082e-06
5.222e-06
5.22165e-06
5.21953e-06
5.2164e-06
5.21327e-06
5.21103e-06
5.21014e-06
5.21047e-06
5.21161e-06
5.21317e-06
5.21497e-06
5.21674e-06
5.21785e-06
5.21084e-06
5.21267e-06
5.21676e-06
5.22196e-06
5.2228e-06
5.22035e-06
5.21955e-06
5.22077e-06
5.22161e-06
5.22067e-06
5.21811e-06
5.21486e-06
5.21199e-06
5.2103e-06
5.21005e-06
5.21086e-06
5.21233e-06
5.2141e-06
5.21593e-06
5.21778e-06
5.21952e-06
5.22056e-06
5.21041e-06
5.21227e-06
5.21719e-06
5.22202e-06
5.22199e-06
5.2195e-06
5.21935e-06
5.22067e-06
5.22107e-06
5.21959e-06
5.2167e-06
5.21348e-06
5.21099e-06
5.20991e-06
5.2102e-06
5.21141e-06
5.2131e-06
5.21499e-06
5.21689e-06
5.21871e-06
5.22045e-06
5.22206e-06
5.22304e-06
5.20999e-06
5.21203e-06
5.21762e-06
5.22192e-06
5.22112e-06
5.21882e-06
5.21922e-06
5.22049e-06
5.22041e-06
5.21846e-06
5.21537e-06
5.2123e-06
5.21027e-06
5.20979e-06
5.21053e-06
5.21203e-06
5.21389e-06
5.21584e-06
5.21776e-06
5.21958e-06
5.22127e-06
5.22286e-06
5.22432e-06
5.22526e-06
5.20957e-06
5.21195e-06
5.21804e-06
5.22169e-06
5.22024e-06
5.21832e-06
5.21913e-06
5.22022e-06
5.21965e-06
5.2173e-06
5.21413e-06
5.21132e-06
5.20981e-06
5.20985e-06
5.21098e-06
5.21269e-06
5.21465e-06
5.21664e-06
5.21855e-06
5.22034e-06
5.22201e-06
5.22355e-06
5.22502e-06
5.22634e-06
5.22726e-06
5.20919e-06
5.21203e-06
5.21842e-06
5.22133e-06
5.21939e-06
5.218e-06
5.21905e-06
5.21985e-06
5.21881e-06
5.21616e-06
5.21302e-06
5.21055e-06
5.20958e-06
5.21007e-06
5.21149e-06
5.21336e-06
5.21537e-06
5.21737e-06
5.21925e-06
5.22102e-06
5.22266e-06
5.22419e-06
5.2256e-06
5.22696e-06
5.22816e-06
5.22907e-06
5.20883e-06
5.21227e-06
5.21874e-06
5.22085e-06
5.21859e-06
5.21778e-06
5.21895e-06
5.2194e-06
5.21793e-06
5.21507e-06
5.21204e-06
5.20997e-06
5.20952e-06
5.21038e-06
5.21203e-06
5.214e-06
5.21605e-06
5.21803e-06
5.21988e-06
5.22161e-06
5.22322e-06
5.22472e-06
5.22613e-06
5.22744e-06
5.22872e-06
5.22983e-06
5.23072e-06
5.20851e-06
5.21263e-06
5.21898e-06
5.2203e-06
5.21788e-06
5.2176e-06
5.21881e-06
5.21888e-06
5.21703e-06
5.21405e-06
5.21121e-06
5.20958e-06
5.20958e-06
5.21076e-06
5.21257e-06
5.21462e-06
5.21667e-06
5.21862e-06
5.22044e-06
5.22214e-06
5.22371e-06
5.22519e-06
5.22658e-06
5.22789e-06
5.22912e-06
5.23034e-06
5.23136e-06
5.23225e-06
5.20824e-06
5.21307e-06
5.21913e-06
5.21968e-06
5.21728e-06
5.21746e-06
5.21861e-06
5.2183e-06
5.21614e-06
5.21311e-06
5.21052e-06
5.20935e-06
5.20975e-06
5.21118e-06
5.21311e-06
5.21519e-06
5.21723e-06
5.21915e-06
5.22093e-06
5.22259e-06
5.22414e-06
5.2256e-06
5.22697e-06
5.22827e-06
5.22951e-06
5.23067e-06
5.23184e-06
5.2328e-06
5.23368e-06
5.20801e-06
5.21349e-06
5.21918e-06
5.21902e-06
5.21679e-06
5.21735e-06
5.21836e-06
5.21767e-06
5.21526e-06
5.21227e-06
5.20998e-06
5.20926e-06
5.21e-06
5.21162e-06
5.21363e-06
5.21572e-06
5.21773e-06
5.21962e-06
5.22136e-06
5.22299e-06
5.22451e-06
5.22595e-06
5.22731e-06
5.2286e-06
5.22983e-06
5.23101e-06
5.23211e-06
5.23324e-06
5.23414e-06
5.23501e-06
5.20784e-06
5.2139e-06
5.21913e-06
5.21835e-06
5.21642e-06
5.21725e-06
5.21805e-06
5.21701e-06
5.21443e-06
5.21153e-06
5.20957e-06
5.20927e-06
5.2103e-06
5.21207e-06
5.21413e-06
5.2162e-06
5.21819e-06
5.22003e-06
5.22174e-06
5.22334e-06
5.22484e-06
5.22625e-06
5.2276e-06
5.22888e-06
5.23011e-06
5.23128e-06
5.23241e-06
5.23347e-06
5.23455e-06
5.2354e-06
5.23626e-06
5.20772e-06
5.21429e-06
5.21899e-06
5.21768e-06
5.21617e-06
5.21715e-06
5.21769e-06
5.21633e-06
5.21364e-06
5.21089e-06
5.20928e-06
5.20936e-06
5.21063e-06
5.21251e-06
5.21459e-06
5.21665e-06
5.21859e-06
5.22039e-06
5.22207e-06
5.22364e-06
5.22512e-06
5.22652e-06
5.22785e-06
5.22913e-06
5.23035e-06
5.23152e-06
5.23264e-06
5.23373e-06
5.23473e-06
5.23578e-06
5.23658e-06
5.23744e-06
5.20766e-06
5.21467e-06
5.21878e-06
5.21705e-06
5.21597e-06
5.21703e-06
5.21729e-06
5.21566e-06
5.21291e-06
5.21034e-06
5.2091e-06
5.2095e-06
5.21097e-06
5.21294e-06
5.21502e-06
5.21705e-06
5.21895e-06
5.22071e-06
5.22236e-06
5.2239e-06
5.22536e-06
5.22675e-06
5.22807e-06
5.22934e-06
5.23056e-06
5.23172e-06
5.23285e-06
5.23392e-06
5.23496e-06
5.23592e-06
5.23693e-06
5.23769e-06
5.23854e-06
5.20766e-06
5.21501e-06
5.21849e-06
5.21645e-06
5.21579e-06
5.21688e-06
5.21686e-06
5.21499e-06
5.21223e-06
5.20989e-06
5.20901e-06
5.20969e-06
5.21132e-06
5.21334e-06
5.21542e-06
5.21741e-06
5.21927e-06
5.221e-06
5.22261e-06
5.22413e-06
5.22557e-06
5.22694e-06
5.22826e-06
5.22952e-06
5.23073e-06
5.23189e-06
5.23301e-06
5.23408e-06
5.23511e-06
5.23611e-06
5.23704e-06
5.23802e-06
5.23873e-06
5.23958e-06
5.20773e-06
5.21533e-06
5.21814e-06
5.21591e-06
5.21565e-06
5.2167e-06
5.2164e-06
5.21435e-06
5.21162e-06
5.20952e-06
5.20899e-06
5.20991e-06
5.21166e-06
5.21372e-06
5.21579e-06
5.21774e-06
5.21956e-06
5.22125e-06
5.22283e-06
5.22433e-06
5.22575e-06
5.22711e-06
5.22842e-06
5.22967e-06
5.23087e-06
5.23203e-06
5.23314e-06
5.23421e-06
5.23524e-06
5.23623e-06
5.23719e-06
5.23808e-06
5.23903e-06
5.2397e-06
5.24055e-06
5.20786e-06
5.2156e-06
5.21775e-06
5.21543e-06
5.21552e-06
5.2165e-06
5.21593e-06
5.21373e-06
5.21107e-06
5.20923e-06
5.20902e-06
5.21015e-06
5.21199e-06
5.21407e-06
5.21612e-06
5.21804e-06
5.21981e-06
5.22147e-06
5.22302e-06
5.2245e-06
5.22591e-06
5.22726e-06
5.22855e-06
5.22979e-06
5.23099e-06
5.23214e-06
5.23325e-06
5.23431e-06
5.23534e-06
5.23633e-06
5.23728e-06
5.23821e-06
5.23907e-06
5.23999e-06
5.24062e-06
5.24147e-06
5.20806e-06
5.21584e-06
5.21732e-06
5.21502e-06
5.2154e-06
5.21627e-06
5.21545e-06
5.21315e-06
5.21059e-06
5.20902e-06
5.2091e-06
5.21041e-06
5.21232e-06
5.21439e-06
5.21641e-06
5.2183e-06
5.22004e-06
5.22166e-06
5.22319e-06
5.22464e-06
5.22604e-06
5.22738e-06
5.22866e-06
5.22989e-06
5.23108e-06
5.23222e-06
5.23332e-06
5.23439e-06
5.23541e-06
5.2364e-06
5.23735e-06
5.23827e-06
5.23916e-06
5.23999e-06
5.24088e-06
5.24149e-06
5.24233e-06
5.20834e-06
5.21602e-06
5.21686e-06
5.21467e-06
5.2153e-06
5.21601e-06
5.21497e-06
5.2126e-06
5.21017e-06
5.20887e-06
5.20921e-06
5.21067e-06
5.21262e-06
5.21469e-06
5.21668e-06
5.21853e-06
5.22024e-06
5.22184e-06
5.22334e-06
5.22478e-06
5.22615e-06
5.22747e-06
5.22875e-06
5.22997e-06
5.23115e-06
5.23229e-06
5.23338e-06
5.23443e-06
5.23545e-06
5.23644e-06
5.23739e-06
5.2383e-06
5.23919e-06
5.24005e-06
5.24085e-06
5.24173e-06
5.2423e-06
5.24314e-06
5.20872e-06
5.21616e-06
5.21638e-06
5.2144e-06
5.2152e-06
5.21574e-06
5.2145e-06
5.2121e-06
5.20981e-06
5.20878e-06
5.20935e-06
5.21093e-06
5.21292e-06
5.21497e-06
5.21692e-06
5.21873e-06
5.22042e-06
5.22199e-06
5.22347e-06
5.22489e-06
5.22625e-06
5.22756e-06
5.22882e-06
5.23003e-06
5.2312e-06
5.23233e-06
5.23341e-06
5.23446e-06
5.23547e-06
5.23645e-06
5.2374e-06
5.23831e-06
5.2392e-06
5.24006e-06
5.2409e-06
5.24167e-06
5.24252e-06
5.24307e-06
5.24391e-06
5.20922e-06
5.21623e-06
5.21591e-06
5.2142e-06
5.21509e-06
5.21545e-06
5.21404e-06
5.21163e-06
5.2095e-06
5.20874e-06
5.20951e-06
5.21118e-06
5.21319e-06
5.21522e-06
5.21713e-06
5.21891e-06
5.22057e-06
5.22212e-06
5.22359e-06
5.22499e-06
5.22633e-06
5.22762e-06
5.22887e-06
5.23007e-06
5.23123e-06
5.23235e-06
5.23343e-06
5.23447e-06
5.23547e-06
5.23645e-06
5.23739e-06
5.2383e-06
5.23919e-06
5.24005e-06
5.24088e-06
5.24169e-06
5.24244e-06
5.24327e-06
5.24379e-06
5.24463e-06
5.20969e-06
5.21625e-06
5.21543e-06
5.21404e-06
5.21497e-06
5.21514e-06
5.21359e-06
5.2112e-06
5.20924e-06
5.20873e-06
5.20968e-06
5.21143e-06
5.21345e-06
5.21545e-06
5.21733e-06
5.21907e-06
5.2207e-06
5.22223e-06
5.22368e-06
5.22507e-06
5.2264e-06
5.22768e-06
5.22891e-06
5.2301e-06
5.23125e-06
5.23236e-06
5.23343e-06
5.23446e-06
5.23546e-06
5.23642e-06
5.23736e-06
5.23827e-06
5.23915e-06
5.24001e-06
5.24084e-06
5.24165e-06
5.24244e-06
5.24317e-06
5.24398e-06
5.24447e-06
5.24531e-06
5.21002e-06
5.21619e-06
5.21498e-06
5.21388e-06
5.21483e-06
5.21482e-06
5.21316e-06
5.21081e-06
5.20903e-06
5.20876e-06
5.20986e-06
5.21167e-06
5.2137e-06
5.21567e-06
5.21751e-06
5.21921e-06
5.22081e-06
5.22232e-06
5.22376e-06
5.22514e-06
5.22646e-06
5.22772e-06
5.22894e-06
5.23011e-06
5.23125e-06
5.23235e-06
5.23341e-06
5.23443e-06
5.23542e-06
5.23638e-06
5.23732e-06
5.23822e-06
5.2391e-06
5.23995e-06
5.24078e-06
5.24159e-06
5.24237e-06
5.24314e-06
5.24385e-06
5.24465e-06
5.24512e-06
5.24596e-06
5.21035e-06
5.21608e-06
5.21454e-06
5.21373e-06
5.21468e-06
5.2145e-06
5.21275e-06
5.21046e-06
5.20885e-06
5.2088e-06
5.21004e-06
5.2119e-06
5.21392e-06
5.21587e-06
5.21767e-06
5.21934e-06
5.22091e-06
5.2224e-06
5.22383e-06
5.22519e-06
5.2265e-06
5.22775e-06
5.22896e-06
5.23012e-06
5.23124e-06
5.23232e-06
5.23337e-06
5.23439e-06
5.23537e-06
5.23633e-06
5.23725e-06
5.23815e-06
5.23903e-06
5.23988e-06
5.24071e-06
5.24151e-06
5.2423e-06
5.24306e-06
5.24381e-06
5.2445e-06
5.24528e-06
5.24573e-06
5.24657e-06
5.21064e-06
5.21593e-06
5.21413e-06
5.2136e-06
5.21452e-06
5.21418e-06
5.21235e-06
5.21014e-06
5.20872e-06
5.20887e-06
5.21022e-06
5.21212e-06
5.21412e-06
5.21604e-06
5.21782e-06
5.21946e-06
5.221e-06
5.22247e-06
5.22388e-06
5.22523e-06
5.22653e-06
5.22777e-06
5.22897e-06
5.23011e-06
5.23122e-06
5.23229e-06
5.23333e-06
5.23434e-06
5.23531e-06
5.23626e-06
5.23718e-06
5.23807e-06
5.23894e-06
5.23979e-06
5.24062e-06
5.24142e-06
5.2422e-06
5.24297e-06
5.24371e-06
5.24444e-06
5.24511e-06
5.24588e-06
5.24631e-06
5.24714e-06
5.2109e-06
5.21573e-06
5.21374e-06
5.21347e-06
5.21436e-06
5.21385e-06
5.21198e-06
5.20985e-06
5.20862e-06
5.20895e-06
5.2104e-06
5.21232e-06
5.21431e-06
5.2162e-06
5.21795e-06
5.21957e-06
5.22109e-06
5.22253e-06
5.22392e-06
5.22526e-06
5.22654e-06
5.22778e-06
5.22896e-06
5.2301e-06
5.23119e-06
5.23225e-06
5.23327e-06
5.23427e-06
5.23524e-06
5.23618e-06
5.23709e-06
5.23798e-06
5.23885e-06
5.23969e-06
5.24051e-06
5.24131e-06
5.24209e-06
5.24285e-06
5.2436e-06
5.24432e-06
5.24504e-06
5.24569e-06
5.24645e-06
5.24686e-06
5.24769e-06
5.21114e-06
5.21551e-06
5.21339e-06
5.21336e-06
5.21418e-06
5.21354e-06
5.21164e-06
5.20959e-06
5.20854e-06
5.20905e-06
5.21058e-06
5.21251e-06
5.21448e-06
5.21634e-06
5.21806e-06
5.21966e-06
5.22116e-06
5.22259e-06
5.22396e-06
5.22528e-06
5.22655e-06
5.22777e-06
5.22894e-06
5.23007e-06
5.23115e-06
5.2322e-06
5.23321e-06
5.2342e-06
5.23516e-06
5.23609e-06
5.237e-06
5.23788e-06
5.23874e-06
5.23957e-06
5.24039e-06
5.24119e-06
5.24196e-06
5.24272e-06
5.24347e-06
5.24419e-06
5.2449e-06
5.2456e-06
5.24624e-06
5.24698e-06
5.24737e-06
5.24821e-06
5.21135e-06
5.21525e-06
5.21307e-06
5.21326e-06
5.214e-06
5.21324e-06
5.21132e-06
5.20936e-06
5.2085e-06
5.20916e-06
5.21075e-06
5.21269e-06
5.21464e-06
5.21647e-06
5.21816e-06
5.21974e-06
5.22122e-06
5.22264e-06
5.22399e-06
5.22529e-06
5.22654e-06
5.22775e-06
5.22892e-06
5.23003e-06
5.23111e-06
5.23215e-06
5.23315e-06
5.23412e-06
5.23507e-06
5.23599e-06
5.23689e-06
5.23776e-06
5.23862e-06
5.23945e-06
5.24026e-06
5.24105e-06
5.24182e-06
5.24258e-06
5.24332e-06
5.24405e-06
5.24476e-06
5.24545e-06
5.24613e-06
5.24675e-06
5.24749e-06
5.24786e-06
5.2487e-06
5.21153e-06
5.21498e-06
5.21279e-06
5.21316e-06
5.21382e-06
5.21295e-06
5.21102e-06
5.20916e-06
5.20848e-06
5.20927e-06
5.21093e-06
5.21287e-06
5.21479e-06
5.21658e-06
5.21825e-06
5.2198e-06
5.22128e-06
5.22268e-06
5.22402e-06
5.2253e-06
5.22654e-06
5.22773e-06
5.22888e-06
5.22999e-06
5.23105e-06
5.23208e-06
5.23307e-06
5.23404e-06
5.23497e-06
5.23588e-06
5.23677e-06
5.23764e-06
5.23849e-06
5.23931e-06
5.24012e-06
5.2409e-06
5.24167e-06
5.24243e-06
5.24316e-06
5.24389e-06
5.24459e-06
5.24529e-06
5.24596e-06
5.24663e-06
5.24724e-06
5.24797e-06
5.24833e-06
5.24916e-06
5.21169e-06
5.21469e-06
5.21255e-06
5.21306e-06
5.21363e-06
5.21267e-06
5.21074e-06
5.20899e-06
5.20848e-06
5.20939e-06
5.21109e-06
5.21303e-06
5.21492e-06
5.21669e-06
5.21832e-06
5.21986e-06
5.22132e-06
5.22271e-06
5.22404e-06
5.22531e-06
5.22653e-06
5.2277e-06
5.22884e-06
5.22993e-06
5.23099e-06
5.23201e-06
5.233e-06
5.23395e-06
5.23487e-06
5.23577e-06
5.23665e-06
5.23751e-06
5.23835e-06
5.23917e-06
5.23997e-06
5.24075e-06
5.24151e-06
5.24226e-06
5.24299e-06
5.24371e-06
5.24442e-06
5.24511e-06
5.24579e-06
5.24645e-06
5.24711e-06
5.24771e-06
5.24842e-06
5.24877e-06
5.2496e-06
5.21182e-06
5.2144e-06
5.21234e-06
5.21297e-06
5.21344e-06
5.21239e-06
5.21049e-06
5.20884e-06
5.20849e-06
5.20951e-06
5.21125e-06
5.21318e-06
5.21505e-06
5.21678e-06
5.21839e-06
5.21991e-06
5.22135e-06
5.22273e-06
5.22405e-06
5.22531e-06
5.22651e-06
5.22767e-06
5.22879e-06
5.22987e-06
5.23092e-06
5.23193e-06
5.23291e-06
5.23385e-06
5.23477e-06
5.23566e-06
5.23653e-06
5.23738e-06
5.23821e-06
5.23902e-06
5.23981e-06
5.24059e-06
5.24134e-06
5.24209e-06
5.24282e-06
5.24353e-06
5.24423e-06
5.24492e-06
5.2456e-06
5.24626e-06
5.24691e-06
5.24756e-06
5.24815e-06
5.24885e-06
5.24919e-06
5.25002e-06
5.21193e-06
5.2141e-06
5.21218e-06
5.21287e-06
5.21324e-06
5.21213e-06
5.21026e-06
5.20872e-06
5.20852e-06
5.20963e-06
5.2114e-06
5.21332e-06
5.21516e-06
5.21687e-06
5.21846e-06
5.21996e-06
5.22138e-06
5.22274e-06
5.22405e-06
5.2253e-06
5.2265e-06
5.22764e-06
5.22874e-06
5.22981e-06
5.23084e-06
5.23184e-06
5.23281e-06
5.23375e-06
5.23466e-06
5.23554e-06
5.2364e-06
5.23724e-06
5.23806e-06
5.23886e-06
5.23965e-06
5.24041e-06
5.24117e-06
5.2419e-06
5.24263e-06
5.24334e-06
5.24404e-06
5.24472e-06
5.2454e-06
5.24606e-06
5.24671e-06
5.24735e-06
5.24798e-06
5.24856e-06
5.24926e-06
5.24958e-06
5.25041e-06
5.21202e-06
5.21379e-06
5.21204e-06
5.21277e-06
5.21305e-06
5.21188e-06
5.21004e-06
5.20861e-06
5.20855e-06
5.20975e-06
5.21154e-06
5.21345e-06
5.21527e-06
5.21695e-06
5.21852e-06
5.22e-06
5.2214e-06
5.22275e-06
5.22405e-06
5.22529e-06
5.22647e-06
5.22761e-06
5.22869e-06
5.22974e-06
5.23076e-06
5.23175e-06
5.23271e-06
5.23364e-06
5.23454e-06
5.23542e-06
5.23627e-06
5.23709e-06
5.2379e-06
5.2387e-06
5.23948e-06
5.24024e-06
5.24098e-06
5.24172e-06
5.24243e-06
5.24314e-06
5.24383e-06
5.24451e-06
5.24519e-06
5.24585e-06
5.2465e-06
5.24714e-06
5.24776e-06
5.24839e-06
5.24895e-06
5.24965e-06
5.24996e-06
5.25079e-06
5.21209e-06
5.21348e-06
5.2119e-06
5.21266e-06
5.21285e-06
5.21164e-06
5.20984e-06
5.20851e-06
5.20859e-06
5.20986e-06
5.21167e-06
5.21357e-06
5.21536e-06
5.21702e-06
5.21857e-06
5.22003e-06
5.22142e-06
5.22276e-06
5.22404e-06
5.22526e-06
5.22644e-06
5.22757e-06
5.22864e-06
5.22968e-06
5.23068e-06
5.23166e-06
5.23261e-06
5.23353e-06
5.23442e-06
5.23529e-06
5.23613e-06
5.23695e-06
5.23775e-06
5.23853e-06
5.2393e-06
5.24006e-06
5.2408e-06
5.24152e-06
5.24223e-06
5.24293e-06
5.24362e-06
5.2443e-06
5.24497e-06
5.24562e-06
5.24627e-06
5.24691e-06
5.24754e-06
5.24815e-06
5.24877e-06
5.24933e-06
5.25001e-06
5.25031e-06
5.25114e-06
5.21213e-06
5.21317e-06
5.21176e-06
5.21255e-06
5.21266e-06
5.21141e-06
5.20965e-06
5.20844e-06
5.20864e-06
5.20998e-06
5.21179e-06
5.21367e-06
5.21545e-06
5.21709e-06
5.21862e-06
5.22006e-06
5.22144e-06
5.22276e-06
5.22402e-06
5.22524e-06
5.2264e-06
5.22752e-06
5.22859e-06
5.22962e-06
5.23061e-06
5.23157e-06
5.2325e-06
5.23341e-06
5.2343e-06
5.23516e-06
5.23599e-06
5.2368e-06
5.23759e-06
5.23837e-06
5.23912e-06
5.23987e-06
5.2406e-06
5.24132e-06
5.24203e-06
5.24272e-06
5.2434e-06
5.24407e-06
5.24474e-06
5.24539e-06
5.24604e-06
5.24667e-06
5.2473e-06
5.24792e-06
5.24852e-06
5.24913e-06
5.24968e-06
5.25036e-06
5.25065e-06
5.25148e-06
5.21216e-06
5.21287e-06
5.21164e-06
5.21244e-06
5.21247e-06
5.2112e-06
5.20948e-06
5.20837e-06
5.20869e-06
5.21009e-06
5.21191e-06
5.21377e-06
5.21552e-06
5.21714e-06
5.21866e-06
5.22009e-06
5.22146e-06
5.22276e-06
5.22401e-06
5.22521e-06
5.22636e-06
5.22747e-06
5.22853e-06
5.22955e-06
5.23053e-06
5.23148e-06
5.2324e-06
5.23329e-06
5.23417e-06
5.23502e-06
5.23585e-06
5.23665e-06
5.23743e-06
5.2382e-06
5.23895e-06
5.23968e-06
5.2404e-06
5.24112e-06
5.24182e-06
5.2425e-06
5.24318e-06
5.24385e-06
5.2445e-06
5.24515e-06
5.24579e-06
5.24643e-06
5.24705e-06
5.24767e-06
5.24828e-06
5.24887e-06
5.24947e-06
5.25001e-06
5.25069e-06
5.25097e-06
5.2518e-06
5.21217e-06
5.21257e-06
5.21152e-06
5.21233e-06
5.21228e-06
5.21099e-06
5.20932e-06
5.20832e-06
5.20875e-06
5.2102e-06
5.21202e-06
5.21386e-06
5.21559e-06
5.21719e-06
5.21869e-06
5.22011e-06
5.22147e-06
5.22276e-06
5.22399e-06
5.22518e-06
5.22631e-06
5.22741e-06
5.22846e-06
5.22947e-06
5.23045e-06
5.23138e-06
5.23229e-06
5.23318e-06
5.23404e-06
5.23488e-06
5.2357e-06
5.2365e-06
5.23727e-06
5.23803e-06
5.23877e-06
5.23949e-06
5.24021e-06
5.24091e-06
5.2416e-06
5.24228e-06
5.24295e-06
5.24361e-06
5.24427e-06
5.24491e-06
5.24555e-06
5.24618e-06
5.2468e-06
5.24741e-06
5.24802e-06
5.24862e-06
5.24921e-06
5.2498e-06
5.25033e-06
5.251e-06
5.25127e-06
5.2521e-06
5.21216e-06
5.21228e-06
5.2114e-06
5.21222e-06
5.21211e-06
5.2108e-06
5.20917e-06
5.20828e-06
5.20881e-06
5.2103e-06
5.21213e-06
5.21395e-06
5.21565e-06
5.21723e-06
5.21872e-06
5.22013e-06
5.22147e-06
5.22275e-06
5.22398e-06
5.22515e-06
5.22627e-06
5.22735e-06
5.22839e-06
5.22939e-06
5.23036e-06
5.23129e-06
5.23219e-06
5.23306e-06
5.23391e-06
5.23474e-06
5.23555e-06
5.23634e-06
5.23711e-06
5.23786e-06
5.23859e-06
5.2393e-06
5.24001e-06
5.2407e-06
5.24138e-06
5.24206e-06
5.24272e-06
5.24338e-06
5.24403e-06
5.24466e-06
5.24529e-06
5.24592e-06
5.24654e-06
5.24715e-06
5.24776e-06
5.24835e-06
5.24895e-06
5.24952e-06
5.25011e-06
5.25063e-06
5.2513e-06
5.25156e-06
5.25239e-06
5.21214e-06
5.212e-06
5.21129e-06
5.21212e-06
5.21194e-06
5.21062e-06
5.20904e-06
5.20825e-06
5.20888e-06
5.21041e-06
5.21223e-06
5.21403e-06
5.21571e-06
5.21727e-06
5.21874e-06
5.22014e-06
5.22147e-06
5.22274e-06
5.22396e-06
5.22512e-06
5.22623e-06
5.22729e-06
5.22832e-06
5.22931e-06
5.23027e-06
5.2312e-06
5.23209e-06
5.23295e-06
5.23378e-06
5.2346e-06
5.2354e-06
5.23618e-06
5.23694e-06
5.23768e-06
5.23841e-06
5.23911e-06
5.23981e-06
5.24049e-06
5.24117e-06
5.24183e-06
5.24249e-06
5.24314e-06
5.24378e-06
5.24441e-06
5.24504e-06
5.24566e-06
5.24627e-06
5.24688e-06
5.24748e-06
5.24808e-06
5.24867e-06
5.24925e-06
5.24982e-06
5.2504e-06
5.25092e-06
5.25158e-06
5.25184e-06
5.25266e-06
5.2121e-06
5.21173e-06
5.21119e-06
5.21201e-06
5.21178e-06
5.21046e-06
5.20892e-06
5.20823e-06
5.20895e-06
5.21051e-06
5.21233e-06
5.21411e-06
5.21577e-06
5.21731e-06
5.21876e-06
5.22015e-06
5.22146e-06
5.22273e-06
5.22393e-06
5.22508e-06
5.22618e-06
5.22723e-06
5.22825e-06
5.22923e-06
5.23018e-06
5.2311e-06
5.23198e-06
5.23283e-06
5.23366e-06
5.23446e-06
5.23525e-06
5.23602e-06
5.23677e-06
5.23751e-06
5.23823e-06
5.23893e-06
5.23961e-06
5.24028e-06
5.24095e-06
5.24161e-06
5.24226e-06
5.2429e-06
5.24354e-06
5.24416e-06
5.24478e-06
5.24539e-06
5.246e-06
5.24661e-06
5.2472e-06
5.2478e-06
5.24839e-06
5.24897e-06
5.24954e-06
5.25011e-06
5.25068e-06
5.25119e-06
5.25185e-06
5.2521e-06
5.25292e-06
5.21205e-06
5.21147e-06
5.21109e-06
5.2119e-06
5.21162e-06
5.2103e-06
5.20882e-06
5.20822e-06
5.20902e-06
5.2106e-06
5.21242e-06
5.21418e-06
5.21582e-06
5.21734e-06
5.21878e-06
5.22015e-06
5.22146e-06
5.22271e-06
5.2239e-06
5.22504e-06
5.22613e-06
5.22718e-06
5.22818e-06
5.22915e-06
5.23009e-06
5.23099e-06
5.23187e-06
5.23272e-06
5.23354e-06
5.23433e-06
5.2351e-06
5.23586e-06
5.2366e-06
5.23733e-06
5.23804e-06
5.23873e-06
5.23941e-06
5.24008e-06
5.24073e-06
5.24138e-06
5.24203e-06
5.24266e-06
5.24329e-06
5.24391e-06
5.24452e-06
5.24513e-06
5.24573e-06
5.24633e-06
5.24692e-06
5.24751e-06
5.2481e-06
5.24868e-06
5.24925e-06
5.24982e-06
5.25038e-06
5.25094e-06
5.25145e-06
5.2521e-06
5.25235e-06
5.25317e-06
5.212e-06
5.21122e-06
5.21099e-06
5.2118e-06
5.21147e-06
5.21015e-06
5.20872e-06
5.20822e-06
5.20908e-06
5.21069e-06
5.2125e-06
5.21424e-06
5.21586e-06
5.21737e-06
5.2188e-06
5.22016e-06
5.22145e-06
5.22269e-06
5.22387e-06
5.225e-06
5.22608e-06
5.22712e-06
5.22811e-06
5.22907e-06
5.22999e-06
5.23089e-06
5.23176e-06
5.2326e-06
5.23341e-06
5.2342e-06
5.23496e-06
5.2357e-06
5.23643e-06
5.23715e-06
5.23785e-06
5.23854e-06
5.23922e-06
5.23987e-06
5.24052e-06
5.24116e-06
5.24179e-06
5.24242e-06
5.24304e-06
5.24365e-06
5.24426e-06
5.24486e-06
5.24546e-06
5.24605e-06
5.24664e-06
5.24722e-06
5.2478e-06
5.24838e-06
5.24895e-06
5.24952e-06
5.25008e-06
5.25064e-06
5.2512e-06
5.2517e-06
5.25235e-06
5.25258e-06
5.2534e-06
5.21192e-06
5.21099e-06
5.2109e-06
5.21169e-06
5.21132e-06
5.21001e-06
5.20863e-06
5.20822e-06
5.20915e-06
5.21078e-06
5.21257e-06
5.2143e-06
5.21591e-06
5.2174e-06
5.21882e-06
5.22016e-06
5.22144e-06
5.22267e-06
5.22384e-06
5.22496e-06
5.22603e-06
5.22706e-06
5.22804e-06
5.22899e-06
5.2299e-06
5.23079e-06
5.23165e-06
5.23248e-06
5.23328e-06
5.23406e-06
5.23482e-06
5.23555e-06
5.23627e-06
5.23697e-06
5.23767e-06
5.23835e-06
5.23902e-06
5.23967e-06
5.24031e-06
5.24094e-06
5.24156e-06
5.24218e-06
5.24279e-06
5.2434e-06
5.244e-06
5.24459e-06
5.24518e-06
5.24577e-06
5.24635e-06
5.24693e-06
5.24751e-06
5.24808e-06
5.24865e-06
5.24922e-06
5.24978e-06
5.25033e-06
5.25088e-06
5.25143e-06
5.25193e-06
5.25258e-06
5.25281e-06
5.25363e-06
5.21185e-06
5.21077e-06
5.21081e-06
5.21158e-06
5.21118e-06
5.20988e-06
5.20855e-06
5.20823e-06
5.20922e-06
5.21086e-06
5.21265e-06
5.21436e-06
5.21594e-06
5.21743e-06
5.21883e-06
5.22016e-06
5.22143e-06
5.22265e-06
5.22381e-06
5.22492e-06
5.22598e-06
5.22699e-06
5.22797e-06
5.22891e-06
5.22981e-06
5.23069e-06
5.23154e-06
5.23236e-06
5.23316e-06
5.23393e-06
5.23468e-06
5.2354e-06
5.23611e-06
5.2368e-06
5.23748e-06
5.23815e-06
5.23881e-06
5.23946e-06
5.2401e-06
5.24072e-06
5.24133e-06
5.24194e-06
5.24254e-06
5.24314e-06
5.24374e-06
5.24433e-06
5.24491e-06
5.24549e-06
5.24607e-06
5.24664e-06
5.24721e-06
5.24778e-06
5.24834e-06
5.24891e-06
5.24947e-06
5.25002e-06
5.25057e-06
5.25111e-06
5.25166e-06
5.25215e-06
5.2528e-06
5.25302e-06
5.25384e-06
5.21176e-06
5.21057e-06
5.21073e-06
5.21148e-06
5.21105e-06
5.20975e-06
5.20847e-06
5.20824e-06
5.20928e-06
5.21094e-06
5.21271e-06
5.2144e-06
5.21598e-06
5.21745e-06
5.21884e-06
5.22016e-06
5.22142e-06
5.22263e-06
5.22378e-06
5.22487e-06
5.22592e-06
5.22693e-06
5.2279e-06
5.22883e-06
5.22973e-06
5.23059e-06
5.23143e-06
5.23224e-06
5.23303e-06
5.23379e-06
5.23453e-06
5.23525e-06
5.23595e-06
5.23663e-06
5.2373e-06
5.23796e-06
5.23861e-06
5.23925e-06
5.23988e-06
5.2405e-06
5.24111e-06
5.24171e-06
5.2423e-06
5.24289e-06
5.24348e-06
5.24406e-06
5.24464e-06
5.24521e-06
5.24578e-06
5.24634e-06
5.24691e-06
5.24747e-06
5.24803e-06
5.24859e-06
5.24915e-06
5.2497e-06
5.25025e-06
5.2508e-06
5.25133e-06
5.25188e-06
5.25237e-06
5.253e-06
5.25322e-06
5.25404e-06
5.21166e-06
5.21037e-06
5.21065e-06
5.21137e-06
5.21092e-06
5.20963e-06
5.2084e-06
5.20826e-06
5.20935e-06
5.21101e-06
5.21277e-06
5.21445e-06
5.21601e-06
5.21746e-06
5.21884e-06
5.22016e-06
5.22141e-06
5.22261e-06
5.22374e-06
5.22483e-06
5.22587e-06
5.22687e-06
5.22783e-06
5.22875e-06
5.22964e-06
5.23049e-06
5.23132e-06
5.23212e-06
5.2329e-06
5.23365e-06
5.23439e-06
5.2351e-06
5.23579e-06
5.23647e-06
5.23713e-06
5.23778e-06
5.23842e-06
5.23905e-06
5.23967e-06
5.24028e-06
5.24088e-06
5.24147e-06
5.24206e-06
5.24264e-06
5.24322e-06
5.24379e-06
5.24436e-06
5.24493e-06
5.24549e-06
5.24605e-06
5.24661e-06
5.24717e-06
5.24772e-06
5.24828e-06
5.24883e-06
5.24938e-06
5.24993e-06
5.25047e-06
5.25101e-06
5.25154e-06
5.25208e-06
5.25257e-06
5.2532e-06
5.25342e-06
5.25423e-06
5.21156e-06
5.21019e-06
5.21057e-06
5.21127e-06
5.21079e-06
5.20952e-06
5.20834e-06
5.20828e-06
5.20941e-06
5.21108e-06
5.21283e-06
5.21449e-06
5.21603e-06
5.21748e-06
5.21885e-06
5.22015e-06
5.2214e-06
5.22258e-06
5.22371e-06
5.22479e-06
5.22582e-06
5.22681e-06
5.22775e-06
5.22867e-06
5.22955e-06
5.2304e-06
5.23121e-06
5.23201e-06
5.23277e-06
5.23352e-06
5.23425e-06
5.23495e-06
5.23564e-06
5.2363e-06
5.23695e-06
5.23759e-06
5.23822e-06
5.23884e-06
5.23946e-06
5.24006e-06
5.24066e-06
5.24124e-06
5.24182e-06
5.24239e-06
5.24296e-06
5.24352e-06
5.24409e-06
5.24465e-06
5.2452e-06
5.24576e-06
5.24631e-06
5.24686e-06
5.24741e-06
5.24796e-06
5.24851e-06
5.24905e-06
5.2496e-06
5.25014e-06
5.25068e-06
5.25121e-06
5.25174e-06
5.25228e-06
5.25276e-06
5.25339e-06
5.2536e-06
5.25442e-06
5.21145e-06
5.21002e-06
5.2105e-06
5.21118e-06
5.21068e-06
5.20941e-06
5.20828e-06
5.2083e-06
5.20947e-06
5.21115e-06
5.21289e-06
5.21453e-06
5.21606e-06
5.21749e-06
5.21885e-06
5.22014e-06
5.22138e-06
5.22256e-06
5.22368e-06
5.22475e-06
5.22577e-06
5.22675e-06
5.22768e-06
5.22859e-06
5.22946e-06
5.2303e-06
5.23111e-06
5.23189e-06
5.23265e-06
5.23339e-06
5.2341e-06
5.2348e-06
5.23548e-06
5.23614e-06
5.23679e-06
5.23742e-06
5.23803e-06
5.23864e-06
5.23925e-06
5.23985e-06
5.24043e-06
5.24101e-06
5.24158e-06
5.24215e-06
5.2427e-06
5.24326e-06
5.24382e-06
5.24437e-06
5.24492e-06
5.24547e-06
5.24601e-06
5.24655e-06
5.2471e-06
5.24764e-06
5.24818e-06
5.24872e-06
5.24926e-06
5.2498e-06
5.25034e-06
5.25088e-06
5.25141e-06
5.25193e-06
5.25246e-06
5.25294e-06
5.25357e-06
5.25378e-06
5.25459e-06
5.21134e-06
5.20986e-06
5.21044e-06
5.21108e-06
5.21057e-06
5.20932e-06
5.20823e-06
5.20833e-06
5.20954e-06
5.21121e-06
5.21294e-06
5.21457e-06
5.21608e-06
5.2175e-06
5.21885e-06
5.22014e-06
5.22136e-06
5.22253e-06
5.22364e-06
5.2247e-06
5.22572e-06
5.22669e-06
5.22762e-06
5.22851e-06
5.22937e-06
5.2302e-06
5.23101e-06
5.23178e-06
5.23253e-06
5.23325e-06
5.23396e-06
5.23465e-06
5.23532e-06
5.23598e-06
5.23662e-06
5.23724e-06
5.23785e-06
5.23845e-06
5.23904e-06
5.23963e-06
5.24021e-06
5.24078e-06
5.24135e-06
5.24191e-06
5.24246e-06
5.243e-06
5.24355e-06
5.24409e-06
5.24463e-06
5.24518e-06
5.24571e-06
5.24625e-06
5.24679e-06
5.24732e-06
5.24786e-06
5.24839e-06
5.24893e-06
5.24947e-06
5.25e-06
5.25053e-06
5.25106e-06
5.25159e-06
5.25211e-06
5.25264e-06
5.25312e-06
5.25374e-06
5.25395e-06
5.25476e-06
5.21122e-06
5.20971e-06
5.21038e-06
5.21099e-06
5.21046e-06
5.20922e-06
5.20819e-06
5.20835e-06
5.20959e-06
5.21127e-06
5.21299e-06
5.2146e-06
5.2161e-06
5.21751e-06
5.21885e-06
5.22013e-06
5.22134e-06
5.2225e-06
5.2236e-06
5.22466e-06
5.22566e-06
5.22663e-06
5.22755e-06
5.22843e-06
5.22928e-06
5.23011e-06
5.2309e-06
5.23167e-06
5.23241e-06
5.23313e-06
5.23382e-06
5.2345e-06
5.23517e-06
5.23582e-06
5.23645e-06
5.23707e-06
5.23767e-06
5.23826e-06
5.23884e-06
5.23942e-06
5.23999e-06
5.24055e-06
5.24111e-06
5.24166e-06
5.24221e-06
5.24275e-06
5.24328e-06
5.24382e-06
5.24435e-06
5.24489e-06
5.24542e-06
5.24595e-06
5.24648e-06
5.24701e-06
5.24754e-06
5.24807e-06
5.2486e-06
5.24913e-06
5.24966e-06
5.25019e-06
5.25072e-06
5.25124e-06
5.25177e-06
5.25228e-06
5.25281e-06
5.25328e-06
5.25391e-06
5.2541e-06
5.25492e-06
5.2111e-06
5.20958e-06
5.21032e-06
5.2109e-06
5.21036e-06
5.20914e-06
5.20815e-06
5.20838e-06
5.20965e-06
5.21133e-06
5.21303e-06
5.21463e-06
5.21612e-06
5.21752e-06
5.21885e-06
5.22012e-06
5.22132e-06
5.22247e-06
5.22357e-06
5.22461e-06
5.22561e-06
5.22656e-06
5.22748e-06
5.22836e-06
5.2292e-06
5.23001e-06
5.2308e-06
5.23156e-06
5.23229e-06
5.233e-06
5.23369e-06
5.23436e-06
5.23502e-06
5.23566e-06
5.23628e-06
5.23689e-06
5.23749e-06
5.23807e-06
5.23865e-06
5.23921e-06
5.23977e-06
5.24033e-06
5.24088e-06
5.24143e-06
5.24196e-06
5.2425e-06
5.24302e-06
5.24355e-06
5.24407e-06
5.2446e-06
5.24512e-06