/*--------------------------------*- C++ -*----------------------------------*\
  =========                 |
  \\      /  F ield         | OpenFOAM: The Open Source CFD Toolbox
   \\    /   O peration     | Website:  https://openfoam.org
    \\  /    A nd           | Version:  7
     \\/     M anipulation  |
\*---------------------------------------------------------------------------*/
FoamFile
{
    version     2.0;
    format      ascii;
    class       volScalarField;
    location    "1800";
    object      p;
}
// * * * * * * * * * * * * * * * * * * * * * * * * * * * * * * * * * * * * * //

dimensions      [0 2 -2 0 0 0 0];

internalField   nonuniform List<scalar> 
23117
(
2.28799
6.47755
0.558603
9.88106
2.11331
0.649567
12.4578
4.25109
2.16605
0.765085
14.6072
6.05967
4.05039
2.38822
0.668103
16.4525
7.66829
5.72146
4.33218
2.03856
0.671899
18.0874
9.05393
7.29669
6.02286
3.88636
1.92371
0.695948
19.5603
10.2722
8.72828
7.6125
5.50851
3.72324
1.86987
0.702415
20.9046
11.3502
10.0442
9.06455
7.06
5.30116
3.65475
1.80439
0.701129
22.1412
12.3137
11.2545
10.4069
8.48986
6.83556
5.20323
3.571
1.76942
0.689364
23.2869
13.1811
12.3749
11.6466
9.8243
8.26344
6.72323
5.09428
3.51373
1.75534
0.670646
24.353
13.9666
13.4169
12.7961
11.0672
9.60969
8.14426
6.60214
5.01753
3.47479
1.74712
0.65417
25.3484
14.6811
14.3912
13.8646
12.2289
10.8743
9.49294
8.01732
6.5157
4.96421
3.4421
1.73912
0.64561
26.2808
15.3336
15.3058
14.861
13.3171
12.0656
10.767
9.36818
7.92753
6.45351
4.92114
3.4144
1.72781
0.645648
27.1551
15.9308
16.1677
15.7924
14.3392
13.1892
11.9738
10.6509
9.28187
7.86263
6.40281
4.88546
3.39023
1.71241
0.651689
27.9779
16.4789
16.9825
16.6649
15.3014
14.2511
13.1175
11.8722
10.5738
9.2199
7.81008
6.36086
4.85411
3.3679
1.69449
0.660119
28.7525
16.9819
17.7547
17.4836
16.2093
15.2562
14.2033
13.0354
11.8095
10.5199
9.17018
7.76682
6.32427
4.82434
3.34646
1.67589
0.668139
29.483
17.4443
18.4884
18.2531
17.0675
16.2091
15.2352
14.1448
12.9915
11.7681
10.4775
9.12955
7.72888
6.28992
4.79469
3.3252
1.65775
0.674458
30.1723
17.8694
19.1867
18.9771
17.8802
17.1137
16.2172
15.204
14.1234
12.9667
11.7373
10.4436
9.09371
7.69277
6.25584
4.76436
3.3035
1.64033
0.678977
30.8237
18.2603
19.8525
19.6586
18.6509
17.9733
17.1528
16.2162
15.2084
14.1189
12.9512
11.7138
10.4135
9.05903
7.65629
6.22074
4.73283
3.28091
1.62341
0.682168
31.4396
18.6196
20.488
20.3006
19.3824
18.791
18.0449
17.1845
16.2493
15.2272
14.1221
12.9416
11.6928
10.3834
9.02315
7.61796
6.18373
4.69973
3.25716
1.60655
0.684573
32.0222
18.9497
21.0955
20.9056
20.0776
19.5692
18.8962
18.1115
17.2486
16.2943
15.2524
14.1298
12.9331
11.6707
10.3511
8.98445
7.57677
6.14422
4.66479
3.23208
1.58941
0.686564
32.5739
19.2527
21.6767
21.4755
20.7387
20.3102
19.709
18.9993
18.2086
17.3223
16.3441
15.2803
14.137
12.9221
11.6449
10.3147
8.94181
7.53207
6.10186
4.62783
3.20562
1.57177
0.688331
33.0968
19.5305
22.2333
22.0125
21.368
21.016
20.4852
19.8499
19.131
18.3131
17.3993
16.3951
15.306
14.14
12.9059
11.6138
10.2731
8.89449
7.48346
6.05645
4.58874
3.1778
1.55356
0.689945
33.5927
19.7847
22.7667
22.5181
21.9671
21.6883
21.2268
20.665
20.0176
19.2684
18.4197
17.4759
16.4422
15.3261
14.1364
12.8828
11.5759
10.2255
8.84204
7.43073
6.00792
4.54752
3.14866
1.53478
0.691415
34.0632
20.0169
23.2782
22.994
22.5378
22.3287
21.9353
21.4461
20.8697
20.1893
19.4065
18.5243
17.5471
16.4822
15.3379
14.1243
12.8515
11.5306
10.1714
8.78425
7.37383
5.95632
4.50423
3.1183
1.51547
0.692755
34.5102
20.2287
23.769
23.4417
23.0815
22.9386
22.6122
22.1946
21.6885
21.077
20.3607
19.5413
18.6221
17.6096
16.5123
15.3396
14.1023
12.8112
11.4774
10.1106
8.72109
7.31283
5.90178
4.45899
3.08683
1.49568
0.693984
34.9349
20.4213
24.2402
23.8624
23.5996
23.519
23.2587
22.9117
22.4753
21.9326
21.2834
20.5277
19.668
18.7097
17.6607
16.5305
15.3297
14.0695
12.7612
11.4159
10.0432
8.65267
7.2479
5.84448
4.41197
3.05438
1.47548
0.695135
35.3391
20.5962
24.6929
24.2574
24.0934
24.0713
23.8761
23.5984
23.231
22.7569
22.1752
21.4844
20.6855
19.7832
18.7843
17.6982
16.5355
15.3073
14.0255
12.7014
11.3462
9.96913
8.57923
7.17931
5.78468
4.36336
3.02108
1.45493
0.696248
35.7238
20.7542
25.1279
24.628
24.564
24.5964
24.4652
24.2556
23.9564
23.5508
23.0368
22.4117
21.6752
20.8305
19.8839
18.8439
17.7207
16.5261
15.2717
13.9699
12.6319
11.2687
9.88885
8.5011
7.10737
5.72263
4.31338
2.98709
1.43408
0.697364
36.0905
20.8967
25.5462
24.9753
25.0124
25.0952
25.0272
24.8842
24.6524
24.315
23.8689
23.3102
22.6373
21.8522
20.9599
19.9681
18.8866
17.7271
16.5017
15.2229
13.9028
12.5529
11.1835
9.80273
8.41867
7.03243
5.65865
4.26225
2.95255
1.41299
0.698524
36.4403
21.0247
25.9485
25.3003
25.4399
25.5688
25.563
25.485
25.3196
25.05
24.672
24.1802
23.5722
22.8483
22.0125
21.0712
20.0338
18.9114
17.7166
16.4622
15.1608
13.8246
12.4648
11.0911
9.71124
8.33238
6.95486
5.59302
4.21018
2.91762
1.39171
0.699763
36.7744
21.1392
26.3356
25.6042
25.8472
26.0181
26.0734
26.0586
25.9587
25.7564
25.4464
25.0222
24.48
23.819
23.0417
22.1533
21.1625
20.0798
18.9176
17.6891
16.4075
15.0857
13.7357
12.3681
10.9922
9.61489
8.24267
6.87505
5.52605
4.15738
2.88242
1.37031
0.701121
37.0939
21.2411
26.7082
25.888
26.2355
26.444
26.5593
26.6058
26.5702
26.4345
26.1925
25.8363
25.3609
24.7643
24.0474
23.2145
22.2728
21.2324
20.1053
18.9047
17.6445
16.3381
14.9982
13.6367
12.2635
10.8874
9.51423
8.15003
6.79338
5.45803
4.10407
2.8471
1.34883
0.702629
37.3996
21.3314
27.0671
26.1526
26.6054
26.8472
27.0217
27.1273
27.1547
27.0848
26.9105
26.6227
26.2149
25.684
25.0296
24.2544
23.3646
22.3693
21.2799
20.1098
18.8728
17.5831
16.2544
14.899
13.5283
12.1517
10.7772
9.40982
8.05493
6.71022
5.38926
4.05044
2.81179
1.32731
0.704325
37.6925
21.4107
27.4128
26.399
26.9579
27.2287
27.4612
27.6239
27.7129
27.7078
27.6008
27.3814
27.0421
26.5782
25.988
25.2729
24.4377
23.4903
22.4417
21.3046
20.0933
18.8221
17.5055
16.1571
14.7887
13.4113
12.0334
10.6623
9.30224
7.95784
6.62596
5.32
3.99668
2.7766
1.30579
0.706236
37.9734
21.4801
27.7458
26.6281
27.2938
27.5893
27.8788
28.0962
28.2454
28.3038
28.2635
28.1126
27.8424
27.4466
26.9223
26.2694
25.4914
24.5952
23.5904
22.4894
21.3063
20.056
18.7532
17.4125
16.047
14.6683
13.2865
11.9094
10.5434
9.19203
7.85919
6.54093
5.25051
3.94296
2.74164
1.28431
0.708397
38.2432
21.54
28.0667
26.8408
27.6136
27.9296
28.2752
28.545
28.7527
28.8734
28.8989
28.8162
28.6155
28.289
27.8321
27.2436
26.5254
25.6832
24.7255
23.6639
22.5121
21.2851
19.9984
18.6669
17.3049
15.9252
14.5387
13.1547
11.7804
10.4211
9.07974
7.75944
6.45546
5.18104
3.88942
2.70702
1.26289
0.710839
38.5025
21.5914
28.3759
27.038
27.9183
28.2505
28.6512
28.9708
29.2356
29.417
29.5074
29.4924
29.3613
29.1049
28.717
28.1949
27.5391
26.7538
25.8465
24.8277
23.7105
22.5098
21.2415
19.9213
18.564
17.1837
15.7926
14.4008
13.0169
11.6471
10.2961
8.96588
7.65897
6.36985
5.1118
3.83623
2.67282
1.24156
0.713592
38.7521
21.6349
28.674
27.2204
28.2083
28.5527
29.0074
29.3745
29.6947
29.9353
30.0892
30.1414
30.0798
29.8941
29.5766
29.1228
28.5318
27.8063
26.9526
25.9801
24.9011
23.7301
22.4831
21.1762
19.8255
18.4457
17.05
15.6502
14.2556
12.8739
11.5104
10.169
8.85093
7.55817
6.28439
5.04299
3.78349
2.63914
1.22033
0.716685
38.9927
21.6711
28.9613
27.3889
28.4844
28.837
29.3447
29.7567
30.1305
30.4286
30.645
30.7632
30.7709
30.6562
30.4101
30.0264
29.5026
28.8399
28.043
27.1203
26.0832
24.9455
23.7231
22.4324
21.0902
19.7123
18.3129
16.9049
15.4991
14.104
12.7264
11.3709
10.0403
8.73536
7.45738
6.19935
4.97479
3.73132
2.60603
1.19922
0.720149
39.2249
21.7009
29.2383
27.5444
28.7472
29.1042
29.6638
30.118
30.5439
30.8977
31.175
31.3584
31.4347
31.3911
31.2172
30.9052
30.4509
29.8536
29.1168
28.2475
27.256
26.1555
24.9612
23.6899
22.3588
20.9846
19.5827
18.1671
16.7496
15.3404
13.9471
12.5754
11.2292
9.91067
8.61958
7.35694
6.11493
4.90738
3.67982
2.57357
1.17823
0.724008
39.4493
21.7246
29.5054
27.6876
28.9973
29.3551
29.9655
30.4594
30.9354
31.343
31.6797
31.927
32.0712
32.0986
31.9975
31.7584
31.3756
30.8465
30.173
29.3607
28.4186
27.3591
26.1969
24.9485
23.6315
22.2634
20.8605
19.4381
18.0093
16.5853
15.1751
13.7856
12.4216
11.0861
9.78048
8.50399
7.25712
6.03136
4.84088
3.62908
2.54182
1.15736
0.728287
39.6665
21.7432
29.7631
27.8194
29.2353
29.5903
30.2504
30.7814
31.3058
31.7653
32.1597
32.4696
32.6808
32.7787
32.7505
32.5854
32.2758
31.8175
31.2104
30.4586
29.5699
28.5554
27.4293
26.2078
24.9083
23.549
22.1473
20.7194
19.2798
17.841
16.4131
15.0043
13.6205
12.2657
10.942
9.65025
8.38893
7.15819
5.94882
4.77544
3.57916
2.51083
1.13661
0.733013
39.8769
21.757
30.0115
27.9404
29.4617
29.8106
30.5193
31.0848
31.6558
32.165
32.6155
32.9864
33.2635
33.4313
33.476
33.3856
33.1507
32.7654
32.2279
31.5401
30.7086
29.7434
28.6575
27.4669
26.1888
24.8416
23.4435
22.0119
20.5626
19.1092
17.6633
16.2341
14.8289
13.4526
12.1084
10.7976
9.52039
8.27471
7.06038
5.86747
4.71116
3.53013
2.48064
1.11598
0.738208
40.081
21.7666
30.2509
28.0514
29.6769
30.0167
30.7728
31.3703
31.986
32.543
33.0477
33.4779
33.8196
34.0565
34.1739
34.1585
33.9995
33.6893
33.224
32.6038
31.8335
30.9216
29.8805
28.725
27.4723
26.1409
24.7496
23.3166
21.8589
20.3916
18.9276
17.4775
16.0495
14.6499
13.2827
11.9504
10.6533
9.39128
8.16163
6.9639
5.78746
4.64814
3.48203
2.45129
1.09545
0.743887
40.2793
21.7723
30.4817
28.1529
29.8814
30.2092
31.0117
31.6386
32.2973
32.8999
33.4569
33.9447
34.3496
34.6545
34.844
34.9037
34.8215
34.5881
34.1975
33.6483
32.943
32.0889
31.0968
29.9809
28.758
27.4465
26.0653
24.6337
23.1696
21.6896
20.2079
18.7364
17.2848
15.8603
14.4681
13.1115
11.7921
10.5096
9.26326
8.04994
6.86893
5.7089
4.58647
3.4349
2.4228
1.07502
0.750066
40.4721
21.7748
30.7041
28.2458
30.0756
30.3888
31.2365
31.8904
32.5904
33.2364
33.8437
34.3873
34.8536
35.2254
35.4863
35.621
35.6162
35.4608
35.1473
34.672
34.0356
33.2435
32.305
31.2335
30.0449
28.7574
27.3904
25.9634
24.4954
23.0043
21.5056
20.0129
18.537
17.0864
15.6674
14.2845
12.9397
11.6341
10.3669
9.13664
7.93985
6.77563
5.6319
4.5262
3.38878
2.39522
1.05468
0.756758
40.6598
21.7742
30.9181
28.3304
30.2599
30.5562
31.4478
32.1265
32.8659
33.5532
34.2088
34.8062
35.3324
35.7694
36.1008
36.3102
36.3829
36.3066
36.072
35.6735
35.1096
34.3837
33.5036
32.4811
31.3316
30.0729
28.7241
27.3054
25.8366
24.3365
22.8222
21.3086
19.8081
18.3305
16.8833
15.4719
14.0996
12.7679
11.477
10.2255
9.01168
7.83157
6.68413
5.55653
4.4674
3.34368
2.36856
1.03441
0.763964
40.8426
21.7712
31.124
28.4076
30.4348
30.7121
31.6464
32.3475
33.1246
33.851
34.553
35.2021
35.7862
36.2871
36.6877
36.971
37.1214
37.1249
36.9708
36.6514
36.1634
35.5078
34.6907
33.7223
32.6169
31.3916
30.0657
28.6593
27.1931
25.6867
24.1585
22.625
21.1
19.5948
18.1183
16.6768
15.2746
13.9143
12.5966
11.321
10.0857
8.88862
7.72524
6.59453
5.48288
4.41011
3.29962
2.34282
1.01421
0.771686
41.0212
21.7661
31.3221
28.4778
30.6006
30.857
31.8328
32.5541
33.3672
34.1305
34.8769
35.5757
36.2158
36.7787
37.2471
37.6035
37.8312
37.915
37.8426
37.6044
37.1952
36.6139
35.8644
34.9551
33.899
32.7123
31.414
30.0244
28.5645
27.055
25.5154
23.9633
22.4144
20.8814
19.3745
17.9015
16.4676
15.0763
13.7292
12.4263
11.1667
9.94797
8.76766
7.62101
6.50694
5.411
4.35437
3.25661
2.31803
0.994067
0.779923
41.1956
21.7592
31.5124
28.5416
30.7576
30.9915
32.0075
32.7471
33.5944
34.3926
35.1813
35.9276
36.6217
37.2447
37.7794
38.2077
38.5121
38.6764
38.6865
38.5314
38.2037
37.7002
37.0226
36.1775
35.176
34.0333
32.7677
31.3997
29.9505
28.4414
26.893
25.3245
23.7527
22.192
20.6543
19.1485
17.6812
16.2568
14.8777
13.5448
12.2576
11.0143
9.81238
8.64897
7.519
6.42143
5.34092
4.30021
3.21466
2.29419
0.973971
0.788658
41.3663
21.7511
31.6951
28.5997
30.9062
31.1163
32.1712
32.927
33.8069
34.638
35.4669
36.2586
37.0046
37.6858
38.2849
38.7837
39.164
39.4085
39.5018
39.4313
39.1873
38.7649
38.1635
37.3873
36.4458
35.3527
34.1254
32.784
31.35
29.8454
28.2917
26.7091
25.1159
23.5283
21.9595
20.42
18.9179
17.4585
16.0451
14.6795
13.3617
12.0907
10.8642
9.67919
8.53269
7.41929
6.33806
5.27268
4.24764
3.17375
2.2713
0.953925
0.797876
41.5336
21.7419
31.8704
28.6524
31.0468
31.232
32.3244
33.0946
34.0054
34.8673
35.7345
36.5694
37.3652
38.1024
38.7642
39.3318
39.7868
40.1111
40.2879
40.3029
40.1448
39.8064
39.2849
38.5825
37.7063
36.6685
35.4852
34.176
32.7622
31.2665
29.7111
28.1173
26.505
24.8915
23.2919
21.7183
20.18
18.6839
17.2342
15.8334
14.4823
13.1804
11.926
10.7166
9.54857
8.41894
7.32197
6.25687
5.20631
4.19667
3.1339
2.24935
0.933924
0.807552
41.6976
21.732
32.0385
28.7002
31.1796
31.339
32.4676
33.2505
34.1907
35.0813
35.9848
36.8608
37.7041
38.4952
39.2176
39.8524
40.3807
40.7839
41.0441
41.1454
41.0748
40.823
40.385
39.7607
38.9551
37.9783
36.8451
35.5738
34.1858
32.7038
31.1508
29.5494
27.9203
26.2827
24.6531
23.0452
21.47
19.9355
18.4475
17.0092
15.6222
14.2866
13.0013
11.7639
10.5716
9.42068
8.30783
7.22709
6.1779
5.1418
4.1473
3.09508
2.22834
0.913972
0.81766
41.8587
21.7216
32.1993
28.7437
31.3048
31.438
32.6014
33.3953
34.3633
35.2808
36.2186
37.1335
38.0222
38.865
39.6459
40.3459
40.946
41.4269
41.77
41.958
41.9762
41.8132
41.4619
40.9199
40.1899
39.2798
38.2026
36.9755
35.6191
34.1562
32.6103
31.0049
29.3623
27.7027
26.0443
24.4025
22.7898
21.2159
19.6877
18.2098
16.7844
15.4124
14.093
12.8247
11.6046
10.4296
9.29563
8.19941
7.13469
6.10115
5.07916
4.09954
3.0573
2.20825
0.894074
0.828163
42.0169
21.711
32.3531
28.7831
31.4228
31.5294
32.7261
33.5296
34.5239
35.4664
36.4366
37.3884
38.3202
39.2124
40.0495
40.8127
41.4827
42.0401
42.4653
42.74
42.8479
42.7756
42.5139
42.058
41.4083
40.5704
39.5553
38.3787
37.0602
35.6222
34.0885
32.4836
30.8308
29.1519
27.4665
25.7916
24.1415
22.5273
20.9574
19.4377
17.9716
16.5605
15.2043
13.9019
12.6509
11.4483
10.2906
9.17352
8.09376
7.04479
6.02665
5.01839
4.05336
3.02054
2.18907
0.874242
0.839019
42.1727
21.7004
32.4998
28.819
31.5337
31.6136
32.8423
33.654
34.6732
35.6389
36.6397
37.6261
38.599
39.5383
40.4293
41.2534
41.9915
42.6237
43.1299
43.4909
43.689
43.7089
43.5393
43.173
42.608
41.8477
40.9007
39.781
38.5069
37.1
35.5843
33.9847
32.3258
30.6306
28.9204
27.2138
25.5266
23.8717
22.259
20.6957
19.1865
17.7337
16.338
14.9985
13.7135
12.4803
11.2952
10.1547
9.05443
7.99091
6.95742
5.95439
4.95947
4.00876
2.98479
2.17077
0.85449
0.850188
42.3261
21.69
32.6396
28.8517
31.6379
31.6912
32.9503
33.769
34.8116
35.799
36.8285
37.8476
38.8593
39.8434
40.786
41.6687
42.4727
43.1778
43.7638
44.2103
44.4986
44.6119
44.5364
44.2629
43.7868
43.1091
42.2361
41.1797
39.9566
38.5875
37.096
35.5072
33.8467
32.1389
30.4066
28.67
26.9466
25.251
23.5947
21.9864
20.432
18.935
17.497
16.1176
14.7955
13.5283
12.313
11.1455
10.0222
8.9384
7.89087
6.87256
5.88436
4.90239
3.96572
2.95004
2.15332
0.834832
0.861619
42.4773
21.6799
32.7725
28.8815
31.7355
31.7625
33.0506
33.8752
34.9399
35.9472
37.0037
38.0535
39.1019
40.1285
41.1203
42.0593
42.9269
43.703
44.367
44.8981
45.2763
45.4834
45.5038
45.3259
44.9425
44.3522
43.5588
42.5721
41.4068
40.0823
38.6215
37.0496
35.3927
33.6766
31.9253
30.1609
28.4027
26.6668
24.9665
23.312
21.7107
20.1672
18.6841
17.262
15.8998
14.5956
13.3466
12.1492
10.9993
9.89295
8.82548
7.79367
6.79023
5.81654
4.84713
3.92421
2.91628
2.13671
0.815291
0.873261
42.6265
21.6704
32.8986
28.9088
31.8268
31.8279
33.1436
33.9731
35.0586
36.0843
37.1661
38.2446
39.3276
40.3945
41.4332
42.4259
43.3547
44.1996
44.9398
45.5541
46.0215
46.3226
46.44
46.36
46.0729
45.5745
44.8662
43.9553
42.8545
41.5817
40.1586
38.6102
36.9628
35.243
33.4766
31.6872
29.8959
28.1207
26.3764
24.6749
23.0251
21.4331
19.9024
18.4346
17.0293
15.6851
14.3992
13.1684
11.9891
10.8567
9.7671
8.71568
7.6993
6.71039
5.75092
4.79366
3.88421
2.88349
2.12091
0.795889
0.885062
42.7739
21.6615
33.018
28.9339
31.912
31.888
33.2298
34.0632
35.1682
36.2108
37.3163
38.4217
39.5372
40.6421
41.7253
42.7694
43.757
44.6683
45.4826
46.1784
46.734
47.1288
47.344
47.3637
47.1758
46.7735
46.1555
45.3265
44.297
43.0829
41.7048
40.1867
38.5551
36.8373
35.0603
33.2492
31.4271
29.6137
27.8259
26.077
24.3776
22.7352
21.1546
19.6384
18.187
16.7995
15.4737
14.2064
12.9942
11.8328
10.7177
9.64467
8.60901
7.60775
6.63303
5.68745
4.74195
3.84567
2.85166
2.10587
0.77665
0.896967
42.9195
21.6535
33.1308
28.9572
31.9913
31.9431
33.3094
34.1459
35.2692
36.3274
37.455
38.5855
39.7316
40.8723
41.9976
43.0905
44.1343
45.1096
45.9958
46.7711
47.4136
47.9016
48.2148
48.3354
48.2493
47.9469
47.4241
46.6829
45.7312
44.5831
43.2572
41.7768
40.1679
38.4582
36.6756
34.8469
32.9968
31.1471
29.3165
27.5203
25.7706
24.0762
22.4436
20.8763
19.3759
17.9421
16.5731
15.2661
14.0177
12.8239
11.6804
10.5824
9.52568
8.50546
7.519
6.55812
5.62612
4.69197
3.80858
2.82078
2.09157
0.7576
0.908924
43.0635
21.6464
33.237
28.9788
32.0651
31.9936
33.3829
34.2218
35.3622
36.4346
37.5829
38.7367
39.9114
41.0858
42.2508
43.3902
44.4876
45.5243
46.4798
47.3327
48.0604
48.6404
49.0514
49.274
49.2916
49.0924
48.6693
48.0215
47.1541
46.0789
44.8129
43.3777
41.7988
40.1038
38.3215
36.4799
34.6053
32.7217
30.8497
29.0064
27.2059
25.4585
23.772
22.1513
20.5991
19.1158
17.7003
16.3503
15.0625
13.833
12.6577
11.532
10.4509
9.41014
8.40501
7.43301
6.48562
5.56687
4.64369
3.7729
2.79083
2.07797
0.738763
0.920879
43.2063
21.6404
33.3367
28.999
32.1334
32.0397
33.4506
34.2913
35.4476
36.533
37.7005
38.876
40.0774
41.2834
42.4859
43.6691
44.8176
45.9131
46.9355
47.8635
48.6744
49.3451
49.8534
50.1782
50.3011
50.2078
49.8884
49.3392
48.5626
47.5674
46.3686
44.9864
43.4452
41.7722
39.9966
38.1475
36.2528
34.3382
32.4265
30.537
28.6855
26.8843
25.1424
23.4662
21.8595
20.3237
18.8585
17.4621
16.1316
14.8632
13.6527
12.4958
11.3876
10.3231
9.29801
8.30765
7.34976
6.41548
5.50967
4.59707
3.73858
2.7618
2.06504
0.72017
0.932776
43.3484
21.6353
33.4299
29.0181
32.1964
32.0818
33.5127
34.3548
35.5259
36.6232
37.8084
39.004
40.2304
41.4659
42.7036
43.9284
45.1254
46.2768
47.3635
48.364
49.2559
50.0158
50.6203
51.0472
51.2764
51.2911
51.079
50.6333
49.9534
49.0453
47.9213
46.6
45.1043
43.461
41.6991
39.8485
37.9385
35.9967
34.0479
32.1134
30.2113
28.3556
26.5571
24.8236
23.16
21.5689
20.0508
18.6047
17.228
15.9172
14.6683
13.4769
12.3381
11.2472
10.199
9.18929
8.21333
7.26919
6.34768
5.45448
4.55207
3.7056
2.73368
2.05273
0.701851
0.944566
43.489
21.6311
33.5169
29.0363
32.2543
32.1202
33.5698
34.4127
35.5976
36.7056
37.9073
39.1215
40.371
41.6341
42.9049
44.1687
45.4116
46.6165
47.7645
48.835
49.8055
50.6523
51.3517
51.8802
52.2161
52.3406
52.2388
51.9009
51.3234
50.509
49.4675
48.215
46.773
45.1673
43.4266
41.5814
39.6618
37.6973
35.7145
33.737
31.7849
29.8746
28.0186
26.2261
24.5034
22.8543
21.2804
19.7812
18.3548
16.9981
15.7073
14.4781
13.3055
12.1848
11.1109
10.0787
9.08395
8.122
7.19127
6.28216
5.40125
4.50866
3.67389
2.70645
2.04102
0.683831
0.956202
43.6262
21.6284
33.5978
29.0536
32.3074
32.1552
33.6219
34.4652
35.6629
36.7807
37.9977
39.2289
40.5001
41.7888
43.0905
44.391
45.6772
46.9328
48.1395
49.2771
50.3235
51.2551
52.0476
52.6768
53.1194
53.3548
53.3656
53.1394
52.6693
51.9552
51.0036
49.8281
48.4481
46.8883
45.1768
43.3442
41.4215
39.4393
37.4264
35.4086
33.408
31.4432
29.5289
27.6761
25.8925
24.183
22.5502
20.9947
19.5152
18.1092
16.773
15.5023
14.2925
13.1387
12.0358
10.9787
9.96207
8.98194
8.03364
7.11595
6.21887
5.34992
4.4668
3.64344
2.68011
2.02986
0.666134
0.96764
43.7614
21.6283
33.6723
29.0703
32.3558
32.187
33.6694
34.5129
35.7225
36.8491
38.0801
39.3271
40.6181
41.9307
43.2613
44.5962
45.9232
47.2267
48.4893
49.6912
50.8108
51.8246
52.7081
53.4365
53.9854
54.3322
54.4575
54.3462
53.9883
53.3803
52.5259
51.4354
50.126
48.6207
46.9468
45.1346
43.2157
41.222
39.1837
37.1287
35.0817
33.0633
31.0905
29.1762
27.3298
25.5576
23.8634
22.2484
20.7125
19.2535
17.8682
16.5527
15.3021
14.1118
12.9765
11.8912
10.8504
9.84911
8.88321
7.94817
7.04316
6.15775
5.30044
4.42644
3.61419
2.65464
2.01922
0.648786
0.978838
43.9033
21.63
33.74
29.0866
32.3997
32.2158
33.7126
34.5561
35.7765
36.9111
38.1551
39.4164
40.7259
42.0606
43.418
44.7851
46.1504
47.4992
48.8147
50.078
51.2679
52.3612
53.3334
54.1593
54.8134
55.2718
55.5129
55.519
55.2773
54.7812
54.0306
53.0331
51.803
50.3611
48.7335
46.9501
45.0427
43.0439
40.9856
38.8976
36.8068
34.7363
32.7052
30.7287
28.818
26.9811
25.2228
23.5455
21.9498
20.4343
18.9964
17.6322
16.3374
15.107
13.936
12.819
11.7509
10.7262
9.73976
8.78771
7.86554
6.97285
6.09876
5.25277
4.38755
3.58611
2.63001
2.00908
0.631811
0.989759
44.0547
21.6281
33.8013
29.1031
32.4392
32.2419
33.7518
34.595
35.8255
36.9672
38.223
39.4976
40.8241
42.1791
43.5615
44.9585
46.3598
47.7512
49.1169
50.4386
51.6957
52.8656
53.9239
54.845
55.603
56.1725
56.5302
56.6558
56.5338
56.1544
55.5142
54.6173
53.4749
52.1056
50.5335
48.7876
46.8998
44.9034
42.8313
40.7152
38.5841
36.4635
34.375
32.336
30.3598
28.4561
26.6313
24.889
23.2303
21.6549
20.1606
18.7442
17.4014
16.1274
14.917
13.765
12.6661
11.6149
10.6059
9.63398
8.69538
7.7857
6.90496
6.04183
5.20686
4.3501
3.55915
2.60623
1.99938
0.615229
1.00037
44.1865
21.6208
33.8596
29.1195
32.4745
32.2656
33.7871
34.6299
35.8696
37.0178
38.2845
39.5711
40.9132
42.287
43.6924
45.1174
46.5522
47.9836
49.3966
50.7738
52.0952
53.3386
54.4802
55.4941
56.3541
57.0337
57.508
57.7547
57.7554
57.497
56.9731
56.184
55.1379
53.8502
52.3431
50.6441
48.7846
46.7983
44.7193
42.5808
40.4137
38.2459
36.1015
34.0002
31.9577
29.9856
28.092
26.2818
24.5572
22.9185
21.3643
19.8919
18.4973
17.176
15.9227
14.7322
13.599
12.5178
11.4831
10.4895
9.53169
8.60615
7.70857
6.83943
5.98693
5.16266
4.31402
3.53328
2.58327
1.99011
0.599059
1.01064
44.2622
21.6274
33.9157
29.1345
32.5057
32.2871
33.8189
34.6612
35.9093
37.0632
38.3399
39.6374
40.9938
42.3849
43.8117
45.2625
46.7286
48.1974
49.655
51.0846
52.4671
53.781
55.0028
56.1069
57.0666
57.8549
58.4455
58.814
58.9396
58.8061
58.4037
57.7293
56.7875
55.5906
54.158
52.5156
50.6939
48.7263
46.648
44.4934
42.2953
40.084
37.8858
35.7232
33.6141
31.5723
29.6078
27.7271
25.9335
24.2283
22.6107
21.0786
19.6284
18.2559
16.956
15.7234
14.5525
13.4379
12.3741
11.3556
10.3769
9.43283
8.51996
7.6341
6.7762
5.93399
5.1201
4.2793
3.50844
2.56112
1.98124
0.583318
1.02055
44.3581
21.6724
33.9589
29.1478
32.5339
32.3066
33.8474
34.6891
35.9448
37.1038
38.3895
39.697
41.0665
42.4734
43.9198
45.3945
46.8897
48.3936
49.8929
51.3719
52.8125
54.1937
55.4925
56.6838
57.7407
58.6358
59.3416
59.8322
60.0843
60.079
59.8029
59.2494
58.4197
57.3224
55.9741
54.3983
52.6241
50.6846
48.6151
46.4515
44.2284
41.9779
39.729
37.5066
35.3311
33.2188
31.1817
29.228
27.3625
25.5876
23.9031
22.3076
20.7981
19.3706
18.0202
16.7417
15.5295
14.378
13.2817
12.235
11.2322
10.2681
9.33733
8.43673
7.56221
6.71521
5.88295
5.07913
4.24588
3.48461
2.53977
1.97272
0.56802
1.03007
44.5504
21.7042
33.9752
29.165
32.5593
32.3238
33.8727
34.7139
35.9765
37.14
38.4339
39.7504
41.1318
42.5532
44.0177
45.5144
47.0366
48.573
50.1114
51.637
53.1323
54.5775
55.9502
57.2255
58.3769
59.3765
60.1961
60.8083
61.1879
61.3131
61.1675
60.7407
60.0302
59.0412
57.7868
56.2878
54.5713
52.6697
50.6183
48.4536
46.212
43.9276
41.6317
39.3517
37.1108
34.9277
32.8166
30.7876
28.8475
26.9995
25.2448
23.5823
22.0096
20.5232
19.1185
17.7903
16.5332
15.3412
14.2088
13.1303
12.1003
11.113
10.163
9.24511
8.3564
7.49285
6.65639
5.83375
5.03972
4.21372
3.46174
2.51919
1.96455
0.553177
1.0392
44.6129
21.6302
33.9942
29.1931
32.5795
32.3387
33.8952
34.7359
36.0046
37.172
38.4733
39.7979
41.1902
42.6248
44.1058
45.6229
47.1699
48.7366
50.3115
51.8807
53.4278
54.9337
56.3767
57.7328
58.9756
60.077
61.0085
61.7413
62.2486
62.5062
62.4944
62.1995
61.615
60.7424
59.5914
58.1794
56.5314
54.6781
52.6544
50.4974
48.2446
45.9323
43.594
41.2596
38.9549
36.7012
34.5151
32.4091
30.3916
28.4675
26.639
24.9059
23.2664
21.7172
20.2541
18.8724
17.5664
16.3303
15.1583
14.0447
12.9838
11.97
10.9977
10.0615
9.1561
8.27889
7.42594
6.59968
5.78635
5.0018
4.1828
3.43979
2.49937
1.95669
0.538798
1.04791
44.6776
21.6056
34.0564
29.217
32.5912
32.3532
33.9151
34.7549
36.0294
37.2003
38.5082
39.84
41.2422
42.6887
44.1849
45.7206
47.2906
48.8853
50.4942
52.1042
53.6999
55.2631
56.7731
58.2065
59.5373
60.7378
61.7787
62.6308
63.2654
63.6564
63.7811
63.6225
63.1702
62.4218
61.3831
60.0684
58.4996
56.7054
54.7198
52.5801
50.3246
47.9912
45.6158
43.2308
40.8647
38.5413
36.28
34.0955
31.9984
29.9951
28.0894
26.282
24.5718
22.9559
21.4306
19.9913
18.6325
17.3485
16.1333
14.9809
13.8857
12.8419
11.844
10.8863
9.96346
9.07022
8.20413
7.3614
6.54502
5.74068
4.96532
4.15306
3.41873
2.48029
1.94912
0.524891
1.05621
44.7424
21.5802
34.076
29.2037
32.6018
32.3689
33.9323
34.7713
36.051
37.225
38.5389
39.8771
41.2881
42.7455
44.2554
45.8082
47.3993
49.0199
50.6603
52.3084
53.9497
55.567
57.1405
58.6476
60.063
61.3592
62.5069
63.4762
64.2372
64.7619
65.025
65.0064
64.6918
64.0749
63.1573
61.9497
60.4709
58.7472
56.8108
54.6985
52.4494
50.1029
47.6966
45.2656
42.8412
40.4498
38.1136
35.8497
33.6709
31.5858
29.5995
27.7141
25.9293
24.2429
22.6513
21.1503
19.7347
18.3988
17.1366
15.942
14.809
13.7317
12.7047
11.7223
10.7788
9.8689
8.98739
8.13203
7.29918
6.49234
5.6967
4.93024
4.12447
3.39853
2.46193
1.94183
0.511459
1.06407
44.8077
21.5551
34.0959
29.1988
32.62
32.3817
33.9462
34.786
36.0697
37.2463
38.5657
39.9096
41.3285
42.7956
44.3181
45.8864
47.4969
49.1413
50.8109
52.4944
54.1783
55.8464
57.4799
59.0571
60.5534
61.9419
63.1934
64.2774
65.1633
65.8214
66.2241
66.3483
66.1763
65.6973
64.9093
63.8185
62.4404
60.7984
58.9227
56.849
54.6163
52.2653
49.8354
47.364
44.8851
42.4282
40.0179
37.6742
35.4123
33.2429
31.1729
29.2059
27.3426
25.5815
23.9197
22.353
20.8765
19.4846
18.1715
16.9308
15.7565
14.6424
13.5827
12.572
11.6047
10.675
9.77769
8.90752
8.06253
7.23921
6.44158
5.65434
4.8965
4.097
3.37913
2.44428
1.93479
0.498506
1.07152
44.8732
21.5305
34.1153
29.1938
32.6252
32.381
33.9579
34.7997
36.086
37.2643
38.5886
39.9378
41.3638
42.8396
44.3733
45.9558
47.584
49.2502
50.9468
52.6631
54.3867
56.1025
57.7925
59.4362
61.0097
62.4867
63.8385
65.0345
66.0433
66.8338
67.3767
67.6457
67.62
67.2851
66.6342
65.6697
64.4029
62.8539
61.0507
59.0272
56.8219
54.476
52.0307
49.5255
46.997
44.4776
41.9949
39.5717
37.2256
34.9699
32.8133
30.7612
28.8154
26.9756
25.2393
23.6028
22.0612
20.6093
19.2411
17.9505
16.7311
15.5766
14.4811
13.4386
12.4439
11.4912
10.5749
9.68974
8.83053
7.99555
7.18141
6.39269
5.61357
4.86406
4.0706
3.36052
2.42732
1.92798
0.486032
1.07854
44.9387
21.5062
34.134
29.1889
32.6304
32.3803
33.966
34.8106
36.1003
37.2802
38.6081
39.9618
41.3944
42.878
44.4217
46.0169
47.6612
49.3476
51.0689
52.8156
54.5761
56.3364
58.0796
59.786
61.4328
62.9946
64.4431
65.7478
66.877
67.7984
68.481
68.8963
69.0201
68.8341
68.3275
67.498
66.3529
64.9085
63.1896
61.2284
59.0622
56.7321
54.2805
51.749
49.1767
46.5988
44.0461
41.5442
39.1136
36.77
34.5243
32.3837
30.3517
28.4289
26.6139
24.9032
23.2924
21.7762
20.3488
19.0042
17.7359
16.5374
15.4024
14.325
13.2994
12.3201
11.3817
10.4784
9.60496
8.75633
7.931
7.12572
6.3456
5.57431
4.83288
4.04523
3.34266
2.41103
1.92139
0.474035
1.08514
45.0031
21.4822
34.1528
29.184
32.6355
32.3794
33.9681
34.8127
36.1117
37.2946
38.625
39.982
41.4203
42.9111
44.4639
46.0705
47.7294
49.434
51.1781
52.9528
54.7475
56.5492
58.3421
60.1077
61.8241
63.4667
65.0079
66.4178
67.6643
68.7146
69.536
70.0981
70.3736
70.3408
69.9846
69.2985
68.2851
66.9565
65.3341
63.4475
61.3325
59.0298
56.5821
54.0329
51.4236
48.7923
46.1728
43.5939
41.079
38.6463
36.3093
34.0773
31.9553
29.9456
28.0473
26.2581
24.5736
22.9889
21.4982
20.0953
18.774
17.5276
16.3497
15.2338
14.1741
13.1648
12.2006
11.276
10.3853
9.52327
8.68486
7.86883
7.07207
6.30025
5.53653
4.8029
4.02087
3.32552
2.39538
1.91501
0.462512
1.09132
45.069
21.4577
34.1712
29.1799
32.6405
32.3787
33.97
34.8127
36.1159
37.3055
38.64
39.9994
41.4419
42.939
44.5002
46.1171
47.789
49.5103
51.2751
53.0756
54.902
56.7421
58.5815
60.4025
62.1846
63.904
65.5341
67.0452
68.4056
69.582
70.5408
71.2494
71.6781
71.8019
71.6016
71.0662
70.1938
68.9921
67.4784
65.6791
63.6281
61.3648
58.9324
56.3752
53.7368
51.0581
48.376
45.7224
43.1239
40.6017
38.1718
35.8456
33.6303
31.5295
29.5438
27.6714
25.9087
24.251
22.6925
21.2272
19.8487
18.5504
17.3256
16.1678
15.0707
14.0282
13.0348
12.0853
11.1741
10.2956
9.44457
8.61601
7.80894
7.0204
6.25658
5.50018
4.77409
3.99748
3.30907
2.38036
1.90882
0.451459
1.0971
45.1354
21.4343
34.1891
29.176
32.6453
32.3781
33.9719
34.8127
36.1165
37.3076
38.6513
40.015
41.4605
42.9621
44.5308
46.1572
47.8409
49.577
51.3608
53.1849
55.0404
56.9162
58.7988
60.6717
62.5156
64.3078
66.0225
67.6308
69.1014
70.4008
71.4946
72.3489
72.9314
73.2142
73.1744
72.7964
72.0738
71.0095
69.6164
67.9174
65.9435
63.7326
61.3274
58.773
56.1146
53.3957
50.6562
47.9313
45.2508
42.6391
40.1151
37.6925
35.3807
33.1849
31.1073
29.1472
27.3016
25.5662
23.9355
22.4034
20.9635
19.6091
18.3335
17.1299
15.9919
14.9129
13.8873
12.9094
11.974
11.0758
10.2092
9.36878
8.54971
7.75127
6.97064
6.21454
5.4652
4.74639
3.97501
3.29327
2.36596
1.90282
0.44087
1.10249
45.2018
21.4115
34.2066
29.172
32.6501
32.3773
33.9739
34.8127
36.1172
37.3076
38.6538
40.0264
41.4771
42.982
44.556
46.1908
47.8855
49.6352
51.4359
53.2815
55.1637
57.0724
58.9952
60.9166
62.8185
64.6793
66.4744
68.1757
69.7525
71.1712
72.3973
73.3955
74.1318
74.5752
74.6993
74.4847
73.9198
73.0028
71.7421
70.1562
68.2729
66.1278
63.7627
61.2229
58.5547
55.8039
53.0133
50.2214
47.4615
44.761
42.1421
39.6213
37.2102
34.916
32.7423
30.6898
28.7566
26.9387
25.231
23.6275
22.1218
20.7071
19.3765
18.1232
16.9404
15.8216
14.7605
13.7512
12.7883
11.8667
10.9811
10.1259
9.29579
8.48589
7.69576
6.92274
6.17408
5.43154
4.71977
3.95344
3.27811
2.35214
1.89699
0.430735
1.1075
45.2687
21.3889
34.2238
29.1684
32.6545
32.3766
33.9756
34.8127
36.1178
37.3075
38.6538
40.0279
41.489
42.9997
44.5775
46.2185
47.9229
49.6851
51.5013
53.3663
55.273
57.212
59.1718
61.1384
63.0945
65.02
66.8911
68.6811
70.3596
71.8939
73.2489
74.3886
75.2776
75.8824
76.1733
76.1267
75.7267
74.9664
73.8492
72.3891
70.61
68.5448
66.2335
63.7208
61.0543
58.2811
55.4469
52.5934
49.7574
46.9699