/*--------------------------------*- C++ -*----------------------------------*\
  =========                 |
  \\      /  F ield         | OpenFOAM: The Open Source CFD Toolbox
   \\    /   O peration     | Website:  https://openfoam.org
    \\  /    A nd           | Version:  7
     \\/     M anipulation  |
\*---------------------------------------------------------------------------*/
FoamFile
{
    version     2.0;
    format      ascii;
    class       surfaceScalarField;
    location    "1800";
    object      phi;
}
// * * * * * * * * * * * * * * * * * * * * * * * * * * * * * * * * * * * * * //

dimensions      [0 3 -1 0 0 0 0];

internalField   nonuniform List<scalar> 
45906
(
-0.301712
0.0678727
-0.301479
0.0657029
-0.29013
0.0677111
-0.30135
0.0635948
-0.289978
0.0655506
-0.27879
0.0675702
-0.301268
0.0615362
-0.289839
0.0634561
-0.278661
0.0654221
-0.267908
0.067416
-0.30121
0.0595409
-0.289727
0.0614244
-0.278541
0.0633363
-0.267772
0.0652856
-0.257398
0.0672709
-0.301167
0.0576107
-0.289637
0.0594504
-0.278435
0.0613179
-0.267647
0.0632113
-0.257258
0.0651454
-0.247125
0.0671164
-0.301133
0.0557716
-0.289562
0.0575357
-0.27834
0.0593559
-0.267532
0.061203
-0.257121
0.0630743
-0.246971
0.0649922
-0.237208
0.0669485
-0.301106
0.053996
-0.289498
0.0557077
-0.278256
0.0574515
-0.267424
0.0592485
-0.256989
0.0610713
-0.24682
0.0629229
-0.237042
0.0648267
-0.227634
0.0667773
-0.301082
0.0522693
-0.289442
0.0539401
-0.27818
0.0556314
-0.267323
0.0573503
-0.256862
0.0591213
-0.246672
0.0609235
-0.236882
0.0627624
-0.227469
0.0646618
-0.218454
0.066615
-0.301062
0.0506162
-0.289392
0.0522192
-0.27811
0.0538697
-0.267226
0.0555348
-0.256739
0.0572271
-0.246529
0.0589776
-0.236727
0.0607684
-0.227312
0.0626057
-0.218303
0.0645107
-0.209618
0.0664704
-0.301044
0.0490095
-0.289346
0.0505703
-0.278043
0.0521531
-0.267133
0.0537764
-0.256619
0.0554149
-0.246389
0.0570879
-0.236578
0.058829
-0.227164
0.06062
-0.218161
0.0624645
-0.209488
0.0643801
-0.201222
0.0663454
-0.301028
0.047461
-0.289303
0.0489665
-0.27798
0.0505071
-0.267042
0.0520621
-0.256502
0.0536595
-0.246255
0.0552804
-0.236437
0.0569462
-0.227024
0.0586896
-0.21803
0.0604884
-0.209366
0.0623428
-0.20111
0.0642684
-0.19317
0.0662357
-0.301014
0.0459698
-0.289262
0.0474202
-0.277919
0.0489052
-0.266953
0.0504176
-0.256387
0.0519478
-0.246125
0.0535298
-0.236302
0.0551461
-0.226894
0.0568159
-0.217908
0.0585677
-0.209253
0.0603754
-0.201004
0.062237
-0.193071
0.0641688
-0.185456
0.0661347
-0.301001
0.0445222
-0.289223
0.0459304
-0.277859
0.0473599
-0.266864
0.0488167
-0.256276
0.0503058
-0.246
0.0518232
-0.236175
0.053403
-0.226773
0.0550248
-0.217795
0.0567032
-0.209148
0.0584628
-0.200905
0.060276
-0.192974
0.0621402
-0.185362
0.0640745
-0.178044
0.0660373
-0.300988
0.0431384
-0.289184
0.0444838
-0.277799
0.0458706
-0.266776
0.047272
-0.256166
0.0487075
-0.245881
0.0501864
-0.236056
0.051704
-0.22666
0.0532904
-0.217691
0.0549204
-0.20905
0.0566053
-0.20081
0.0583686
-0.192881
0.0601833
-0.185268
0.0620469
-0.177951
0.0639811
-0.170919
0.0659409
-0.300976
0.0417825
-0.289146
0.0431003
-0.277739
0.044424
-0.266689
0.0457833
-0.25606
0.0471655
-0.245767
0.0485936
-0.235945
0.0500748
-0.226556
0.0515997
-0.217594
0.0531935
-0.208959
0.0548286
-0.200721
0.0565155
-0.192792
0.0582788
-0.185177
0.0600923
-0.177858
0.061954
-0.170825
0.0638876
-0.16406
0.0658452
-0.300965
0.0404802
-0.289108
0.0417446
-0.277679
0.0430404
-0.266602
0.0443372
-0.255956
0.0456797
-0.245659
0.0470572
-0.23584
0.0484893
-0.226459
0.0499781
-0.217504
0.0515094
-0.208872
0.0531068
-0.200634
0.0547424
-0.192704
0.0564281
-0.185088
0.0581894
-0.177767
0.0600012
-0.170733
0.0618616
-0.163967
0.0637947
-0.157478
0.0657511
-0.300954
0.0392166
-0.28907
0.040442
-0.277619
0.0416844
-0.266516
0.0429543
-0.255856
0.0442369
-0.245556
0.0455771
-0.235743
0.0469599
-0.226369
0.0483994
-0.217419
0.0498935
-0.208789
0.0514269
-0.200551
0.0530234
-0.192619
0.0546568
-0.185
0.0563403
-0.177677
0.0580997
-0.170642
0.0599106
-0.163876
0.0617704
-0.157387
0.0637038
-0.151146
0.0656595
-0.300944
0.0379966
-0.289031
0.0391781
-0.277558
0.0403814
-0.266431
0.0415991
-0.255759
0.0428574
-0.245459
0.04414
-0.235652
0.0454864
-0.226286
0.0468762
-0.217339
0.0483197
-0.20871
0.0498143
-0.20047
0.0513458
-0.192535
0.0529395
-0.184914
0.0545704
-0.177589
0.0562521
-0.170553
0.0580107
-0.163787
0.0598215
-0.157299
0.0616818
-0.151058
0.0636159
-0.145071
0.0655713
-0.300933
0.0368146
-0.288992
0.0379575
-0.277497
0.0391171
-0.266347
0.0402973
-0.255666
0.041506
-0.245368
0.0427662
-0.235568
0.0440556
-0.226207
0.0454082
-0.217264
0.0468006
-0.208634
0.0482433
-0.200391
0.0497351
-0.192452
0.0512633
-0.184829
0.0528544
-0.177502
0.0544838
-0.170466
0.0561649
-0.1637
0.0579236
-0.157212
0.0597351
-0.150973
0.0615962
-0.144987
0.0635315
-0.139241
0.0654865
-0.300923
0.0356704
-0.288953
0.0367748
-0.277436
0.0378962
-0.266264
0.0390344
-0.255577
0.0402082
-0.245283
0.0414204
-0.235489
0.0426875
-0.226134
0.0439821
-0.217192
0.045336
-0.208559
0.0467264
-0.200313
0.0481656
-0.192371
0.0496539
-0.184745
0.0511796
-0.177417
0.0527693
-0.17038
0.0543982
-0.163615
0.0560798
-0.157128
0.0578393
-0.150889
0.0596519
-0.144905
0.0615141
-0.13916
0.0634507
-0.133635
0.0654053
-0.300912
0.034565
-0.288912
0.0356298
-0.277375
0.0367134
-0.266183
0.0378152
-0.255492
0.0389495
-0.245202
0.0401281
-0.235416
0.0413471
-0.226065
0.0426182
-0.217122
0.0439127
-0.208487
0.0452636
-0.200237
0.04665
-0.192291
0.0480856
-0.184663
0.0495715
-0.177334
0.051096
-0.170296
0.0526854
-0.163532
0.0543149
-0.157046
0.0559974
-0.150808
0.0577581
-0.144825
0.059572
-0.139081
0.0614354
-0.133557
0.0633734
-0.128259
0.0653275
-0.300901
0.0334929
-0.288871
0.0345236
-0.277313
0.0355685
-0.266104
0.0366344
-0.255411
0.0377346
-0.245128
0.0388747
-0.235348
0.0400597
-0.225999
0.0412814
-0.217055
0.0425511
-0.208416
0.0438418
-0.200161
0.0451883
-0.192212
0.0465713
-0.184581
0.0480046
-0.177252
0.0494894
-0.170214
0.0510137
-0.16345
0.0526038
-0.156965
0.0542343
-0.150729
0.0559181
-0.144747
0.0576802
-0.139005
0.0594954
-0.133482
0.06136
-0.128185
0.0632994
-0.123103
0.0652531
-0.30089
0.0324553
-0.288828
0.0334507
-0.277252
0.0344625
-0.266027
0.0354917
-0.255335
0.0365582
-0.245058
0.0376648
-0.235284
0.0388105
-0.225936
0.039997
-0.21699
0.0412162
-0.208346
0.0424814
-0.200087
0.0437676
-0.192135
0.0451107
-0.184502
0.0464915
-0.177171
0.0479239
-0.170133
0.0494087
-0.16337
0.0509337
-0.156886
0.0525248
-0.150651
0.0541566
-0.144671
0.0558419
-0.13893
0.0576053
-0.133409
0.0594219
-0.128112
0.0612878
-0.123032
0.0632286
-0.118142
0.0651819
-0.300878
0.0314494
-0.288785
0.0324124
-0.277192
0.03339
-0.265953
0.0343882
-0.255263
0.0354199
-0.244993
0.0364931
-0.235223
0.0376045
-0.225876
0.0387505
-0.216926
0.0399334
-0.208278
0.0411477
-0.200014
0.0424083
-0.192058
0.0436913
-0.184423
0.0450324
-0.177092
0.0464123
-0.170054
0.0478447
-0.163291
0.0493301
-0.156808
0.0508561
-0.150575
0.0524485
-0.144596
0.0540818
-0.138857
0.0557686
-0.133337
0.0575336
-0.128042
0.0593516
-0.122963
0.0612187
-0.118074
0.0631609
-0.113386
0.0651139
-0.300866
0.0304777
-0.288742
0.0314058
-0.277132
0.0323524
-0.265881
0.0333185
-0.255196
0.0343208
-0.244932
0.0353592
-0.235166
0.0364363
-0.225818
0.0375468
-0.216864
0.0386884
-0.208211
0.0398661
-0.199942
0.0410757
-0.191983
0.0423332
-0.184346
0.0436142
-0.177014
0.0449546
-0.169976
0.0463345
-0.163214
0.0477674
-0.156732
0.0492537
-0.1505
0.0507811
-0.144522
0.0523749
-0.138785
0.0540099
-0.133266
0.0556983
-0.127973
0.0574648
-0.122895
0.0592843
-0.118008
0.0611527
-0.113322
0.0630963
-0.108822
0.065049
-0.300853
0.0295335
-0.288698
0.0304334
-0.277073
0.0313467
-0.265813
0.0322838
-0.255133
0.0332554
-0.244875
0.0342641
-0.235113
0.0353054
-0.225763
0.0363805
-0.216804
0.0374861
-0.208144
0.0386222
-0.199871
0.0397953
-0.191909
0.0410018
-0.184271
0.0422574
-0.176937
0.0435378
-0.1699
0.044878
-0.163138
0.0462584
-0.156657
0.0476923
-0.150426
0.0491798
-0.14445
0.0507086
-0.138714
0.0523041
-0.133197
0.0539407
-0.127906
0.0556309
-0.12283
0.057399
-0.117944
0.05922
-0.113259
0.0610896
-0.10876
0.0630347
-0.104438
0.064987
-0.30084
0.028622
-0.288653
0.0294888
-0.277015
0.0303754
-0.265747
0.0312812
-0.255074
0.0322249
-0.244822
0.0332025
-0.235062
0.0342131
-0.225709
0.0352514
-0.216744
0.036321
-0.208079
0.037421
-0.199802
0.0385527
-0.191837
0.0397227
-0.184196
0.0409275
-0.176862
0.0421822
-0.169825
0.0434624
-0.163063
0.044803
-0.156583
0.0461843
-0.150353
0.0476193
-0.144378
0.0491083
-0.138644
0.0506388
-0.133129
0.052236
-0.12784
0.0538745
-0.122765
0.0555663
-0.117881
0.0573361
-0.113197
0.0591587
-0.1087
0.0610295
-0.104379
0.0629759
-0.100235
0.0649279
-0.300826
0.0277366
-0.288608
0.0285768
-0.276958
0.0294321
-0.265685
0.0303131
-0.255019
0.0312263
-0.244773
0.0321754
-0.235013
0.0331539
-0.225656
0.0341606
-0.216686
0.0351931
-0.208015
0.0362572
-0.199734
0.0373528
-0.191765
0.0384814
-0.184123
0.0396496
-0.176788
0.0408535
-0.16975
0.042108
-0.162989
0.0433885
-0.15651
0.0447298
-0.150281
0.0461122
-0.144308
0.0475486
-0.138575
0.0490392
-0.133062
0.0505716
-0.127774
0.0521707
-0.122702
0.053811
-0.117819
0.0555047
-0.113137
0.0572761
-0.108641
0.0591002
-0.104322
0.0609722
-0.100179
0.06292
-0.0961973
0.0648716
-0.300811
0.0268797
-0.288562
0.0276911
-0.276903
0.0285217
-0.265626
0.029373
-0.254968
0.0302622
-0.244727
0.03118
-0.234966
0.0321289
-0.225605
0.0331028
-0.216629
0.0341035
-0.207953
0.0351305
-0.199667
0.0361904
-0.191696
0.037283
-0.184052
0.0384097
-0.176715
0.0395768
-0.169677
0.0407803
-0.162916
0.0420349
-0.156437
0.0433161
-0.150209
0.0446584
-0.144238
0.0460422
-0.138506
0.0474802
-0.132996
0.0489727
-0.12771
0.050507
-0.122639
0.0521081
-0.117759
0.0537503
-0.113079
0.0554458
-0.108584
0.0572189
-0.104266
0.0590444
-0.100124
0.0609177
-0.0961441
0.0628667
-0.092326
0.064818
-0.300795
0.0260501
-0.288517
0.0268341
-0.276849
0.0276376
-0.26557
0.0284658
-0.254921
0.0293257
-0.244683
0.0302187
-0.234922
0.0311354
-0.225555
0.0320792
-0.216573
0.0330469
-0.207892
0.0340423
-0.199602
0.0350652
-0.191627
0.0361221
-0.183981
0.0372127
-0.176644
0.0383382
-0.169605
0.0395047
-0.162844
0.0407081
-0.156366
0.0419633
-0.150139
0.0432454
-0.144168
0.044589
-0.138439
0.0459744
-0.13293
0.0474143
-0.127646
0.0489088
-0.122577
0.0504451
-0.117699
0.0520482
-0.113021
0.0536923
-0.108528
0.0553897
-0.104211
0.0571643
-0.100071
0.0589914
-0.0960921
0.0608657
-0.0922753
0.062816
-0.0886006
0.064767
-0.300779
0.025245
-0.288471
0.0260045
-0.276797
0.0267825
-0.265517
0.027585
-0.254877
0.028422
-0.244642
0.0292849
-0.234879
0.0301759
-0.225507
0.031087
-0.216518
0.0320246
-0.207832
0.0329871
-0.199538
0.0339784
-0.191561
0.0349984
-0.183912
0.0360532
-0.176573
0.0371423
-0.169534
0.038267
-0.162773
0.0394334
-0.156295
0.0406372
-0.150069
0.0418931
-0.144099
0.0431765
-0.138371
0.0445218
-0.132864
0.0459089
-0.127582
0.0473508
-0.122516
0.0488474
-0.117639
0.0503858
-0.112963
0.051991
-0.108473
0.0536371
-0.104158
0.0553362
-0.100019
0.0571124
-0.0960416
0.0589409
-0.0922259
0.0608163
-0.0885524
0.0627678
-0.0850362
0.0647184
-0.300761
0.0244658
-0.288426
0.0251997
-0.276748
0.0259548
-0.265468
0.0267331
-0.254837
0.0275445
-0.244604
0.0283835
-0.234838
0.0292436
-0.22546
0.0301287
-0.216465
0.0310337
-0.207773
0.0319662
-0.199475
0.0329248
-0.191495
0.0339131
-0.183845
0.0349309
-0.176504
0.0359841
-0.169464
0.0370722
-0.162702
0.0381966
-0.156224
0.0393631
-0.149999
0.0405676
-0.144031
0.0418247
-0.138305
0.0431096
-0.132799
0.0444567
-0.127519
0.0458459
-0.122455
0.0472899
-0.117581
0.0487886
-0.112907
0.0503292
-0.108418
0.0519363
-0.104105
0.0535844
-0.0999682
0.0552853
-0.0959923
0.0570631
-0.0921779
0.0588928
-0.0885054
0.0607694
-0.0849904
0.062722
-0.0816077
0.0646722
-0.300743
0.0237098
-0.288381
0.0244208
-0.2767
0.0251519
-0.265422
0.0259085
-0.254799
0.0266955
-0.244567
0.0275081
-0.234798
0.0283438
-0.225414
0.0291978
-0.216413
0.0300768
-0.207716
0.0309768
-0.199415
0.0319054
-0.191432
0.032861
-0.183779
0.0338471
-0.176437
0.0348631
-0.169395
0.035915
-0.162633
0.0370026
-0.156155
0.0381269
-0.14993
0.039294
-0.143963
0.0404996
-0.138238
0.0417582
-0.132734
0.0430449
-0.127456
0.0443939
-0.122394
0.0457852
-0.117522
0.0472314
-0.112851
0.0487324
-0.108364
0.0502751
-0.104053
0.0518843
-0.099918
0.0535342
-0.0959438
0.0552368
-0.092131
0.0570161
-0.0884598
0.0588472
-0.0849457
0.0607247
-0.0815642
0.0626785
-0.0783252
0.0646283
-0.300724
0.022977
-0.288336
0.0236652
-0.276654
0.0243751
-0.265378
0.0251087
-0.254764
0.0258738
-0.244533
0.026661
-0.23476
0.0274697
-0.225369
0.0282992
-0.216363
0.0291473
-0.207661
0.0300215
-0.199355
0.0309177
-0.191369
0.0318432
-0.183714
0.0327964
-0.17637
0.0337805
-0.169327
0.0347951
-0.162564
0.0358463
-0.156086
0.0369337
-0.149862
0.0380584
-0.143895
0.0392264
-0.138172
0.0404334
-0.13267
0.0416936
-0.127394
0.0429823
-0.122334
0.0443334
-0.117464
0.045727
-0.112795
0.0471755
-0.10831
0.0486786
-0.104002
0.0502235
-0.0998685
0.0518347
-0.0958961
0.0534865
-0.0920849
0.0551908
-0.0884152
0.0569715
-0.0849024
0.0588039
-0.0815218
0.0606823
-0.0782839
0.0626371
-0.0751636
0.0645865
-0.300704
0.0222687
-0.288292
0.022933
-0.276611
0.0236217
-0.265338
0.0243348
-0.254732
0.0250765
-0.2445
0.025841
-0.234723
0.026624
-0.225326
0.0274265
-0.216314
0.0282502
-0.207607
0.0290936
-0.199298
0.029964
-0.191309
0.0308571
-0.183651
0.03178
-0.176305
0.0327311
-0.16926
0.0337137
-0.162496
0.0347273
-0.156017
0.0357781
-0.149794
0.0368657
-0.143828
0.0379911
-0.138106
0.0391604
-0.132605
0.040369
-0.127331
0.0416311
-0.122273
0.0429219
-0.117406
0.0442753
-0.112739
0.0456712
-0.108257
0.047122
-0.10395
0.0486274
-0.0998193
0.0501744
-0.0958489
0.0517876
-0.0920396
0.0534411
-0.0883714
0.055147
-0.08486
0.0569291
-0.0814806
0.0587627
-0.0782436
0.060642
-0.0751243
0.0625979
-0.072138
0.0645468
-0.300684
0.0215809
-0.288249
0.0222255
-0.276569
0.0228917
-0.265301
0.0235843
-0.254702
0.024305
-0.244469
0.0250453
-0.234687
0.0258052
-0.225284
0.026582
-0.216266
0.027379
-0.207555
0.0281982
-0.199242
0.0290378
-0.19125
0.029905
-0.183589
0.0307954
-0.176241
0.0317161
-0.169194
0.0326654
-0.162429
0.0336468
-0.15595
0.0346599
-0.149726
0.0357106
-0.143761
0.0367988
-0.13804
0.0379253
-0.132541
0.0390961
-0.127269
0.0403065
-0.122213
0.0415707
-0.117348
0.0428638
-0.112683
0.0442195
-0.108204
0.0456178
-0.103899
0.0470709
-0.0997705
0.0485785
-0.0958022
0.0501277
-0.0919947
0.0517427
-0.0883284
0.0533981
-0.0848185
0.0551055
-0.0814404
0.0568889
-0.0782045
0.0587236
-0.0750861
0.0606038
-0.0721007
0.0625606
-0.0692332
0.064509
-0.300662
0.0209137
-0.288207
0.0215387
-0.27653
0.0221863
-0.265266
0.022857
-0.254675
0.0235566
-0.244439
0.0242752
-0.234652
0.0250108
-0.225243
0.0257646
-0.21622
0.0265361
-0.207505
0.0273287
-0.199188
0.0281441
-0.191192
0.0289805
-0.183529
0.0298448
-0.176178
0.0307327
-0.16913
0.0316516
-0.162363
0.0325996
-0.155883
0.0335802
-0.149659
0.034593
-0.143695
0.0356441
-0.137974
0.0367332
-0.132477
0.0378611
-0.127206
0.0390336
-0.122153
0.0402461
-0.11729
0.0415125
-0.112627
0.0428079
-0.10815
0.0441661
-0.103848
0.0455667
-0.0997218
0.0470222
-0.0957557
0.048532
-0.0919503
0.0500832
-0.0882858
0.0517001
-0.0847776
0.0533571
-0.0814009
0.0550661
-0.0781663
0.0568507
-0.075049
0.0586865
-0.0720644
0.0605674
-0.0691978
0.0625252
-0.0664443
0.0644732
-0.300639
0.0202684
-0.288166
0.0208726
-0.276493
0.0215017
-0.265234
0.0221542
-0.254649
0.0228312
-0.244411
0.0235281
-0.234619
0.0242419
-0.225204
0.0249715
-0.216176
0.0257202
-0.207456
0.0264875
-0.199136
0.0272764
-0.191137
0.0280884
-0.18347
0.0289218
-0.176117
0.0297835
-0.169066
0.0306694
-0.162298
0.0315867
-0.155818
0.0325338
-0.149593
0.033514
-0.143629
0.034527
-0.137909
0.0355788
-0.132413
0.036669
-0.127144
0.0377986
-0.122092
0.0389731
-0.117231
0.0401878
-0.112571
0.0414566
-0.108097
0.0427544
-0.103797
0.044115
-0.0996731
0.045518
-0.0957093
0.0469758
-0.091906
0.0484878
-0.0882435
0.050041
-0.0847371
0.0516597
-0.0813621
0.0533183
-0.0781289
0.0550286
-0.0750128
0.0568145
-0.0720292
0.0586513
-0.0691633
0.060533
-0.0664107
0.0624916
-0.0637663
0.064439
-0.300616
0.0196424
-0.288126
0.0202285
-0.276458
0.0208377
-0.265204
0.021472
-0.254625
0.0221302
-0.244384
0.022804
-0.234587
0.023496
-0.225166
0.024204
-0.216133
0.0249287
-0.20741
0.0256733
-0.199085
0.0264369
-0.191083
0.0272224
-0.183413
0.0280314
-0.176057
0.028862
-0.169004
0.0297215
-0.162235
0.0306057
-0.155753
0.0315218
-0.149527
0.0324682
-0.143563
0.0334484
-0.137844
0.0344619
-0.132349
0.0355147
-0.127081
0.0366065
-0.122031
0.037738
-0.117173
0.0389146
-0.112515
0.0401316
-0.108043
0.0414028
-0.103746
0.0427032
-0.0996243
0.0440662
-0.0956629
0.0454716
-0.0918619
0.0469316
-0.0882015
0.0484457
-0.084697
0.0500008
-0.0813237
0.0516213
-0.0780921
0.0532815
-0.0749773
0.0549932
-0.0719948
0.0567801
-0.0691299
0.0586179
-0.066378
0.0605002
-0.0637344
0.0624597
-0.0611991
0.0644066
-0.300592
0.0190356
-0.288087
0.0196038
-0.276426
0.0201957
-0.265177
0.0208103
-0.254603
0.0214496
-0.244358
0.0221042
-0.234556
0.0227731
-0.22513
0.0234594
-0.216092
0.0241628
-0.207364
0.0248835
-0.199036
0.0256245
-0.191031
0.0263847
-0.183358
0.0271669
-0.175999
0.0279731
-0.168944
0.0288013
-0.162172
0.0296589
-0.155689
0.0305417
-0.149463
0.031457
-0.143498
0.0324032
-0.137779
0.0333836
-0.132285
0.034398
-0.127019
0.0354521
-0.12197
0.0365457
-0.117114
0.0376792
-0.112459
0.0388582
-0.107989
0.0400776
-0.103694
0.0413513
-0.0995753
0.0426542
-0.0956164
0.0440197
-0.0918177
0.0454275
-0.0881595
0.0468897
-0.0846571
0.0484058
-0.0812857
0.0499628
-0.0780557
0.0515849
-0.0749424
0.0532466
-0.0719612
0.0549595
-0.0690973
0.0567475
-0.0663463
0.0585862
-0.0637033
0.0604691
-0.0611688
0.0624295
-0.0587326
0.0643758
-0.300567
0.0184468
-0.28805
0.0189984
-0.276395
0.019573
-0.265152
0.0201705
-0.254582
0.0207894
-0.244333
0.0214247
-0.234526
0.0220744
-0.225095
0.0227379
-0.216052
0.0234199
-0.207321
0.0241193
-0.198989
0.0248364
-0.19098
0.025574
-0.183304
0.0263309
-0.175942
0.0271102
-0.168884
0.0279137
-0.162111
0.0287399
-0.155626
0.0295959
-0.149399
0.0304777
-0.143434
0.0313925
-0.137715
0.0323388
-0.132221
0.0333199
-0.126956
0.0343354
-0.121909
0.0353911
-0.117055
0.0364867
-0.112402
0.0376224
-0.107934
0.0388038
-0.103643
0.0400258
-0.099526
0.0413021
-0.0955696
0.0426074
-0.0917734
0.0439753
-0.0881175
0.0453855
-0.0846172
0.0468498
-0.0812478
0.0483679
-0.0780196
0.0499267
-0.0749079
0.0515504
-0.071928
0.0532135
-0.0690655
0.0549276
-0.0663154
0.0567166
-0.0636733
0.0585562
-0.0611393
0.0604396
-0.0587039
0.0624008
-0.0563619
0.0643465
-0.300541
0.0178773
-0.288014
0.0184111
-0.276366
0.0189695
-0.265128
0.0195497
-0.254562
0.0201508
-0.244309
0.0207655
-0.234497
0.021396
-0.225061
0.0220406
-0.216014
0.0226999
-0.207279
0.0233781
-0.198944
0.0240739
-0.190931
0.0247876
-0.183252
0.0255218
-0.175887
0.0262757
-0.168826
0.0270523
-0.162051
0.0278536
-0.155564
0.0286779
-0.149335
0.0295327
-0.14337
0.0304138
-0.137651
0.0313286
-0.132157
0.0322753
-0.126894
0.0332573
-0.121848
0.0342743
-0.116996
0.0353318
-0.112345
0.0364295
-0.10788
0.0375677
-0.10359
0.0387516
-0.0994764
0.0399762
-0.0955225
0.041255
-0.0917288
0.0425629
-0.0880754
0.0439332
-0.0845773
0.0453455
-0.08121
0.046812
-0.0779837
0.048332
-0.0748737
0.0498925
-0.0718954
0.0515177
-0.0690341
0.0531821
-0.0662852
0.0548974
-0.063644
0.0566873
-0.0611108
0.0585277
-0.0586759
0.0604116
-0.0563347
0.0623736
-0.054097
0.0643187
-0.300515
0.0173257
-0.28798
0.017843
-0.276339
0.0183839
-0.265107
0.0189481
-0.254544
0.0195313
-0.244286
0.0201279
-0.23447
0.020738
-0.225028
0.0213636
-0.215978
0.0220042
-0.207239
0.0226598
-0.1989
0.0233344
-0.190884
0.0240268
-0.183201
0.0247371
-0.175833
0.0254683
-0.16877
0.0262193
-0.161992
0.0269935
-0.155503
0.0277928
-0.149273
0.0286157
-0.143307
0.0294695
-0.137587
0.0303504
-0.132094
0.0312653
-0.126831
0.0322128
-0.121787
0.0331961
-0.116936
0.0342147
-0.112287
0.0352743
-0.107825
0.0363743
-0.103538
0.037515
-0.0994263
0.0387015
-0.095475
0.0399287
-0.0916839
0.04121
-0.0880329
0.0425204
-0.0845372
0.0438931
-0.0811721
0.0453077
-0.0779478
0.0467761
-0.0748396
0.048298
-0.0718629
0.0498601
-0.0690031
0.0514868
-0.0662554
0.0531524
-0.0636153
0.0548687
-0.061083
0.0566595
-0.0586489
0.0585007
-0.0563081
0.060385
-0.0540712
0.0623478
-0.0519177
0.0642922
-0.300488
0.0167895
-0.287947
0.0172931
-0.276313
0.0178176
-0.265087
0.0183643
-0.254526
0.0189307
-0.244264
0.0195093
-0.234443
0.0201015
-0.224997
0.0207069
-0.215943
0.0213287
-0.2072
0.0219657
-0.198858
0.0226178
-0.190839
0.023289
-0.183153
0.023978
-0.175781
0.0246852
-0.168715
0.0254134
-0.161934
0.0261619
-0.155443
0.0269339
-0.149212
0.0277315
-0.143244
0.0285533
-0.137524
0.0294066
-0.132031
0.0302874
-0.126769
0.031203
-0.121726
0.0321515
-0.116876
0.0331363
-0.112229
0.0341568
-0.107769
0.0352186
-0.103485
0.0363211
-0.0993757
0.0374644
-0.0954271
0.0386535
-0.0916385
0.0398833
-0.0879901
0.0411672
-0.0844969
0.0424801
-0.081134
0.043855
-0.0779119
0.0452717
-0.0748056
0.0467421
-0.0718307
0.0482657
-0.0689724
0.0498294
-0.0662261
0.0514574
-0.0635871
0.0531242
-0.0610559
0.0548416
-0.0586225
0.0566331
-0.0562825
0.058475
-0.0540459
0.0603598
-0.0518932
0.0623233
-0.0498241
0.064267
-0.30046
0.0162701
-0.287916
0.0167585
-0.276289
0.0172692
-0.265069
0.0177995
-0.25451
0.0183478
-0.244243
0.0189096
-0.234418
0.019484
-0.224968
0.0200718
-0.21591
0.0206735
-0.207164
0.0212919
-0.198818
0.0219254
-0.190795
0.0225741
-0.183106
0.0232419
-0.175731
0.0239277
-0.168662
0.0246319
-0.161878
0.0253574
-0.155385
0.0261036
-0.149152
0.0268737
-0.143183
0.0276699
-0.137462
0.0284909
-0.131969
0.029344
-0.126707
0.0302252
-0.121664
0.0311416
-0.116816
0.0320914
-0.112171
0.033078
-0.107713
0.0341006
-0.103431
0.0351649
-0.0993245
0.0362699
-0.0953785
0.0374159
-0.0915927
0.0386077
-0.0879469
0.0398401
-0.0844562
0.0411265
-0.0810957
0.0424417
-0.0778757
0.0438189
-0.0747716
0.0452376
-0.0717985
0.0467099
-0.0689419
0.0482352
-0.066197
0.0498003
-0.0635594
0.0514296
-0.0610292
0.0530975
-0.0585968
0.0548158
-0.0562575
0.0566081
-0.0540216
0.0584507
-0.0518692
0.0603358
-0.0498009
0.0623001
-0.0478161
0.064243
-0.300432
0.0157673
-0.287887
0.0162407
-0.276267
0.0167362
-0.265053
0.0172526
-0.254494
0.017784
-0.244223
0.0183277
-0.234394
0.0188854
-0.224939
0.0194556
-0.215878
0.0200399
-0.207128
0.0206383
-0.198779
0.0212532
-0.190753
0.0218833
-0.18306
0.0225287
-0.175682
0.0231932
-0.16861
0.023876
-0.161824
0.0245774
-0.155328
0.0253005
-0.149093
0.0260446
-0.143122
0.0268131
-0.1374
0.0276083
-0.131907
0.0284288
-0.126645
0.029282
-0.121603
0.0301639
-0.116756
0.0310814
-0.112112
0.0320329
-0.107656
0.0330214
-0.103376
0.0340463
-0.0992727
0.0351131
-0.0953294
0.0362208
-0.0915462
0.0373694
-0.0879031
0.0385639
-0.084415
0.0397989
-0.081057
0.0410878
-0.0778393
0.0424053
-0.0747373
0.0437846
-0.0717662
0.0452054
-0.0689114
0.0466794
-0.0661681
0.0482062
-0.0635319
0.0497728
-0.0610029
0.0514033
-0.0585715
0.0530723
-0.0562331
0.0547915
-0.0539979
0.0565844
-0.0518462
0.0584276
-0.0497781
0.060313
-0.0477941
0.062278
-0.0458938
0.0642202
-0.300403
0.0152787
-0.28786
0.0157398
-0.276246
0.0162198
-0.265038
0.016721
-0.254479
0.0172379
-0.244203
0.0177647
-0.234371
0.0183045
-0.224912
0.0188583
-0.215847
0.0194251
-0.207095
0.0200062
-0.198742
0.0206013
-0.190712
0.0212128
-0.183016
0.0218396
-0.175635
0.0224817
-0.16856
0.0231432
-0.161771
0.0238231
-0.155272
0.0245219
-0.149035
0.0252427
-0.143063
0.025985
-0.13734
0.0267522
-0.131845
0.0275467
-0.126583
0.0283671
-0.121542
0.0292207
-0.116696
0.0301035
-0.112053
0.0310225
-0.107599
0.0319758
-0.103322
0.0329665
-0.0992203
0.0339939
-0.0952796
0.0350633
-0.0914991
0.0361737
-0.0878587
0.0373251
-0.0843732
0.0385222
-0.0810178
0.0397597
-0.0778026
0.041051
-0.0747028
0.0423708
-0.0717338
0.0437522
-0.0688808
0.0451748
-0.0661393
0.0466506
-0.0635045
0.0481789
-0.0609768
0.0497468
-0.0585466
0.0513784
-0.0562091
0.0530483
-0.0539748
0.0547683
-0.0518237
0.0565619
-0.0497562
0.0584057
-0.0477725
0.0602914
-0.0458729
0.0622571
-0.044042
0.0641985
-0.300373
0.0148069
-0.287834
0.015253
-0.276226
0.0157202
-0.265024
0.016206
-0.254465
0.016707
-0.244185
0.0172194
-0.234349
0.0177425
-0.224886
0.0182786
-0.215818
0.0188293
-0.207062
0.0193929
-0.198707
0.0199708
-0.190674
0.0205625
-0.182974
0.0211708
-0.17559
0.0217943
-0.168512
0.0224333
-0.161719
0.0230918
-0.155218
0.0237689
-0.148978
0.0244654
-0.143004
0.0251842
-0.13728
0.025925
-0.131784
0.0266912
-0.126521
0.0274853
-0.121481
0.0283059
-0.116635
0.0291603
-0.111994
0.0300444
-0.107542
0.030965
-0.103266
0.0319204
-0.0991672
0.0329134
-0.0952291
0.0339434
-0.0914513
0.0350155
-0.0878137
0.0361286
-0.0843309
0.0372827
-0.0809781
0.0384824
-0.0777653
0.0397225
-0.0746679
0.0410161
-0.0717011
0.0423381
-0.0688501
0.0437215
-0.0661103
0.0451459
-0.0634772
0.0466232
-0.0609509
0.048153
-0.058522
0.0497221
-0.0561856
0.0513549
-0.0539521
0.0530257
-0.0518018
0.0547464
-0.0497349
0.0565406
-0.0477517
0.058385
-0.0458523
0.0602708
-0.0440222
0.0622373
-0.0422658
0.0641779
-0.300343
0.0143493
-0.28781
0.0147829
-0.276208
0.0152346
-0.265011
0.0157075
-0.254452
0.0161926
-0.244167
0.0166894
-0.234327
0.0171983
-0.224861
0.0177179
-0.215791
0.018251
-0.207032
0.0187986
-0.198673
0.0193591
-0.190637
0.0199337
-0.182934
0.0205222
-0.175547
0.0211272
-0.168465
0.0217475
-0.16167
0.0223834
-0.155166
0.0230391
-0.148923
0.0237138
-0.142947
0.024408
-0.13722
0.0251251
-0.131724
0.0258647
-0.126461
0.0266303
-0.12142
0.0274244
-0.116575
0.0282455
-0.111935
0.0291009
-0.107484
0.0299865
-0.10321
0.0309091
-0.0991135
0.0318666
-0.0951779
0.0328622
-0.0914028
0.0338948
-0.0877679
0.0349697
-0.0842878
0.0360856
-0.0809377
0.0372424
-0.0777276
0.0384447
-0.0746326
0.0396872
-0.071668
0.0409831
-0.0688191
0.0423072
-0.0660813
0.0436924
-0.0634498
0.0451185
-0.0609251
0.0465974
-0.0584975
0.0481285
-0.0561623
0.0496988
-0.0539298
0.0513326
-0.0517803
0.0530042
-0.0497141
0.0547257
-0.0477314
0.0565203
-0.0458326
0.0583653
-0.0440026
0.0602513
-0.042247
0.0622185
-0.0405701
0.0641583
-0.300313
0.0139045
-0.287788
0.014327
-0.276191
0.0147657
-0.264999
0.015223
-0.254439
0.0156948
-0.244151
0.0161758
-0.234307
0.0166693
-0.224838
0.0171749
-0.215765
0.0176917
-0.207002
0.0182217
-0.198641
0.0187662
-0.190601
0.0193236
-0.182895
0.019895
-0.175505
0.0204803
-0.16842
0.0210821
-0.161621
0.0216993
-0.155115
0.0223323
-0.148869
0.0229853
-0.142891
0.0236577
-0.137162
0.02435
-0.131664
0.0250657
-0.1264
0.0258044
-0.121359
0.0265697
-0.116514
0.027364
-0.111875
0.028186
-0.107425
0.0290427
-0.103154
0.02993
-0.0990591
0.0308547
-0.0951259
0.0318147
-0.0913534
0.0328129
-0.0877213
0.0338482
-0.084244
0.0349259
-0.0808967
0.0360445
-0.0776892
0.037204
-0.0745967
0.0384088
-0.0716345
0.0396537
-0.0687878
0.0409517
-0.066052
0.0422779
-0.0634223
0.0436649
-0.0608992
0.0450927
-0.0584731
0.046573
-0.0561391
0.0481053
-0.0539077
0.0496767
-0.0517592
0.0513114
-0.0496938
0.0529838
-0.0477118
0.054706
-0.0458134
0.0565011
-0.0439839
0.0583466
-0.0422284
0.0602327
-0.0405523
0.0622007
-0.0389299
0.0641396
-0.300282
0.0134751
-0.287767
0.013884
-0.276175
0.0143108
-0.264989
0.0147551
-0.254427
0.0152109
-0.244135
0.0156788
-0.234288
0.0161567
-0.224816
0.016647
-0.21574
0.0171499
-0.206975
0.0176638
-0.19861
0.0181909
-0.190567
0.0187323
-0.182858
0.0192865
-0.175464
0.0198547
-0.168376
0.0204368
-0.161575
0.0210355
-0.155065
0.0216498
-0.148817
0.02228
-0.142836
0.0229306
-0.137106
0.0236008
-0.131606
0.0242915
-0.126341
0.025006
-0.121299
0.0257441
-0.116454
0.0265094
-0.111816
0.0273043
-0.107367
0.0281274
-0.103097
0.0289858
-0.0990042
0.0298751
-0.0950733
0.0308021
-0.0913033
0.0317646
-0.0876739
0.0327655
-0.0841994
0.0338036
-0.0808549
0.034884
-0.0776501
0.0360054
-0.0745602
0.0371675
-0.0716005
0.0383748
-0.0687561
0.0396219
-0.0660223
0.0409221
-0.0633946
0.0422501
-0.0608732
0.0436389
-0.0584486
0.0450682
-0.056116
0.0465499
-0.0538858
0.0480834
-0.0517383
0.0496559
-0.0496738
0.0512915
-0.0476925
0.0529646
-0.0457948
0.0546873
-0.0439657
0.0564829
-0.0422107
0.0583288
-0.0405346
0.060215
-0.038913
0.0621838
-0.0373652
0.0641218
-0.300251
0.0130573
-0.287748
0.0134564
-0.276159
0.0138687
-0.264979
0.0143012
-0.254415
0.0147435
-0.244119
0.0151957
-0.23427
0.0156606
-0.224795
0.0161356
-0.215716
0.0166233
-0.206948
0.0171234
-0.19858
0.0176344
-0.190535
0.0181585
-0.182823
0.0186968
-0.175426
0.0192479
-0.168335
0.0198129
-0.16153
0.0203919
-0.155017
0.0209875
-0.148766
0.0215989
-0.142782
0.0222266
-0.13705
0.0228749
-0.131548
0.0235433
-0.126282
0.0242326
-0.121239
0.0249463
-0.116394
0.0256841
-0.111756
0.0264498
-0.107308
0.0272456
-0.103039
0.0280701
-0.0989486
0.0289302
-0.0950199
0.0298217
-0.0912524
0.0307512
-0.0876256
0.0317164
-0.0841539
0.03272
-0.0808122
0.0337609
-0.0776102
0.0348442
-0.074523
0.0359682
-0.0715658
0.0371328
-0.0687238
0.0383425
-0.0659923
0.0395919
-0.0633666
0.0408941
-0.060847
0.0422239
-0.058424
0.0436143
-0.0560929
0.0450451
-0.053864
0.046528
-0.0517176
0.0480627
-0.049654
0.0496361
-0.0476736
0.0512725
-0.0457765
0.0529463
-0.043948
0.0546697
-0.0421933
0.0564656
-0.0405178
0.058312
-0.0388962
0.0601982
-0.0373492
0.0621677
-0.0358559
0.0641048
-0.300219
0.0126525
-0.287731
0.0130403
-0.276145
0.0134419
-0.264971
0.01386
-0.254404
0.0142901
-0.244105
0.014729
-0.234253
0.0151784
-0.224775
0.0156405
-0.215693
0.016113
-0.206923
0.0165981
-0.198553
0.0170955
-0.190504
0.0176035
-0.182789
0.0181246
-0.175389
0.0186598
-0.168294
0.0192078
-0.161487
0.0197696
-0.154971
0.0203455
-0.148717
0.0209382
-0.14273
0.0215469
-0.136995
0.0221721
-0.131492
0.0228184
-0.126224
0.0234852
-0.12118
0.0241734
-0.116335
0.0248866
-0.111696
0.0256245
-0.107249
0.0263908
-0.102982
0.0271878
-0.0988925
0.028014
-0.0949659
0.0288762
-0.0912007
0.0297701
-0.0875765
0.0307021
-0.0841076
0.03167
-0.0807687