/*--------------------------------*- C++ -*----------------------------------*\
  =========                 |
  \\      /  F ield         | OpenFOAM: The Open Source CFD Toolbox
   \\    /   O peration     | Website:  https://openfoam.org
    \\  /    A nd           | Version:  7
     \\/     M anipulation  |
\*---------------------------------------------------------------------------*/
FoamFile
{
    version     2.0;
    format      ascii;
    class       volVectorField;
    location    "1800";
    object      U;
}
// * * * * * * * * * * * * * * * * * * * * * * * * * * * * * * * * * * * * * //

dimensions      [0 1 -1 0 0 0 0];

internalField   nonuniform List<vector> 
23117
(
(49.9702 13.1508 0)
(49.9165 13.0923 0)
(50.0606 13.1469 0)
(49.8942 13.056 0)
(50.0205 13.1414 0)
(50.1234 13.1221 0)
(49.8763 13.0208 0)
(50.0015 13.1286 0)
(50.09 13.1151 0)
(50.1896 13.0852 0)
(49.8654 12.9906 0)
(49.9785 13.1134 0)
(50.0728 13.1051 0)
(50.1524 13.0743 0)
(50.2361 13.0591 0)
(49.8571 12.9642 0)
(49.962 13.0991 0)
(50.0509 13.0936 0)
(50.1336 13.0632 0)
(50.1954 13.0519 0)
(50.2644 13.031 0)
(49.8509 12.941 0)
(49.9477 13.0863 0)
(50.0335 13.0816 0)
(50.1097 13.0517 0)
(50.1747 13.0417 0)
(50.2176 13.0234 0)
(50.2747 12.9991 0)
(49.8459 12.9205 0)
(49.9359 13.0753 0)
(50.0173 13.0698 0)
(50.0895 13.0402 0)
(50.1467 13.0314 0)
(50.1939 13.0128 0)
(50.2213 12.9902 0)
(50.2707 12.9657 0)
(49.8417 12.9025 0)
(49.9256 13.0659 0)
(50.0031 13.0586 0)
(50.0699 13.029 0)
(50.1221 13.0206 0)
(50.1614 13.0022 0)
(50.195 12.979 0)
(50.2139 12.9565 0)
(50.2618 12.9328 0)
(49.8381 12.8865 0)
(49.9166 13.0582 0)
(49.99 13.0482 0)
(50.0514 13.0184 0)
(50.0976 13.0101 0)
(50.1324 12.9912 0)
(50.1591 12.9682 0)
(50.1873 12.9456 0)
(50.2061 12.9244 0)
(50.2571 12.9026 0)
(49.835 12.8725 0)
(49.9083 13.0519 0)
(49.9778 13.0386 0)
(50.0337 13.0084 0)
(50.0739 12.9998 0)
(50.1034 12.9803 0)
(50.1277 12.9571 0)
(50.1509 12.9352 0)
(50.1815 12.9145 0)
(50.2058 12.896 0)
(50.2608 12.8766 0)
(49.8322 12.8601 0)
(49.9007 13.047 0)
(49.9662 13.0299 0)
(50.0165 12.9991 0)
(50.0508 12.99 0)
(50.0756 12.9696 0)
(50.0967 12.9464 0)
(50.12 12.9249 0)
(50.1475 12.9051 0)
(50.1842 12.8873 0)
(50.2148 12.872 0)
(50.2722 12.8541 0)
(49.8297 12.8492 0)
(49.8935 13.0432 0)
(49.955 13.0219 0)
(49.9996 12.9907 0)
(50.0283 12.9807 0)
(50.0487 12.9594 0)
(50.0675 12.9361 0)
(50.09 12.9151 0)
(50.1192 12.896 0)
(50.1535 12.8791 0)
(50.1955 12.8641 0)
(50.2298 12.8512 0)
(50.2876 12.834 0)
(49.8274 12.8397 0)
(49.8866 13.0405 0)
(49.9441 13.0147 0)
(49.9829 12.9829 0)
(50.0062 12.9721 0)
(50.0229 12.9498 0)
(50.0398 12.9265 0)
(50.0623 12.9059 0)
(50.092 12.8875 0)
(50.1283 12.8712 0)
(50.1675 12.8568 0)
(50.2117 12.8435 0)
(50.2463 12.8321 0)
(50.3029 12.8149 0)
(49.8252 12.8315 0)
(49.8799 13.0387 0)
(49.9334 13.0081 0)
(49.9664 12.9759 0)
(49.9846 12.9641 0)
(49.9981 12.9409 0)
(50.0138 12.9175 0)
(50.0365 12.8974 0)
(50.0671 12.8795 0)
(50.1038 12.8638 0)
(50.1443 12.8497 0)
(50.1848 12.8367 0)
(50.228 12.8241 0)
(50.2607 12.8134 0)
(50.3155 12.7962 0)
(49.8233 12.8245 0)
(49.8733 13.0377 0)
(49.9226 13.0021 0)
(49.95 12.9697 0)
(49.9636 12.9567 0)
(49.9743 12.9327 0)
(49.9893 12.9094 0)
(50.0126 12.8897 0)
(50.044 12.8723 0)
(50.0812 12.8569 0)
(50.1211 12.8429 0)
(50.1619 12.8298 0)
(50.2009 12.8173 0)
(50.2416 12.8049 0)
(50.2715 12.7947 0)
(50.3247 12.7775 0)
(49.8214 12.8185 0)
(49.8668 13.0375 0)
(49.9119 12.9968 0)
(49.9337 12.9641 0)
(49.9431 12.95 0)
(49.9517 12.9252 0)
(49.9665 12.9021 0)
(49.9904 12.8827 0)
(50.0225 12.8657 0)
(50.0598 12.8504 0)
(50.0993 12.8364 0)
(50.1386 12.8231 0)
(50.1772 12.8102 0)
(50.2134 12.7979 0)
(50.2515 12.7857 0)
(50.2789 12.776 0)
(50.3309 12.7591 0)
(49.8195 12.8135 0)
(49.8602 13.038 0)
(49.9011 12.9919 0)
(49.9175 12.9592 0)
(49.9232 12.944 0)
(49.9303 12.9186 0)
(49.9451 12.8957 0)
(49.9698 12.8766 0)
(50.0025 12.8598 0)
(50.0396 12.8445 0)
(50.0781 12.8302 0)
(50.1162 12.8165 0)
(50.1529 12.8032 0)
(50.1887 12.7905 0)
(50.2223 12.7785 0)
(50.2584 12.7667 0)
(50.2838 12.7576 0)
(50.3351 12.741 0)
(49.8178 12.8094 0)
(49.8536 13.039 0)
(49.8902 12.9875 0)
(49.9015 12.955 0)
(49.9039 12.9388 0)
(49.91 12.9128 0)
(49.9252 12.8902 0)
(49.9507 12.8714 0)
(49.9836 12.8546 0)
(50.0202 12.8391 0)
(50.0576 12.8244 0)
(50.0941 12.8101 0)
(50.1294 12.7963 0)
(50.1633 12.7832 0)
(50.1967 12.7707 0)
(50.2284 12.7593 0)
(50.2632 12.7481 0)
(50.2873 12.7396 0)
(50.338 12.7236 0)
(49.816 12.8061 0)
(49.8469 13.0405 0)
(49.8793 12.9835 0)
(49.8856 12.9514 0)
(49.8854 12.9342 0)
(49.8908 12.9079 0)
(49.9067 12.8855 0)
(49.9329 12.8669 0)
(49.9658 12.85 0)
(50.0016 12.8342 0)
(50.0376 12.819 0)
(50.0725 12.8041 0)
(50.1061 12.7897 0)
(50.1387 12.776 0)
(50.1705 12.7632 0)
(50.2022 12.7513 0)
(50.2328 12.7405 0)
(50.2666 12.7301 0)
(50.2899 12.7224 0)
(50.3401 12.7068 0)
(49.8143 12.8036 0)
(49.8401 13.0425 0)
(49.8683 12.9799 0)
(49.87 12.9484 0)
(49.8676 12.9302 0)
(49.8729 12.9038 0)
(49.8894 12.8818 0)
(49.9161 12.8632 0)
(49.9489 12.8461 0)
(49.9836 12.8298 0)
(50.018 12.8139 0)
(50.0512 12.7983 0)
(50.0833 12.7833 0)
(50.1144 12.769 0)
(50.1451 12.7557 0)
(50.1756 12.7435 0)
(50.2063 12.7324 0)
(50.236 12.7224 0)
(50.2693 12.7128 0)
(50.2918 12.7058 0)
(50.3416 12.6907 0)
(49.8125 12.8017 0)
(49.8332 13.0449 0)
(49.8573 12.9767 0)
(49.8546 12.946 0)
(49.8506 12.927 0)
(49.856 12.9005 0)
(49.8734 12.8788 0)
(49.9004 12.8603 0)
(49.9326 12.8428 0)
(49.9661 12.8259 0)
(49.9988 12.8093 0)
(50.0303 12.7929 0)
(50.0607 12.7772 0)
(50.0906 12.7623 0)
(50.1202 12.7485 0)
(50.1498 12.7359 0)
(50.1795 12.7245 0)
(50.2096 12.7142 0)
(50.2387 12.705 0)
(50.2714 12.6961 0)
(50.2933 12.69 0)
(50.3426 12.6753 0)
(49.8107 12.8005 0)
(49.8261 13.0476 0)
(49.8463 12.9738 0)
(49.8396 12.9441 0)
(49.8344 12.9244 0)
(49.8403 12.898 0)
(49.8584 12.8767 0)
(49.8855 12.8581 0)
(49.9169 12.8402 0)
(49.9489 12.8226 0)
(49.9799 12.8051 0)
(50.0096 12.7879 0)
(50.0386 12.7714 0)
(50.0672 12.7559 0)
(50.0958 12.7415 0)
(50.1245 12.7284 0)
(50.1535 12.7167 0)
(50.1826 12.7061 0)
(50.2122 12.6967 0)
(50.2407 12.6883 0)
(50.273 12.6802 0)
(50.2943 12.6749 0)
(50.3432 12.6605 0)
(49.8089 12.7998 0)
(49.8189 13.0505 0)
(49.8352 12.9712 0)
(49.825 12.9427 0)
(49.8191 12.9223 0)
(49.8256 12.8962 0)
(49.8443 12.8752 0)
(49.8714 12.8565 0)
(49.9017 12.8381 0)
(49.9321 12.8197 0)
(49.9612 12.8014 0)
(49.9893 12.7833 0)
(50.0168 12.7661 0)
(50.0442 12.7498 0)
(50.0718 12.7348 0)
(50.0998 12.7212 0)
(50.128 12.709 0)
(50.1566 12.6981 0)
(50.1852 12.6885 0)
(50.2143 12.6799 0)
(50.2423 12.6723 0)
(50.2741 12.665 0)
(50.2949 12.6604 0)
(50.3434 12.6464 0)
(49.807 12.7997 0)
(49.8116 13.0537 0)
(49.8243 12.9689 0)
(49.8109 12.9419 0)
(49.8047 12.9209 0)
(49.8119 12.8951 0)
(49.8312 12.8744 0)
(49.8579 12.8555 0)
(49.8869 12.8366 0)
(49.9155 12.8174 0)
(49.9428 12.7982 0)
(49.9693 12.7793 0)
(49.9954 12.7612 0)
(50.0216 12.7442 0)
(50.0483 12.7285 0)
(50.0754 12.7143 0)
(50.103 12.7015 0)
(50.1309 12.6902 0)
(50.1591 12.6802 0)
(50.1872 12.6715 0)
(50.2159 12.6638 0)
(50.2435 12.657 0)
(50.2748 12.6504 0)
(50.295 12.6465 0)
(50.3431 12.6329 0)
(49.805 12.8 0)
(49.8041 13.0571 0)
(49.8134 12.9669 0)
(49.7972 12.9416 0)
(49.7911 12.92 0)
(49.7991 12.8946 0)
(49.8188 12.8742 0)
(49.8449 12.8551 0)
(49.8725 12.8356 0)
(49.8992 12.8156 0)
(49.9247 12.7955 0)
(49.9495 12.7757 0)
(49.9743 12.7567 0)
(49.9994 12.739 0)
(50.0252 12.7226 0)
(50.0516 12.7077 0)
(50.0785 12.6943 0)
(50.1058 12.6825 0)
(50.1333 12.6721 0)
(50.1611 12.663 0)
(50.1889 12.6552 0)
(50.2171 12.6483 0)
(50.2442 12.6423 0)
(50.2751 12.6364 0)
(50.2949 12.6333 0)
(50.3426 12.62 0)
(49.803 12.8008 0)
(49.7965 13.0606 0)
(49.8027 12.9651 0)
(49.7841 12.9418 0)
(49.7784 12.9197 0)
(49.7872 12.8948 0)
(49.8071 12.8746 0)
(49.8324 12.8552 0)
(49.8584 12.8351 0)
(49.8832 12.8144 0)
(49.9069 12.7934 0)
(49.9301 12.7727 0)
(49.9536 12.7528 0)
(49.9777 12.7342 0)
(50.0025 12.7171 0)
(50.0281 12.7015 0)
(50.0543 12.6874 0)
(50.081 12.675 0)
(50.108 12.6641 0)
(50.1353 12.6546 0)
(50.1627 12.6465 0)
(50.1901 12.6395 0)
(50.218 12.6335 0)
(50.2447 12.6283 0)
(50.2751 12.6231 0)
(50.2945 12.6207 0)
(50.3418 12.6077 0)
(49.8008 12.8019 0)
(49.7888 13.0642 0)
(49.7922 12.9636 0)
(49.7715 12.9424 0)
(49.7665 12.9199 0)
(49.776 12.8955 0)
(49.796 12.8755 0)
(49.8203 12.8557 0)
(49.8446 12.835 0)
(49.8675 12.8135 0)
(49.8894 12.7917 0)
(49.9111 12.7702 0)
(49.9332 12.7495 0)
(49.9562 12.73 0)
(49.9801 12.712 0)
(50.0049 12.6956 0)
(50.0304 12.6808 0)
(50.0565 12.6677 0)
(50.0831 12.6562 0)
(50.1099 12.6463 0)
(50.1369 12.6378 0)
(50.164 12.6306 0)
(50.1911 12.6246 0)
(50.2185 12.6193 0)
(50.2448 12.6149 0)
(50.2749 12.6104 0)
(50.2938 12.6086 0)
(50.3408 12.596 0)
(49.7985 12.8033 0)
(49.7811 13.068 0)
(49.7819 12.9622 0)
(49.7595 12.9434 0)
(49.7554 12.9205 0)
(49.7656 12.8968 0)
(49.7854 12.8769 0)
(49.8085 12.8567 0)
(49.831 12.8354 0)
(49.852 12.8132 0)
(49.8722 12.7906 0)
(49.8924 12.7683 0)
(49.9133 12.7467 0)
(49.9352 12.7264 0)
(49.9581 12.7075 0)
(49.9821 12.6902 0)
(50.0069 12.6746 0)
(50.0324 12.6608 0)
(50.0584 12.6486 0)
(50.0848 12.6381 0)
(50.1114 12.6292 0)
(50.1382 12.6217 0)
(50.165 12.6154 0)
(50.1917 12.6102 0)
(50.2189 12.6058 0)
(50.2447 12.6022 0)
(50.2745 12.5983 0)
(50.293 12.5971 0)
(50.3396 12.5848 0)
(49.7961 12.8051 0)
(49.7733 13.0717 0)
(49.7718 12.9611 0)
(49.7481 12.9449 0)
(49.7451 12.9215 0)
(49.7559 12.8985 0)
(49.7754 12.8787 0)
(49.7971 12.8581 0)
(49.8177 12.8361 0)
(49.8369 12.8132 0)
(49.8553 12.79 0)
(49.874 12.7669 0)
(49.8937 12.7445 0)
(49.9144 12.7233 0)
(49.9364 12.7034 0)
(49.9595 12.6852 0)
(49.9836 12.6688 0)
(50.0085 12.6541 0)
(50.034 12.6413 0)
(50.06 12.6301 0)
(50.0863 12.6207 0)
(50.1127 12.6127 0)
(50.1392 12.6062 0)
(50.1658 12.6009 0)
(50.1922 12.5965 0)
(50.219 12.5929 0)
(50.2445 12.59 0)
(50.2739 12.5867 0)
(50.292 12.5862 0)
(50.3383 12.5741 0)
(49.7936 12.807 0)
(49.7654 13.0756 0)
(49.762 12.9602 0)
(49.7374 12.9467 0)
(49.7355 12.923 0)
(49.7468 12.9007 0)
(49.7657 12.8808 0)
(49.786 12.8599 0)
(49.8048 12.8373 0)
(49.822 12.8138 0)
(49.8388 12.7898 0)
(49.8561 12.766 0)
(49.8744 12.7429 0)
(49.8941 12.7207 0)
(49.9151 12.7 0)
(49.9373 12.6808 0)
(49.9606 12.6634 0)
(49.9849 12.6479 0)
(50.0099 12.6342 0)
(50.0354 12.6223 0)
(50.0614 12.6123 0)
(50.0875 12.6038 0)
(50.1138 12.597 0)
(50.1401 12.5914 0)
(50.1664 12.587 0)
(50.1924 12.5835 0)
(50.2189 12.5806 0)
(50.2441 12.5784 0)
(50.2731 12.5757 0)
(50.2909 12.5758 0)
(50.3368 12.564 0)
(49.791 12.8092 0)
(49.7575 13.0794 0)
(49.7526 12.9595 0)
(49.7272 12.9489 0)
(49.7266 12.9248 0)
(49.7382 12.9032 0)
(49.7565 12.8833 0)
(49.7751 12.862 0)
(49.7921 12.8389 0)
(49.8075 12.8147 0)
(49.8227 12.7901 0)
(49.8385 12.7656 0)
(49.8555 12.7417 0)
(49.874 12.7188 0)
(49.894 12.6971 0)
(49.9153 12.6769 0)
(49.9378 12.6585 0)
(49.9614 12.642 0)
(49.9859 12.6275 0)
(50.011 12.6148 0)
(50.0366 12.6041 0)
(50.0626 12.5951 0)
(50.0886 12.5877 0)
(50.1147 12.5818 0)
(50.1408 12.5772 0)
(50.1668 12.5737 0)
(50.1926 12.571 0)
(50.2187 12.5689 0)
(50.2435 12.5673 0)
(50.2722 12.5652 0)
(50.2896 12.5659 0)
(50.3352 12.5543 0)
(49.7882 12.8116 0)
(49.7497 13.0832 0)
(49.7434 12.959 0)
(49.7176 12.9514 0)
(49.7184 12.9268 0)
(49.7302 12.906 0)
(49.7476 12.8861 0)
(49.7646 12.8644 0)
(49.7796 12.8409 0)
(49.7933 12.8161 0)
(49.8069 12.7909 0)
(49.8213 12.7658 0)
(49.837 12.7411 0)
(49.8543 12.7174 0)
(49.8732 12.6947 0)
(49.8936 12.6736 0)
(49.9153 12.6541 0)
(49.9382 12.6366 0)
(49.9621 12.6211 0)
(49.9868 12.6076 0)
(50.0121 12.5961 0)
(50.0377 12.5864 0)
(50.0636 12.5785 0)
(50.0896 12.5722 0)
(50.1156 12.5674 0)
(50.1414 12.5637 0)
(50.1671 12.5611 0)
(50.1926 12.5592 0)
(50.2184 12.5578 0)
(50.2429 12.5568 0)
(50.2712 12.5553 0)
(50.2883 12.5565 0)
(50.3336 12.5451 0)
(49.7853 12.8141 0)
(49.7419 13.087 0)
(49.7347 12.9587 0)
(49.7087 12.9542 0)
(49.7108 12.9292 0)
(49.7226 12.9092 0)
(49.739 12.8891 0)
(49.7543 12.8672 0)
(49.7675 12.8432 0)
(49.7795 12.8179 0)
(49.7916 12.7921 0)
(49.8045 12.7664 0)
(49.8189 12.741 0)
(49.835 12.7165 0)
(49.8527 12.6929 0)
(49.8721 12.6708 0)
(49.8929 12.6503 0)
(49.9151 12.6317 0)
(49.9384 12.6152 0)
(49.9627 12.6008 0)
(49.9876 12.5884 0)
(50.0131 12.578 0)
(50.0388 12.5694 0)
(50.0647 12.5626 0)
(50.0905 12.5574 0)
(50.1163 12.5535 0)
(50.1419 12.5508 0)
(50.1674 12.549 0)
(50.1925 12.5479 0)
(50.218 12.5472 0)
(50.2421 12.5469 0)
(50.2702 12.5458 0)
(50.2869 12.5476 0)
(50.3319 12.5364 0)
(49.7822 12.8168 0)
(49.7342 13.0907 0)
(49.7263 12.9586 0)
(49.7003 12.9573 0)
(49.7038 12.9318 0)
(49.7154 12.9125 0)
(49.7307 12.8924 0)
(49.7443 12.8701 0)
(49.7558 12.8458 0)
(49.7661 12.8201 0)
(49.7766 12.7938 0)
(49.7881 12.7675 0)
(49.8012 12.7414 0)
(49.816 12.7161 0)
(49.8326 12.6917 0)
(49.8509 12.6686 0)
(49.8708 12.6471 0)
(49.8922 12.6274 0)
(49.9149 12.6098 0)
(49.9387 12.5943 0)
(49.9633 12.581 0)
(49.9885 12.5697 0)
(50.0141 12.5605 0)
(50.0398 12.5531 0)
(50.0656 12.5474 0)
(50.0914 12.5432 0)
(50.117 12.5404 0)
(50.1423 12.5385 0)
(50.1675 12.5375 0)
(50.1923 12.5372 0)
(50.2175 12.5371 0)
(50.2413 12.5374 0)
(50.2691 12.5368 0)
(50.2855 12.5391 0)
(50.3301 12.5281 0)
(49.779 12.8195 0)
(49.7265 13.0944 0)
(49.7183 12.9586 0)
(49.6925 12.9606 0)
(49.6972 12.9346 0)
(49.7085 12.9161 0)
(49.7228 12.8958 0)
(49.7347 12.8734 0)
(49.7443 12.8487 0)
(49.753 12.8227 0)
(49.762 12.796 0)
(49.7722 12.7691 0)
(49.7839 12.7423 0)
(49.7974 12.7162 0)
(49.8127 12.691 0)
(49.8299 12.6669 0)
(49.8489 12.6444 0)
(49.8695 12.6236 0)
(49.8915 12.6049 0)
(49.9148 12.5883 0)
(49.939 12.574 0)
(49.9639 12.5618 0)
(49.9894 12.5518 0)
(50.0151 12.5437 0)
(50.0409 12.5375 0)
(50.0666 12.5329 0)
(50.0922 12.5297 0)
(50.1176 12.5278 0)
(50.1427 12.5268 0)
(50.1676 12.5266 0)
(50.1921 12.527 0)
(50.217 12.5275 0)
(50.2404 12.5284 0)
(50.2679 12.5283 0)
(50.284 12.531 0)
(50.3283 12.5202 0)
(49.7756 12.8224 0)
(49.719 13.0981 0)
(49.7106 12.9587 0)
(49.6852 12.9641 0)
(49.6912 12.9376 0)
(49.702 12.9199 0)
(49.715 12.8994 0)
(49.7252 12.8768 0)
(49.7332 12.8519 0)
(49.7403 12.8256 0)
(49.7479 12.7985 0)
(49.7566 12.7711 0)
(49.767 12.7437 0)
(49.7791 12.7169 0)
(49.7932 12.6908 0)
(49.8093 12.6658 0)
(49.8272 12.6423 0)
(49.8469 12.6204 0)
(49.8683 12.6005 0)
(49.891 12.5828 0)
(49.9148 12.5674 0)
(49.9394 12.5542 0)
(49.9647 12.5433 0)
(49.9903 12.5344 0)
(50.0161 12.5276 0)
(50.0419 12.5225 0)
(50.0676 12.519 0)
(50.093 12.5168 0)
(50.1181 12.5158 0)
(50.143 12.5157 0)
(50.1676 12.5163 0)
(50.1918 12.5173 0)
(50.2164 12.5185 0)
(50.2395 12.5198 0)
(50.2667 12.5202 0)
(50.2825 12.5233 0)
(50.3265 12.5127 0)
(49.7721 12.8253 0)
(49.7116 13.1017 0)
(49.7034 12.9591 0)
(49.6785 12.9678 0)
(49.6856 12.9407 0)
(49.6959 12.9238 0)
(49.7076 12.9031 0)
(49.7161 12.8804 0)
(49.7225 12.8553 0)
(49.7281 12.8288 0)
(49.7342 12.8015 0)
(49.7415 12.7736 0)
(49.7504 12.7457 0)
(49.7612 12.718 0)
(49.7741 12.6911 0)
(49.7889 12.6652 0)
(49.8058 12.6407 0)
(49.8246 12.6178 0)
(49.8451 12.5968 0)
(49.8672 12.5779 0)
(49.8906 12.5612 0)
(49.9149 12.547 0)
(49.94 12.5351 0)
(49.9656 12.5254 0)
(49.9914 12.5178 0)
(50.0172 12.5121 0)
(50.043 12.5081 0)
(50.0685 12.5057 0)
(50.0938 12.5045 0)
(50.1187 12.5044 0)
(50.1433 12.5052 0)
(50.1676 12.5064 0)
(50.1915 12.5081 0)
(50.2158 12.5098 0)
(50.2385 12.5117 0)
(50.2654 12.5125 0)
(50.2809 12.5161 0)
(50.3246 12.5055 0)
(49.7684 12.8282 0)
(49.7044 13.1052 0)
(49.6965 12.9596 0)
(49.6722 12.9717 0)
(49.6804 12.9439 0)
(49.6899 12.9278 0)
(49.7004 12.907 0)
(49.7073 12.8842 0)
(49.7121 12.8589 0)
(49.7162 12.8323 0)
(49.7209 12.8047 0)
(49.7268 12.7765 0)
(49.7343 12.748 0)
(49.7438 12.7197 0)
(49.7552 12.692 0)
(49.7689 12.6652 0)
(49.7846 12.6397 0)
(49.8024 12.6157 0)
(49.8222 12.5935 0)
(49.8436 12.5735 0)
(49.8664 12.5556 0)
(49.8904 12.5402 0)
(49.9153 12.5272 0)
(49.9408 12.5166 0)
(49.9666 12.5082 0)
(49.9925 12.5018 0)
(50.0184 12.4973 0)
(50.0441 12.4945 0)
(50.0695 12.4931 0)
(50.0945 12.4929 0)
(50.1192 12.4936 0)
(50.1435 12.4951 0)
(50.1675 12.4971 0)
(50.1911 12.4994 0)
(50.2151 12.5017 0)
(50.2376 12.504 0)
(50.2642 12.5052 0)
(50.2794 12.5092 0)
(50.3228 12.4987 0)
(49.7646 12.8311 0)
(49.6975 13.1087 0)
(49.6901 12.9602 0)
(49.6664 12.9758 0)
(49.6755 12.9472 0)
(49.6843 12.9319 0)
(49.6935 12.9109 0)
(49.6988 12.8881 0)
(49.7021 12.8628 0)
(49.7048 12.8361 0)
(49.708 12.8083 0)
(49.7125 12.7798 0)
(49.7186 12.7509 0)
(49.7267 12.7219 0)
(49.7368 12.6934 0)
(49.7492 12.6657 0)
(49.7637 12.6392 0)
(49.7805 12.6141 0)
(49.7993 12.5909 0)
(49.82 12.5696 0)
(49.8423 12.5506 0)
(49.8659 12.534 0)
(49.8905 12.5198 0)
(49.9159 12.5081 0)
(49.9417 12.4988 0)
(49.9677 12.4916 0)
(49.9938 12.4865 0)
(50.0196 12.4832 0)
(50.0452 12.4814 0)
(50.0705 12.481 0)
(50.0953 12.4817 0)
(50.1197 12.4833 0)
(50.1437 12.4856 0)
(50.1675 12.4882 0)
(50.1908 12.4911 0)
(50.2144 12.4939 0)
(50.2366 12.4967 0)
(50.2629 12.4982 0)
(50.2778 12.5026 0)
(50.3209 12.4923 0)
(49.7607 12.8341 0)
(49.6907 13.1121 0)
(49.684 12.961 0)
(49.6611 12.98 0)
(49.671 12.9507 0)
(49.6789 12.9362 0)
(49.6868 12.9149 0)
(49.6906 12.8921 0)
(49.6924 12.8668 0)
(49.6937 12.84 0)
(49.6956 12.8121 0)
(49.6987 12.7834 0)
(49.7034 12.7541 0)
(49.71 12.7246 0)
(49.7187 12.6954 0)
(49.7298 12.6668 0)
(49.7431 12.6393 0)
(49.7588 12.6132 0)
(49.7767 12.5888 0)
(49.7966 12.5664 0)
(49.8182 12.5461 0)
(49.8414 12.5282 0)
(49.8657 12.5128 0)
(49.8909 12.5 0)
(49.9167 12.4896 0)
(49.9428 12.4816 0)
(49.969 12.4757 0)
(49.9951 12.4718 0)
(50.0209 12.4697 0)
(50.0464 12.469 0)
(50.0715 12.4696 0)
(50.0961 12.4712 0)
(50.1202 12.4736 0)
(50.1439 12.4766 0)
(50.1673 12.4798 0)
(50.1903 12.4833 0)
(50.2137 12.4865 0)
(50.2355 12.4898 0)
(50.2616 12.4917 0)
(50.2763 12.4964 0)
(50.3191 12.4862 0)
(49.7567 12.837 0)
(49.6841 13.1154 0)
(49.6783 12.962 0)
(49.6562 12.9842 0)
(49.6668 12.9542 0)
(49.6737 12.9405 0)
(49.6803 12.919 0)
(49.6826 12.8963 0)
(49.6832 12.871 0)
(49.6831 12.8442 0)
(49.6836 12.8162 0)
(49.6853 12.7873 0)
(49.6886 12.7577 0)
(49.6937 12.7278 0)
(49.7011 12.6979 0)
(49.7107 12.6685 0)
(49.7228 12.64 0)
(49.7374 12.6128 0)
(49.7542 12.5873 0)
(49.7732 12.5637 0)
(49.7942 12.5422 0)
(49.8168 12.5231 0)
(49.8408 12.5064 0)
(49.8658 12.4923 0)
(49.8916 12.4808 0)
(49.9178 12.4718 0)
(49.9441 12.4651 0)
(49.9705 12.4605 0)
(49.9966 12.4578 0)
(50.0223 12.4568 0)
(50.0476 12.4572 0)
(50.0725 12.4587 0)
(50.0968 12.4612 0)
(50.1207 12.4643 0)
(50.1441 12.468 0)
(50.1672 12.4719 0)
(50.1899 12.4758 0)
(50.213 12.4795 0)
(50.2345 12.4832 0)
(50.2603 12.4854 0)
(50.2747 12.4905 0)
(50.3173 12.4803 0)
(49.7525 12.8399 0)
(49.6778 13.1186 0)
(49.6729 12.963 0)
(49.6516 12.9886 0)
(49.6628 12.9577 0)
(49.6688 12.9449 0)
(49.6742 12.9232 0)
(49.675 12.9006 0)
(49.6742 12.8753 0)
(49.6729 12.8486 0)
(49.6721 12.8206 0)
(49.6724 12.7915 0)
(49.6742 12.7616 0)
(49.6779 12.7313 0)
(49.6838 12.7009 0)
(49.6921 12.6707 0)
(49.7029 12.6413 0)
(49.7162 12.613 0)
(49.7319 12.5863 0)
(49.75 12.5615 0)
(49.7702 12.5388 0)
(49.7923 12.5184 0)
(49.8158 12.5005 0)
(49.8406 12.4851 0)
(49.8663 12.4724 0)
(49.8926 12.4623 0)
(49.9191 12.4547 0)
(49.9456 12.4493 0)
(49.972 12.446 0)
(49.9981 12.4445 0)
(50.0238 12.4445 0)
(50.0489 12.4459 0)
(50.0735 12.4484 0)
(50.0976 12.4517 0)
(50.1211 12.4556 0)
(50.1443 12.4599 0)
(50.1671 12.4643 0)
(50.1895 12.4688 0)
(50.2122 12.4729 0)
(50.2335 12.477 0)
(50.2591 12.4795 0)
(50.2732 12.4849 0)
(50.3154 12.4748 0)
(49.7482 12.8428 0)
(49.6718 13.1217 0)
(49.6679 12.9641 0)
(49.6475 12.9929 0)
(49.6591 12.9612 0)
(49.664 12.9492 0)
(49.6682 12.9274 0)
(49.6677 12.9051 0)
(49.6657 12.8798 0)
(49.6631 12.8532 0)
(49.661 12.8251 0)
(49.6599 12.796 0)
(49.6603 12.7659 0)
(49.6626 12.7352 0)
(49.667 12.7043 0)
(49.6739 12.6735 0)
(49.6833 12.6432 0)
(49.6953 12.6139 0)
(49.7099 12.5861 0)
(49.727 12.56 0)
(49.7463 12.536 0)
(49.7677 12.5143 0)
(49.7908 12.4951 0)
(49.8153 12.4785 0)
(49.8409 12.4645 0)
(49.8671 12.4532 0)
(49.8938 12.4445 0)
(49.9206 12.4383 0)
(49.9473 12.4342 0)
(49.9737 12.4321 0)
(49.9998 12.4318 0)
(50.0252 12.4329 0)
(50.0502 12.4352 0)
(50.0745 12.4386 0)
(50.0983 12.4427 0)
(50.1216 12.4473 0)
(50.1444 12.4522 0)
(50.1669 12.4572 0)
(50.189 12.4621 0)
(50.2115 12.4666 0)
(50.2324 12.471 0)
(50.2578 12.4738 0)
(50.2716 12.4796 0)
(50.3137 12.4695 0)
(49.7437 12.8456 0)
(49.666 13.1247 0)
(49.6631 12.9653 0)
(49.6436 12.9972 0)
(49.6556 12.9647 0)
(49.6594 12.9536 0)
(49.6625 12.9316 0)
(49.6607 12.9095 0)
(49.6575 12.8844 0)
(49.6537 12.8579 0)
(49.6503 12.8299 0)
(49.6478 12.8007 0)
(49.6468 12.7704 0)
(49.6477 12.7395 0)
(49.6506 12.7082 0)
(49.656 12.6768 0)
(49.664 12.6457 0)
(49.6747 12.6155 0)
(49.6881 12.5865 0)
(49.7041 12.5592 0)
(49.7226 12.5339 0)
(49.7432 12.5109 0)
(49.7658 12.4903 0)
(49.7899 12.4723 0)
(49.8153 12.4571 0)
(49.8415 12.4445 0)
(49.8683 12.4347 0)
(49.8953 12.4274 0)
(49.9224 12.4225 0)
(49.9492 12.4198 0)
(49.9756 12.4189 0)
(50.0015 12.4197 0)
(50.0268 12.4218 0)
(50.0515 12.4251 0)
(50.0756 12.4293 0)
(50.0991 12.4341 0)
(50.122 12.4394 0)
(50.1445 12.4449 0)
(50.1668 12.4504 0)
(50.1885 12.4557 0)
(50.2107 12.4607 0)
(50.2314 12.4654 0)
(50.2565 12.4685 0)
(50.2701 12.4746 0)
(50.3119 12.4645 0)
(49.7392 12.8483 0)
(49.6605 13.1276 0)
(49.6587 12.9666 0)
(49.6401 13.0015 0)
(49.6523 12.9682 0)
(49.6551 12.9579 0)
(49.657 12.9359 0)
(49.654 12.9141 0)
(49.6496 12.8892 0)
(49.6446 12.8628 0)
(49.64 12.8349 0)
(49.6362 12.8056 0)
(49.6338 12.7753 0)
(49.6332 12.7441 0)
(49.6347 12.7124 0)
(49.6386 12.6805 0)
(49.6452 12.6488 0)
(49.6545 12.6176 0)
(49.6666 12.5876 0)
(49.6815 12.559 0)
(49.6989 12.5324 0)
(49.7188 12.508 0)
(49.7407 12.486 0)
(49.7644 12.4667 0)
(49.7895 12.4501 0)
(49.8157 12.4363 0)
(49.8426 12.4252 0)
(49.8698 12.4168 0)
(49.8971 12.411 0)
(49.9243 12.4074 0)
(49.9512 12.406 0)
(49.9775 12.4063 0)
(50.0032 12.4082 0)
(50.0284 12.4113 0)
(50.0528 12.4155 0)
(50.0766 12.4205 0)
(50.0998 12.426 0)
(50.1225 12.4319 0)
(50.1447 12.438 0)
(50.1666 12.4439 0)
(50.188 12.4497 0)
(50.21 12.455 0)
(50.2304 12.4601 0)
(50.2553 12.4634 0)
(50.2686 12.4698 0)
(50.3102 12.4598 0)
(49.7345 12.851 0)
(49.6553 13.1304 0)
(49.6546 12.9679 0)
(49.6368 13.0058 0)
(49.6492 12.9716 0)
(49.6509 12.9622 0)
(49.6517 12.94 0)
(49.6476 12.9186 0)
(49.6421 12.8939 0)
(49.636 12.8678 0)
(49.6301 12.84 0)
(49.6251 12.8108 0)
(49.6213 12.7804 0)
(49.6192 12.749 0)
(49.6193 12.7169 0)
(49.6217 12.6846 0)
(49.6268 12.6523 0)
(49.6347 12.6203 0)
(49.6454 12.5893 0)
(49.6591 12.5595 0)
(49.6755 12.5316 0)
(49.6944 12.5058 0)
(49.7156 12.4824 0)
(49.7388 12.4617 0)
(49.7636 12.4437 0)
(49.7896 12.4285 0)
(49.8165 12.4161 0)
(49.844 12.4065 0)
(49.8716 12.3996 0)
(49.8992 12.3952 0)
(49.9265 12.393 0)
(49.9533 12.3928 0)
(49.9795 12.3943 0)
(50.0051 12.3973 0)
(50.03 12.4014 0)
(50.0541 12.4064 0)
(50.0776 12.4122 0)
(50.1005 12.4184 0)
(50.1229 12.4249 0)
(50.1448 12.4314 0)
(50.1664 12.4379 0)
(50.1876 12.444 0)
(50.2093 12.4497 0)
(50.2294 12.4551 0)
(50.2541 12.4586 0)
(50.2672 12.4653 0)
(50.3085 12.4552 0)
(49.7298 12.8536 0)
(49.6504 13.1332 0)
(49.6507 12.9694 0)
(49.6339 13.01 0)
(49.6462 12.9749 0)
(49.6469 12.9664 0)
(49.6467 12.9442 0)
(49.6415 12.9232 0)
(49.635 12.8987 0)
(49.6277 12.8729 0)
(49.6207 12.8453 0)
(49.6144 12.8162 0)
(49.6092 12.7857 0)
(49.6057 12.7542 0)
(49.6043 12.7219 0)
(49.6052 12.6891 0)
(49.6088 12.6562 0)
(49.6152 12.6236 0)
(49.6246 12.5916 0)
(49.6369 12.5608 0)
(49.6522 12.5315 0)
(49.6701 12.5043 0)
(49.6905 12.4795 0)
(49.7131 12.4572 0)
(49.7375 12.4378 0)
(49.7633 12.4212 0)
(49.7902 12.4075 0)
(49.8178 12.3967 0)
(49.8457 12.3886 0)
(49.8737 12.3832 0)
(49.9014 12.3801 0)
(49.9288 12.3793 0)
(49.9555 12.3803 0)
(49.9816 12.3829 0)
(50.007 12.3869 0)
(50.0316 12.3919 0)
(50.0555 12.3978 0)
(50.0787 12.4043 0)
(50.1013 12.4111 0)
(50.1233 12.4182 0)
(50.1449 12.4252 0)
(50.1662 12.4321 0)
(50.1871 12.4387 0)
(50.2085 12.4446 0)
(50.2284 12.4503 0)
(50.2529 12.454 0)
(50.2657 12.461 0)
(50.3068 12.4509 0)
(49.7249 12.8562 0)
(49.6458 13.1359 0)
(49.647 12.9709 0)
(49.6312 13.0142 0)
(49.6434 12.9783 0)
(49.643 12.9706 0)
(49.6419 12.9483 0)
(49.6356 12.9277 0)
(49.6282 12.9036 0)
(49.6198 12.8781 0)
(49.6117 12.8507 0)
(49.6041 12.8217 0)
(49.5976 12.7913 0)
(49.5927 12.7597 0)
(49.5898 12.7272 0)
(49.5892 12.694 0)
(49.5913 12.6606 0)
(49.5962 12.6273 0)
(49.6041 12.5945 0)
(49.6151 12.5627 0)
(49.6291 12.5322 0)
(49.646 12.5036 0)
(49.6655 12.4772 0)
(49.6874 12.4535 0)
(49.7113 12.4325 0)
(49.7368 12.4145 0)
(49.7637 12.3994 0)
(49.7913 12.3872 0)
(49.8195 12.3779 0)
(49.8478 12.3714 0)
(49.8761 12.3674 0)
(49.9039 12.3658 0)
(49.9312 12.3662 0)
(49.9579 12.3684 0)
(49.9838 12.3721 0)
(50.0089 12.3771 0)
(50.0332 12.383 0)
(50.0568 12.3896 0)
(50.0797 12.3968 0)
(50.102 12.4043 0)
(50.1237 12.4119 0)
(50.145 12.4194 0)
(50.166 12.4266 0)
(50.1866 12.4335 0)
(50.2078 12.4398 0)
(50.2274 12.4457 0)
(50.2517 12.4496 0)
(50.2643 12.4569 0)
(50.3052 12.4468 0)
(49.72 12.8587 0)
(49.6415 13.1385 0)
(49.6436 12.9726 0)
(49.6287 13.0184 0)
(49.6408 12.9816 0)
(49.6394 12.9747 0)
(49.6373 12.9524 0)
(49.63 12.9323 0)
(49.6216 12.9084 0)
(49.6123 12.8833 0)
(49.603 12.8561 0)
(49.5942 12.8274 0)
(49.5865 12.7971 0)
(49.5802 12.7655 0)
(49.5758 12.7328 0)
(49.5737 12.6993 0)
(49.5742 12.6654 0)
(49.5776 12.6315 0)
(49.584 12.5979 0)
(49.5936 12.5651 0)
(49.6063 12.5335 0)
(49.622 12.5036 0)
(49.6405 12.4758 0)
(49.6616 12.4504 0)
(49.685 12.4279 0)
(49.7102 12.4083 0)
(49.7368 12.3917 0)
(49.7645 12.3782 0)
(49.7929 12.3676 0)
(49.8216 12.3598 0)
(49.8503 12.3548 0)
(49.8787 12.3523 0)
(49.9066 12.3521 0)
(49.9338 12.3538 0)
(49.9603 12.3571 0)
(49.986 12.3619 0)
(50.0109 12.3678 0)
(50.0349 12.3745 0)
(50.0582 12.3819 0)
(50.0807 12.3897 0)
(50.1027 12.3978 0)
(50.1241 12.4059 0)
(50.145 12.4138 0)
(50.1658 12.4215 0)
(50.1861 12.4287 0)
(50.2071 12.4352 0)
(50.2264 12.4414 0)
(50.2506 12.4455 0)
(50.2629 12.453 0)
(50.3036 12.4429 0)
(49.715 12.8612 0)
(49.6375 13.141 0)
(49.6404 12.9743 0)
(49.6264 13.0225 0)
(49.6382 12.9849 0)
(49.6359 12.9789 0)
(49.633 12.9564 0)
(49.6247 12.9368 0)
(49.6155 12.9132 0)
(49.6051 12.8884 0)
(49.5947 12.8616 0)
(49.5848 12.8331 0)
(49.5757 12.803 0)
(49.5681 12.7715 0)
(49.5623 12.7387 0)
(49.5587 12.705 0)
(49.5576 12.6707 0)
(49.5594 12.6362 0)
(49.5643 12.6019 0)
(49.5724 12.5682 0)
(49.5837 12.5355 0)
(49.5982 12.5043 0)
(49.6157 12.4751 0)
(49.6359 12.4482 0)
(49.6586 12.424 0)
(49.6833 12.4028 0)
(49.7097 12.3847 0)
(49.7374 12.3696 0)
(49.7659 12.3577 0)
(49.7949 12.3487 0)
(49.824 12.3425 0)
(49.853 12.339 0)
(49.8815 12.3379 0)
(49.9094 12.339 0)
(49.9365 12.3419 0)
(49.9628 12.3464 0)
(49.9882 12.3522 0)
(50.0128 12.359 0)
(50.0366 12.3665 0)
(50.0595 12.3746 0)
(50.0818 12.3831 0)
(50.1034 12.3917 0)
(50.1245 12.4002 0)
(50.1451 12.4086 0)
(50.1656 12.4166 0)
(50.1857 12.4241 0)
(50.2064 12.4309 0)
(50.2255 12.4373 0)
(50.2494 12.4415 0)
(50.2616 12.4494 0)
(50.302 12.4392 0)
(49.7099 12.8635 0)
(49.6338 13.1434 0)
(49.6374 12.9761 0)
(49.6243 13.0266 0)
(49.6358 12.9882 0)
(49.6326 12.9829 0)
(49.6288 12.9605 0)
(49.6197 12.9413 0)
(49.6096 12.918 0)
(49.5983 12.8936 0)
(49.5869 12.8671 0)
(49.5758 12.839 0)
(49.5655 12.8091 0)
(49.5565 12.7777 0)
(49.5492 12.7449 0)
(49.5441 12.711 0)
(49.5415 12.6764 0)
(49.5418 12.6414 0)
(49.5451 12.6064 0)
(49.5516 12.5718 0)
(49.5615 12.5382 0)
(49.5746 12.5058 0)
(49.5909 12.4751 0)
(49.6102 12.4467 0)
(49.6321 12.4209 0)
(49.6563 12.398 0)
(49.6824 12.3782 0)
(49.71 12.3616 0)
(49.7386 12.3482 0)
(49.7678 12.3379 0)
(49.7974 12.3305 0)
(49.8268 12.3259 0)
(49.8559 12.3239 0)
(49.8845 12.3242 0)
(49.9123 12.3266 0)
(49.9393 12.3307 0)
(49.9654 12.3363 0)
(49.9905 12.343 0)
(50.0148 12.3506 0)
(50.0382 12.3589 0)
(50.0608 12.3677 0)
(50.0828 12.3767 0)
(50.104 12.3859 0)
(50.1248 12.3949 0)
(50.1452 12.4036 0)
(50.1654 12.4119 0)
(50.1852 12.4198 0)
(50.2057 12.4267 0)
(50.2245 12.4334 0)
(50.2483 12.4378 0)
(50.2602 12.4459 0)
(50.3005 12.4356 0)
(49.7048 12.8658 0)
(49.6305 13.1456 0)
(49.6346 12.9779 0)
(49.6225 13.0305 0)
(49.6335 12.9914 0)
(49.6294 12.987 0)
(49.6249 12.9645 0)
(49.6149 12.9458 0)
(49.604 12.9228 0)
(49.5917 12.8988 0)
(49.5794 12.8727 0)
(49.5671 12.8448 0)
(49.5556 12.8152 0)
(49.5453 12.784 0)
(49.5367 12.7513 0)
(49.5301 12.7174 0)
(49.5259 12.6825 0)
(49.5246 12.6471 0)
(49.5263 12.6114 0)
(49.5313 12.5761 0)
(49.5396 12.5414 0)
(49.5514 12.5079 0)
(49.5664 12.4759 0)
(49.5846 12.446 0)
(49.6056 12.4186 0)
(49.6292 12.3939 0)
(49.6549 12.3724 0)
(49.6822 12.3542 0)
(49.7109 12.3392 0)
(49.7403 12.3274 0)
(49.7702 12.3188 0)
(49.8002 12.313 0)
(49.8299 12.31 0)
(49.8591 12.3094 0)
(49.8877 12.3112 0)
(49.9153 12.3148 0)
(49.9421 12.3201 0)
(49.9679 12.3267 0)
(49.9928 12.3343 0)
(50.0168 12.3428 0)
(50.0399 12.3518 0)
(50.0622 12.3612 0)
(50.0837 12.3708 0)
(50.1047 12.3804 0)
(50.1252 12.3898 0)
(50.1452 12.3989 0)
(50.1652 12.4075 0)
(50.1847 12.4156 0)
(50.205 12.4228 0)
(50.2236 12.4298 0)
(50.2473 12.4342 0)
(50.2589 12.4426 0)
(50.299 12.4323 0)
(49.6996 12.868 0)
(49.6274 13.1478 0)
(49.6319 12.9797 0)
(49.6207 13.0344 0)
(49.6313 12.9945 0)
(49.6264 12.9909 0)
(49.6211 12.9685 0)
(49.6104 12.9503 0)
(49.5986 12.9276 0)
(49.5855 12.9041 0)
(49.5722 12.8783 0)
(49.5589 12.8507 0)
(49.5462 12.8214 0)
(49.5347 12.7904 0)
(49.5246 12.7578 0)
(49.5166 12.7239 0)
(49.5109 12.6889 0)
(49.5079 12.6531 0)
(49.508 12.617 0)
(49.5114 12.5808 0)
(49.5182 12.5452 0)
(49.5284 12.5106 0)
(49.5421 12.4774 0)
(49.5591 12.4461 0)
(49.5792 12.417 0)
(49.602 12.3907 0)
(49.6271 12.3674 0)
(49.6542 12.3474 0)
(49.6828 12.3308 0)
(49.7124 12.3175 0)
(49.7426 12.3074 0)
(49.773 12.3004 0)
(49.8034 12.2962 0)
(49.8333 12.2948 0)
(49.8625 12.2957 0)
(49.891 12.2987 0)
(49.9185 12.3036 0)
(49.945 12.31 0)
(49.9706 12.3176 0)
(49.9951 12.3261 0)
(50.0188 12.3353 0)
(50.0415 12.345 0)
(50.0634 12.355 0)
(50.0847 12.3651 0)
(50.1053 12.3752 0)
(50.1255 12.385 0)
(50.1453 12.3945 0)
(50.1649 12.4034 0)
(50.1842 12.4117 0)