/*--------------------------------*- C++ -*----------------------------------*\
  =========                 |
  \\      /  F ield         | OpenFOAM: The Open Source CFD Toolbox
   \\    /   O peration     | Website:  https://openfoam.org
    \\  /    A nd           | Version:  7
     \\/     M anipulation  |
\*---------------------------------------------------------------------------*/
FoamFile
{
    version     2.0;
    format      ascii;
    class       volScalarField;
    location    "1800";
    object      yPlus;
}
// * * * * * * * * * * * * * * * * * * * * * * * * * * * * * * * * * * * * * //

dimensions      [0 0 0 0 0 0 0];

internalField   uniform 0;

boundaryField
{
    inlet-l
    {
        type            calculated;
        value           uniform 0;
    }
    airfoil-l1
    {
        type            calculated;
        value           nonuniform 0();
    }
    empty-1
    {
        type            empty;
    }
    empty-2
    {
        type            empty;
    }
    wall-l1
    {
        type            calculated;
        value           nonuniform List<scalar> 
67
(
136.045
135.899
135.549
135.252
135.008
134.774
134.528
134.284
134.045
133.813
133.584
133.358
133.142
132.93
132.716
132.506
132.308
132.11
131.911
131.716
131.533
131.351
131.168
130.993
130.824
130.656
130.494
130.326
130.169
130.016
129.863
129.718
129.572
129.434
129.289
129.156
129.025
128.894
128.768
128.646
128.526
128.408
128.295
128.183
128.076
127.969
127.864
127.764
127.666
127.571
127.479
127.387
127.302
127.218
127.136
127.057
126.98
126.903
126.832
126.753
126.685
126.62
126.557
126.501
126.442
126.388
126.335
)
;
    }
    airfoil-l2
    {
        type            calculated;
        value           nonuniform List<scalar> 
66
(
21.5617
21.8367
22.0683
22.2655
22.4351
22.5814
22.713
22.8304
22.9321
23.0222
23.1009
23.1714
23.2381
23.2957
23.3475
23.394
23.4359
23.4737
23.5091
23.5411
23.5676
23.595
23.6175
23.639
23.6595
23.6755
23.6897
23.7034
23.7154
23.7235
23.7339
23.7406
23.7457
23.7497
23.754
23.7599
23.7611
23.7562
23.7552
23.7577
23.7539
23.7514
23.7478
23.7403
23.7319
23.725
23.7167
23.7046
23.6912
23.6767
23.6626
23.6493
23.6317
23.6093
23.5845
23.5571
23.5263
23.4918
23.4542
23.4115
23.3615
23.3007
23.2344
23.1364
23.0731
22.724
)
;
    }
    empty-3
    {
        type            empty;
    }
    empty-4
    {
        type            empty;
    }
    wall-l2
    {
        type            calculated;
        value           nonuniform List<scalar> 
74
(
126.22
126.132
126.068
125.992
125.923
125.875
125.846
125.834
125.839
125.864
125.908
125.972
126.055
126.159
126.282
126.425
126.589
126.772
126.975
127.198
127.441
127.703
127.986
128.288
128.609
128.947
129.3
129.667
130.047
130.439
130.842
131.255
131.676
132.103
132.534
132.965
133.393
133.817
134.232
134.636
135.026
135.4
135.752
136.079
136.376
136.64
136.866
137.048
137.181
137.261
137.28
137.234
137.114
136.915
136.629
136.247
135.76
135.159
134.433
133.57
132.555
131.376
130.013
128.447
126.654
124.608
122.279
119.633
116.637
113.29
109.622
105.989
103.178
103.026
)
;
    }
    outlet-l
    {
        type            calculated;
        value           uniform 0;
    }
    empty-5
    {
        type            empty;
    }
    empty-6
    {
        type            empty;
    }
    outlet-h
    {
        type            calculated;
        value           nonuniform 0();
    }
    wall-h2
    {
        type            calculated;
        value           nonuniform 0();
    }
    empty-7
    {
        type            empty;
    }
    empty-8
    {
        type            empty;
    }
    airfoil-h2
    {
        type            calculated;
        value           nonuniform 0();
    }
    wall-h1
    {
        type            calculated;
        value           nonuniform 0();
    }
    empty-9
    {
        type            empty;
    }
    empty-10
    {
        type            empty;
    }
    inlet-h
    {
        type            calculated;
        value           nonuniform 0();
    }
    airfoil-h1
    {
        type            calculated;
        value           nonuniform 0();
    }
    empty-11
    {
        type            empty;
    }
    empty-12
    {
        type            empty;
    }
    procBoundary1to0
    {
        type            processor;
        value           uniform 0;
    }
    procBoundary1to2
    {
        type            processor;
        value           uniform 0;
    }
}


// ************************************************************************* //
