# Residuals   
# Time        	p             	Ux            	Uy            
0             	N/A	N/A
1             	1.000000e+00	1.000000e+00	1.000000e+00
2             	2.259490e-01	2.705943e-01	3.519503e-01
3             	2.834056e-01	9.680412e-02	5.752377e-02
4             	2.360301e-01	2.600125e-02	1.909972e-02
5             	1.755599e-01	1.070671e-01	7.462422e-02
6             	2.791179e-01	8.083645e-02	9.057730e-02
7             	2.212227e-01	5.203900e-02	6.673990e-02
8             	1.845347e-01	6.339966e-02	5.144641e-02
9             	3.703372e-01	2.704374e-02	1.862826e-02
10            	2.092172e-01	2.086871e-02	1.724550e-02
11            	2.096901e-01	2.954602e-02	2.453489e-02
12            	4.594564e-01	1.646532e-02	1.515043e-02
13            	2.777598e-01	2.146853e-02	1.831591e-02
14            	2.919444e-01	2.076970e-02	1.620946e-02
15            	4.087656e-01	1.192949e-02	9.642696e-03
16            	2.177197e-01	1.114877e-02	1.081981e-02
17            	2.406014e-01	1.104265e-02	1.017560e-02
18            	4.132540e-01	9.586200e-03	8.900709e-03
19            	4.585978e-01	1.138062e-02	9.742434e-03
20            	5.056888e-01	1.085634e-02	8.934889e-03
21            	2.689912e-01	9.401517e-03	7.659474e-03
22            	2.193117e-01	8.685532e-03	7.884541e-03
23            	2.358368e-01	8.704226e-03	7.674280e-03
24            	2.833124e-01	9.059200e-03	7.646999e-03
25            	3.108513e-01	9.515292e-03	7.660479e-03
26            	2.576584e-01	9.495292e-03	7.274099e-03
27            	2.079062e-01	9.120203e-03	7.039571e-03
28            	1.926931e-01	8.886288e-03	7.062424e-03
29            	1.965019e-01	8.912191e-03	7.058298e-03
30            	1.992437e-01	9.035102e-03	7.064841e-03
31            	1.894450e-01	9.156361e-03	7.017544e-03
32            	1.758978e-01	9.182894e-03	6.946245e-03
33            	1.642353e-01	9.052242e-03	6.940110e-03
34            	1.523473e-01	8.922732e-03	6.962214e-03
35            	1.466732e-01	8.836679e-03	6.955765e-03
36            	1.450411e-01	8.777666e-03	6.898846e-03
37            	1.382427e-01	8.723464e-03	6.850713e-03
38            	1.303563e-01	8.635297e-03	6.885922e-03
39            	1.226508e-01	8.537800e-03	6.953016e-03
40            	1.153176e-01	8.457324e-03	6.990100e-03
41            	1.076884e-01	8.400984e-03	6.978717e-03
42            	1.016103e-01	8.329620e-03	6.941516e-03
43            	9.644259e-02	8.242330e-03	6.949085e-03
44            	9.067383e-02	8.156867e-03	6.998758e-03
45            	8.521230e-02	8.086133e-03	7.055507e-03
46            	8.077283e-02	8.022854e-03	7.074661e-03
47            	7.754329e-02	7.957437e-03	7.071581e-03
48            	7.370449e-02	7.885137e-03	7.099460e-03
49            	6.932595e-02	7.809999e-03	7.170893e-03
50            	6.459996e-02	7.732904e-03	7.231205e-03
51            	6.077495e-02	7.653489e-03	7.257996e-03
52            	5.811086e-02	7.579606e-03	7.257022e-03
53            	5.512054e-02	7.506815e-03	7.288321e-03
54            	5.215182e-02	7.426438e-03	7.350746e-03
55            	4.972465e-02	7.340118e-03	7.398476e-03
56            	4.701947e-02	7.258522e-03	7.421630e-03
57            	4.425227e-02	7.179043e-03	7.457117e-03
58            	4.280788e-02	7.099173e-03	7.505536e-03
59            	4.148129e-02	7.013983e-03	7.528297e-03
60            	3.948120e-02	6.931527e-03	7.545945e-03
61            	3.788077e-02	6.850274e-03	7.598743e-03
62            	3.579756e-02	6.773743e-03	7.649533e-03
63            	3.441544e-02	6.695183e-03	7.675010e-03
64            	3.348771e-02	6.618075e-03	7.689616e-03
65            	3.247079e-02	6.543744e-03	7.740505e-03
66            	3.165411e-02	6.475255e-03	7.777215e-03
67            	3.035160e-02	6.402355e-03	7.800351e-03
68            	2.927540e-02	6.335383e-03	7.856261e-03
69            	2.836712e-02	6.271178e-03	7.888307e-03
70            	2.744147e-02	6.206672e-03	7.906243e-03
71            	2.654654e-02	6.142183e-03	7.956952e-03
72            	2.623709e-02	6.077095e-03	8.001389e-03
73            	2.552784e-02	6.012582e-03	8.020611e-03
74            	2.466259e-02	5.947760e-03	8.069030e-03
75            	2.416417e-02	5.884118e-03	8.117681e-03
76            	2.335123e-02	5.820877e-03	8.140901e-03
77            	2.264648e-02	5.753115e-03	8.200358e-03
78            	2.221126e-02	5.689869e-03	8.257103e-03
79            	2.162214e-02	5.627172e-03	8.286164e-03
80            	2.108097e-02	5.564468e-03	8.351182e-03
81            	2.047076e-02	5.504661e-03	8.407082e-03
82            	2.010660e-02	5.446154e-03	8.439374e-03
83            	1.974038e-02	5.387792e-03	8.508232e-03
84            	1.920596e-02	5.332745e-03	8.563399e-03
85            	1.858760e-02	5.279823e-03	8.599221e-03
86            	1.814200e-02	5.227359e-03	8.673596e-03
87            	1.777283e-02	5.180424e-03	8.725097e-03
88            	1.726956e-02	5.135900e-03	8.742301e-03
89            	1.680520e-02	5.092948e-03	8.802520e-03
90            	1.648944e-02	5.055085e-03	8.828458e-03
91            	1.617370e-02	5.019661e-03	8.826875e-03
92            	1.572687e-02	4.988330e-03	8.856899e-03
93            	1.543025e-02	4.966918e-03	8.841599e-03
94            	1.508140e-02	4.948561e-03	8.811790e-03
95            	1.477120e-02	4.934220e-03	8.765059e-03
96            	1.464336e-02	4.924331e-03	8.662682e-03
97            	1.432579e-02	4.918219e-03	8.559868e-03
98            	1.421006e-02	4.919795e-03	8.447336e-03
99            	1.411056e-02	4.924052e-03	8.314222e-03
100           	1.339610e-02	4.931923e-03	8.195828e-03
101           	1.302180e-02	4.946784e-03	8.076548e-03
102           	1.252068e-02	4.964202e-03	7.955275e-03
103           	1.206382e-02	4.980928e-03	7.836021e-03
104           	1.180436e-02	5.004438e-03	7.727057e-03
105           	1.154063e-02	5.029445e-03	7.626443e-03
106           	1.127791e-02	5.059329e-03	7.530530e-03
107           	1.114088e-02	5.092341e-03	7.452177e-03
108           	1.085062e-02	5.124043e-03	7.371328e-03
109           	1.054941e-02	5.158490e-03	7.292815e-03
110           	1.055895e-02	5.195671e-03	7.236280e-03
111           	1.041583e-02	5.233318e-03	7.175163e-03
112           	1.025247e-02	5.274095e-03	7.122269e-03
113           	1.024211e-02	5.315497e-03	7.083688e-03
114           	1.012579e-02	5.359101e-03	7.043417e-03
115           	1.014309e-02	5.404720e-03	7.006038e-03
116           	1.020441e-02	5.450950e-03	6.983174e-03
117           	1.006542e-02	5.499707e-03	6.969631e-03
118           	1.006736e-02	5.548664e-03	6.951993e-03
119           	1.005511e-02	5.599703e-03	6.951320e-03
120           	9.951167e-03	5.652786e-03	6.958404e-03
121           	9.948089e-03	5.706229e-03	6.962505e-03
122           	9.935379e-03	5.764091e-03	6.991440e-03
123           	9.893456e-03	5.820093e-03	7.018311e-03
124           	9.889500e-03	5.879701e-03	7.050925e-03
125           	9.829895e-03	5.939800e-03	7.102707e-03
126           	9.765224e-03	6.003775e-03	7.158839e-03
127           	9.664311e-03	6.070536e-03	7.227492e-03
128           	9.509712e-03	6.135544e-03	7.306529e-03
129           	9.400541e-03	6.206138e-03	7.395121e-03
130           	9.386493e-03	6.277515e-03	7.492834e-03
131           	9.310360e-03	6.350704e-03	7.590721e-03
132           	9.282229e-03	6.430351e-03	7.705642e-03
133           	9.310658e-03	6.511282e-03	7.821771e-03
134           	9.258989e-03	6.594920e-03	7.939068e-03
135           	9.312654e-03	6.678004e-03	8.061160e-03
136           	9.328941e-03	6.763108e-03	8.193734e-03
137           	9.359616e-03	6.848458e-03	8.329827e-03
138           	9.399798e-03	6.933295e-03	8.459046e-03
139           	9.459664e-03	7.016874e-03	8.598949e-03
140           	9.489189e-03	7.107909e-03	8.741232e-03
141           	9.475243e-03	7.195292e-03	8.878914e-03
142           	9.391035e-03	7.280318e-03	9.016338e-03
143           	9.434676e-03	7.366164e-03	9.154016e-03
144           	9.466455e-03	7.453166e-03	9.288880e-03
145           	9.459390e-03	7.544070e-03	9.417694e-03
146           	9.380524e-03	7.634769e-03	9.546928e-03
147           	9.344896e-03	7.724041e-03	9.673417e-03
148           	9.376534e-03	7.814064e-03	9.799379e-03
149           	9.332147e-03	7.908829e-03	9.918715e-03
150           	9.310662e-03	8.006683e-03	1.004479e-02
151           	9.311152e-03	8.104030e-03	1.016838e-02
152           	9.336742e-03	8.204488e-03	1.029414e-02
153           	9.370364e-03	8.309712e-03	1.041494e-02
154           	9.358724e-03	8.416278e-03	1.053982e-02
155           	9.446572e-03	8.526899e-03	1.066068e-02
156           	9.570439e-03	8.640417e-03	1.077430e-02
157           	9.661522e-03	8.754210e-03	1.088588e-02
158           	9.659069e-03	8.872437e-03	1.098930e-02
159           	9.765643e-03	8.993676e-03	1.109532e-02
160           	9.961333e-03	9.113721e-03	1.119503e-02
161           	1.009879e-02	9.238942e-03	1.128597e-02
162           	1.012560e-02	9.362890e-03	1.137399e-02
163           	1.027774e-02	9.491548e-03	1.146899e-02
164           	1.046366e-02	9.620813e-03	1.155358e-02
165           	1.049366e-02	9.751919e-03	1.163352e-02
166           	1.056408e-02	9.885771e-03	1.172029e-02
167           	1.063026e-02	1.002070e-02	1.180097e-02
168           	1.061180e-02	1.015557e-02	1.188008e-02
169           	1.053895e-02	1.029446e-02	1.195580e-02
170           	1.042797e-02	1.043697e-02	1.204303e-02
171           	1.037357e-02	1.058089e-02	1.212556e-02
172           	1.033495e-02	1.071894e-02	1.219778e-02
173           	1.031262e-02	1.085696e-02	1.227472e-02
174           	1.023307e-02	1.099387e-02	1.236319e-02
175           	1.014697e-02	1.112629e-02	1.244777e-02
176           	1.014200e-02	1.125530e-02	1.252509e-02
177           	1.016651e-02	1.137510e-02	1.260687e-02
178           	1.019404e-02	1.149020e-02	1.268456e-02
179           	1.020313e-02	1.159762e-02	1.275738e-02
180           	1.023981e-02	1.169584e-02	1.282396e-02
181           	1.023120e-02	1.178715e-02	1.288474e-02
182           	1.024491e-02	1.186847e-02	1.296039e-02
183           	1.026567e-02	1.194885e-02	1.304022e-02
184           	1.038668e-02	1.202056e-02	1.311367e-02
185           	1.043556e-02	1.207768e-02	1.317038e-02
186           	1.053308e-02	1.213030e-02	1.322496e-02
187           	1.058327e-02	1.217299e-02	1.328161e-02
188           	1.066348e-02	1.221252e-02	1.333405e-02
189           	1.075175e-02	1.224023e-02	1.337921e-02
190           	1.081393e-02	1.226278e-02	1.341155e-02
191           	1.088325e-02	1.228217e-02	1.343606e-02
192           	1.094886e-02	1.229445e-02	1.344862e-02
193           	1.096689e-02	1.229884e-02	1.345209e-02
194           	1.103691e-02	1.230008e-02	1.344587e-02
195           	1.112904e-02	1.229757e-02	1.342490e-02
196           	1.119101e-02	1.228698e-02	1.338652e-02
197           	1.125201e-02	1.226723e-02	1.334451e-02
198           	1.129867e-02	1.224085e-02	1.328578e-02
199           	1.136080e-02	1.221118e-02	1.321529e-02
200           	1.139808e-02	1.217249e-02	1.313229e-02
201           	1.141283e-02	1.212561e-02	1.303976e-02
202           	1.145362e-02	1.206953e-02	1.292405e-02
203           	1.144112e-02	1.200328e-02	1.280931e-02
204           	1.145069e-02	1.193285e-02	1.268003e-02
205           	1.141903e-02	1.184990e-02	1.253944e-02
206           	1.133702e-02	1.176188e-02	1.238429e-02
207           	1.125372e-02	1.166721e-02	1.223716e-02
208           	1.115436e-02	1.156632e-02	1.206209e-02
209           	1.099691e-02	1.145612e-02	1.190217e-02
210           	1.081114e-02	1.134031e-02	1.173063e-02
211           	1.061331e-02	1.122346e-02	1.156142e-02
212           	1.039928e-02	1.110510e-02	1.140793e-02
213           	1.015824e-02	1.098329e-02	1.125419e-02
214           	9.881720e-03	1.086443e-02	1.110882e-02
215           	9.650230e-03	1.073888e-02	1.096671e-02
216           	9.451813e-03	1.061593e-02	1.083873e-02
217           	9.229543e-03	1.049891e-02	1.070733e-02
218           	9.022648e-03	1.038152e-02	1.058798e-02
219           	8.808660e-03	1.026401e-02	1.047283e-02
220           	8.628997e-03	1.014878e-02	1.036617e-02
221           	8.446447e-03	1.003798e-02	1.025825e-02
222           	8.273031e-03	9.928804e-03	1.014426e-02
223           	8.125589e-03	9.828645e-03	1.003408e-02
224           	8.056738e-03	9.729079e-03	9.921518e-03
225           	7.954797e-03	9.645095e-03	9.804909e-03
226           	7.881126e-03	9.564348e-03	9.678970e-03
227           	7.814019e-03	9.489794e-03	9.566073e-03
228           	7.723180e-03	9.413759e-03	9.459979e-03
229           	7.615126e-03	9.344802e-03	9.345807e-03
230           	7.545784e-03	9.284033e-03	9.238161e-03
231           	7.463430e-03	9.229727e-03	9.126049e-03
232           	7.381031e-03	9.178124e-03	9.015639e-03
233           	7.306084e-03	9.125178e-03	8.921010e-03
234           	7.183916e-03	9.072484e-03	8.826116e-03
235           	7.119724e-03	9.021265e-03	8.734648e-03
236           	7.091773e-03	8.971503e-03	8.643080e-03
237           	7.045022e-03	8.923692e-03	8.534193e-03
238           	6.996888e-03	8.875509e-03	8.440962e-03
239           	6.929709e-03	8.825270e-03	8.350029e-03
240           	6.854728e-03	8.772278e-03	8.252881e-03
241           	6.806874e-03	8.725766e-03	8.165058e-03
242           	6.747607e-03	8.673229e-03	8.065720e-03
243           	6.695777e-03	8.625423e-03	7.961577e-03
244           	6.616375e-03	8.576002e-03	7.870913e-03
245           	6.521149e-03	8.523890e-03	7.765001e-03
246           	6.441852e-03	8.474800e-03	7.662625e-03
247           	6.363221e-03	8.420459e-03	7.564830e-03
248           	6.269272e-03	8.363488e-03	7.458512e-03
249           	6.182400e-03	8.311311e-03	7.345046e-03
250           	6.082365e-03	8.248244e-03	7.246669e-03
251           	5.977164e-03	8.186175e-03	7.138250e-03
252           	5.876503e-03	8.124516e-03	7.023314e-03
253           	5.758213e-03	8.056756e-03	6.923703e-03
254           	5.646374e-03	7.987837e-03	6.815498e-03
255           	5.536081e-03	7.918198e-03	6.709853e-03
256           	5.430991e-03	7.840213e-03	6.610058e-03
257           	5.334594e-03	7.764439e-03	6.513936e-03
258           	5.228147e-03	7.688222e-03	6.413866e-03
259           	5.126673e-03	7.608907e-03	6.321827e-03
260           	5.032091e-03	7.530975e-03	6.233820e-03
261           	4.934341e-03	7.448024e-03	6.151357e-03
262           	4.831660e-03	7.365204e-03	6.062580e-03
263           	4.738660e-03	7.289156e-03	5.984380e-03
264           	4.626598e-03	7.211026e-03	5.917191e-03
265           	4.523776e-03	7.130002e-03	5.839491e-03
266           	4.418212e-03	7.054413e-03	5.766162e-03
267           	4.304760e-03	6.983745e-03	5.708278e-03
268           	4.203365e-03	6.912444e-03	5.648924e-03
269           	4.104204e-03	6.841210e-03	5.592920e-03
270           	4.007028e-03	6.774888e-03	5.537443e-03
271           	3.928719e-03	6.713363e-03	5.481614e-03
272           	3.850397e-03	6.647031e-03	5.438167e-03
273           	3.788415e-03	6.584830e-03	5.393335e-03
274           	3.731463e-03	6.524338e-03	5.345596e-03
275           	3.688640e-03	6.466577e-03	5.293010e-03
276           	3.637913e-03	6.408992e-03	5.244915e-03
277           	3.600845e-03	6.350136e-03	5.205848e-03
278           	3.580720e-03	6.292379e-03	5.158396e-03
279           	3.561991e-03	6.238741e-03	5.107547e-03
280           	3.551515e-03	6.181029e-03	5.059393e-03
281           	3.542333e-03	6.123419e-03	5.006862e-03
282           	3.522007e-03	6.063961e-03	4.959618e-03
283           	3.503500e-03	6.007809e-03	4.914388e-03
284           	3.481428e-03	5.950126e-03	4.861172e-03
285           	3.447805e-03	5.892979e-03	4.803893e-03
286           	3.419271e-03	5.833424e-03	4.745194e-03
287           	3.388755e-03	5.775917e-03	4.685784e-03
288           	3.347144e-03	5.717355e-03	4.633126e-03
289           	3.299558e-03	5.655419e-03	4.577987e-03
290           	3.254072e-03	5.593827e-03	4.521401e-03
291           	3.202923e-03	5.531128e-03	4.462902e-03
292           	3.151175e-03	5.468801e-03	4.399842e-03
293           	3.103021e-03	5.406629e-03	4.335061e-03
294           	3.041127e-03	5.343016e-03	4.273234e-03
295           	2.981877e-03	5.277801e-03	4.213519e-03
296           	2.921136e-03	5.218019e-03	4.159512e-03
297           	2.859696e-03	5.158883e-03	4.102330e-03
298           	2.792226e-03	5.098059e-03	4.044481e-03
299           	2.731621e-03	5.036690e-03	3.988663e-03
300           	2.667134e-03	4.981351e-03	3.928994e-03
301           	2.601821e-03	4.926082e-03	3.864089e-03
302           	2.535159e-03	4.871775e-03	3.801016e-03
303           	2.467234e-03	4.820296e-03	3.739749e-03
304           	2.399628e-03	4.773531e-03	3.677460e-03
305           	2.333435e-03	4.730353e-03	3.619012e-03
306           	2.262281e-03	4.692043e-03	3.561569e-03
307           	2.196092e-03	4.657693e-03	3.510564e-03
308           	2.136496e-03	4.626016e-03	3.464633e-03
309           	2.104206e-03	4.596413e-03	3.420718e-03
310           	2.093712e-03	4.572221e-03	3.377125e-03
311           	2.093205e-03	4.546319e-03	3.341267e-03
312           	2.106078e-03	4.519902e-03	3.309630e-03
313           	2.127400e-03	4.491761e-03	3.275400e-03
314           	2.159752e-03	4.460804e-03	3.240730e-03
315           	2.205791e-03	4.429582e-03	3.215490e-03
316           	2.257553e-03	4.397444e-03	3.192204e-03
317           	2.305058e-03	4.360891e-03	3.166591e-03
318           	2.346951e-03	4.322144e-03	3.139892e-03
319           	2.398409e-03	4.282548e-03	3.120541e-03
320           	2.450234e-03	4.242307e-03	3.102940e-03
321           	2.480736e-03	4.196399e-03	3.081406e-03
322           	2.516435e-03	4.148789e-03	3.060923e-03
323           	2.542128e-03	4.099809e-03	3.045116e-03
324           	2.567389e-03	4.049919e-03	3.030494e-03
325           	2.585563e-03	3.998011e-03	3.014957e-03
326           	2.599963e-03	3.944686e-03	2.997123e-03
327           	2.601928e-03	3.890092e-03	2.984066e-03
328           	2.592905e-03	3.834698e-03	2.968705e-03
329           	2.581908e-03	3.776735e-03	2.947763e-03
330           	2.571672e-03	3.718340e-03	2.922678e-03
331           	2.547228e-03	3.662433e-03	2.900378e-03
332           	2.518591e-03	3.608506e-03	2.885833e-03
333           	2.477920e-03	3.553498e-03	2.871076e-03
334           	2.442564e-03	3.498819e-03	2.851612e-03
335           	2.395568e-03	3.446687e-03	2.826065e-03
336           	2.344295e-03	3.399213e-03	2.809598e-03
337           	2.290701e-03	3.353200e-03	2.796142e-03
338           	2.250757e-03	3.307211e-03	2.779047e-03
339           	2.219765e-03	3.262986e-03	2.755303e-03
340           	2.201224e-03	3.224055e-03	2.732161e-03
341           	2.176831e-03	3.189251e-03	2.714892e-03
342           	2.150682e-03	3.155666e-03	2.696322e-03
343           	2.115294e-03	3.122046e-03	2.671186e-03
344           	2.082345e-03	3.091978e-03	2.642997e-03
345           	2.056989e-03	3.063369e-03	2.611853e-03
346           	2.036835e-03	3.037635e-03	2.582989e-03
347           	2.011315e-03	3.012343e-03	2.550828e-03
348           	1.987353e-03	2.987755e-03	2.512428e-03
349           	1.957853e-03	2.963754e-03	2.469780e-03
350           	1.931148e-03	2.939470e-03	2.423185e-03
351           	1.895497e-03	2.915534e-03	2.378894e-03
352           	1.856114e-03	2.894009e-03	2.335459e-03
353           	1.812841e-03	2.872608e-03	2.293824e-03
354           	1.764330e-03	2.849581e-03	2.248126e-03
355           	1.718549e-03	2.825990e-03	2.196853e-03
356           	1.696857e-03	2.805424e-03	2.153644e-03
357           	1.694591e-03	2.782962e-03	2.111659e-03
358           	1.703025e-03	2.757778e-03	2.073343e-03
359           	1.719482e-03	2.731290e-03	2.032566e-03
360           	1.741580e-03	2.703864e-03	1.990838e-03
361           	1.762302e-03	2.677140e-03	1.952996e-03
362           	1.780890e-03	2.648741e-03	1.920736e-03
363           	1.795485e-03	2.618852e-03	1.892484e-03
364           	1.814392e-03	2.585255e-03	1.863058e-03
365           	1.836385e-03	2.551990e-03	1.836257e-03
366           	1.857229e-03	2.518913e-03	1.811147e-03
367           	1.864212e-03	2.482910e-03	1.784357e-03
368           	1.871416e-03	2.445867e-03	1.757508e-03
369           	1.868296e-03	2.405380e-03	1.726640e-03
370           	1.865427e-03	2.366587e-03	1.695681e-03
371           	1.855441e-03	2.327388e-03	1.673796e-03
372           	1.852287e-03	2.286753e-03	1.658762e-03
373           	1.816795e-03	2.243535e-03	1.645432e-03
374           	1.780318e-03	2.199342e-03	1.627197e-03
375           	1.745896e-03	2.156461e-03	1.599542e-03
376           	1.713458e-03	2.113299e-03	1.570732e-03
377           	1.675975e-03	2.069956e-03	1.546263e-03
378           	1.631325e-03	2.027000e-03	1.526717e-03
379           	1.570986e-03	1.986947e-03	1.512167e-03
380           	1.520274e-03	1.947231e-03	1.494187e-03
381           	1.457208e-03	1.907484e-03	1.476053e-03
382           	1.406226e-03	1.868485e-03	1.465414e-03
383           	1.350242e-03	1.830054e-03	1.456286e-03
384           	1.303109e-03	1.793801e-03	1.445015e-03
385           	1.252193e-03	1.759157e-03	1.427035e-03
386           	1.211341e-03	1.726062e-03	1.403880e-03
387           	1.171560e-03	1.693480e-03	1.383293e-03
388           	1.136440e-03	1.662426e-03	1.365477e-03
389           	1.096693e-03	1.634256e-03	1.345549e-03
390           	1.065546e-03	1.612210e-03	1.321214e-03
391           	1.030116e-03	1.590018e-03	1.292230e-03
392           	1.008364e-03	1.567851e-03	1.260259e-03
393           	9.898588e-04	1.544945e-03	1.234853e-03
394           	9.727482e-04	1.523943e-03	1.213246e-03
395           	9.542959e-04	1.504602e-03	1.189084e-03
396           	9.381552e-04	1.488566e-03	1.162857e-03
397           	9.195441e-04	1.475828e-03	1.133726e-03
398           	9.225137e-04	1.463571e-03	1.107353e-03
399           	9.306523e-04	1.451849e-03	1.089476e-03
400           	9.482143e-04	1.439310e-03	1.073818e-03
401           	9.652069e-04	1.425545e-03	1.056994e-03
402           	9.807971e-04	1.410894e-03	1.039985e-03
403           	9.848831e-04	1.395202e-03	1.021442e-03
404           	1.001110e-03	1.378649e-03	1.004006e-03
405           	1.011853e-03	1.360753e-03	9.861507e-04
406           	1.022897e-03	1.341137e-03	9.680673e-04
407           	1.025096e-03	1.321455e-03	9.495714e-04
408           	1.032109e-03	1.301439e-03	9.326943e-04
409           	1.031803e-03	1.280278e-03	9.181110e-04
410           	1.031017e-03	1.257053e-03	9.043600e-04
411           	1.025451e-03	1.233094e-03	8.911427e-04
412           	1.020499e-03	1.209723e-03	8.775474e-04
413           	1.003590e-03	1.186292e-03	8.616318e-04
414           	9.975401e-04	1.162641e-03	8.439755e-04
415           	9.783719e-04	1.138150e-03	8.258341e-04
416           	9.643910e-04	1.113197e-03	8.113244e-04
417           	9.427075e-04	1.090022e-03	8.009902e-04
418           	9.216301e-04	1.067046e-03	7.909473e-04
419           	8.944900e-04	1.044593e-03	7.812443e-04
420           	8.740011e-04	1.021847e-03	7.695184e-04
421           	8.456477e-04	9.998564e-04	7.601914e-04
422           	8.204846e-04	9.778112e-04	7.535324e-04
423           	7.899693e-04	9.554671e-04	7.459599e-04
424           	7.639669e-04	9.342393e-04	7.373243e-04
425           	7.352438e-04	9.141887e-04	7.269290e-04
426           	7.065577e-04	8.953375e-04	7.162853e-04
427           	6.770723e-04	8.770611e-04	7.047962e-04
428           	6.522982e-04	8.595105e-04	6.961304e-04
429           	6.256802e-04	8.426858e-04	6.858325e-04
430           	6.054518e-04	8.265420e-04	6.736959e-04
431           	5.877172e-04	8.110287e-04	6.588790e-04
432           	5.854954e-04	7.948266e-04	6.421191e-04
433           	5.793399e-04	7.779558e-04	6.252649e-04
434           	5.716417e-04	7.622408e-04	6.122160e-04
435           	5.677045e-04	7.478606e-04	6.003602e-04
436           	5.665466e-04	7.343623e-04	5.887607e-04
437           	5.627816e-04	7.226505e-04	5.762869e-04
438           	5.603579e-04	7.112543e-04	5.622328e-04
439           	5.652679e-04	6.984232e-04	5.461450e-04
440           	5.692426e-04	6.866576e-04	5.320569e-04
441           	5.717949e-04	6.753181e-04	5.183634e-04
442           	5.754183e-04	6.637479e-04	5.060173e-04
443           	5.769172e-04	6.510609e-04	4.935982e-04
444           	5.782950e-04	6.372160e-04	4.826376e-04
445           	5.757794e-04	6.228025e-04	4.713560e-04
446           	5.744308e-04	6.099960e-04	4.621870e-04
447           	5.722840e-04	5.984942e-04	4.535144e-04
448           	5.641787e-04	5.850601e-04	4.421815e-04
449           	5.531555e-04	5.713255e-04	4.303000e-04
450           	5.405796e-04	5.581319e-04	4.180674e-04
451           	5.281099e-04	5.462712e-04	4.049976e-04
452           	5.134108e-04	5.337675e-04	3.932734e-04
453           	4.933879e-04	5.219443e-04	3.863719e-04
454           	4.759719e-04	5.107015e-04	3.821173e-04
455           	4.567600e-04	4.980338e-04	3.762976e-04
456           	4.424084e-04	4.852918e-04	3.701676e-04
457           	4.240672e-04	4.730622e-04	3.630723e-04
458           	4.065566e-04	4.613489e-04	3.551368e-04
459           	3.819309e-04	4.508027e-04	3.466959e-04
460           	3.611837e-04	4.405069e-04	3.405498e-04
461           	3.383424e-04	4.303086e-04	3.344654e-04
462           	3.211066e-04	4.206513e-04	3.286556e-04
463           	3.046285e-04	4.119070e-04	3.219727e-04
464           	2.910674e-04	4.037310e-04	3.147972e-04
465           	2.792594e-04	3.958762e-04	3.069820e-04
466           	2.758843e-04	3.876740e-04	2.989292e-04
467           	2.726861e-04	3.793770e-04	2.926039e-04
468           	2.787435e-04	3.712148e-04	2.880476e-04
469           	2.771287e-04	3.628716e-04	2.831499e-04
470           	2.774889e-04	3.548313e-04	2.781160e-04
471           	2.823230e-04	3.479427e-04	2.723930e-04
472           	2.845671e-04	3.418786e-04	2.653852e-04
473           	2.896678e-04	3.364678e-04	2.576847e-04
474           	2.931273e-04	3.312223e-04	2.501847e-04
475           	2.918814e-04	3.262068e-04	2.437553e-04
476           	2.943145e-04	3.204074e-04	2.380562e-04
477           	2.934841e-04	3.148421e-04	2.329855e-04
478           	2.952686e-04	3.097550e-04	2.282238e-04
479           	2.926899e-04	3.039966e-04	2.231924e-04
480           	2.912224e-04	2.986590e-04	2.181632e-04
481           	2.926209e-04	2.928655e-04	2.120757e-04
482           	2.896343e-04	2.869931e-04	2.055629e-04
483           	2.791723e-04	2.811834e-04	1.990444e-04
484           	2.742802e-04	2.759673e-04	1.928280e-04
485           	2.672084e-04	2.705281e-04	1.861358e-04
486           	2.591406e-04	2.648841e-04	1.809580e-04
487           	2.574948e-04	2.590703e-04	1.769634e-04
488           	2.516129e-04	2.529161e-04	1.730943e-04
489           	2.427489e-04	2.468271e-04	1.688764e-04
490           	2.360183e-04	2.414684e-04	1.650819e-04
491           	2.250870e-04	2.355163e-04	1.614906e-04
492           	2.193515e-04	2.300563e-04	1.579993e-04
493           	2.066807e-04	2.248949e-04	1.544691e-04
494           	1.979326e-04	2.200159e-04	1.509201e-04
495           	1.893387e-04	2.155253e-04	1.469945e-04
496           	1.815269e-04	2.111881e-04	1.430286e-04
497           	1.724601e-04	2.069172e-04	1.385864e-04
498           	1.810644e-04	2.026054e-04	1.350091e-04
499           	1.772139e-04	1.983805e-04	1.330272e-04
500           	1.787326e-04	1.942190e-04	1.312929e-04
501           	1.715164e-04	1.899348e-04	1.269958e-04
502           	1.674629e-04	1.857120e-04	1.236521e-04
503           	1.698602e-04	1.815783e-04	1.201168e-04
504           	1.670160e-04	1.775069e-04	1.168348e-04
505           	1.703586e-04	1.734146e-04	1.130280e-04
506           	1.731572e-04	1.700741e-04	1.087996e-04
507           	1.677594e-04	1.671924e-04	1.040502e-04
508           	1.675288e-04	1.643073e-04	1.006503e-04
509           	1.668963e-04	1.612984e-04	9.798190e-05
510           	1.639600e-04	1.581860e-04	9.599215e-05
511           	1.578343e-04	1.550253e-04	9.392028e-05
512           	1.573133e-04	1.518384e-04	9.205968e-05
513           	1.538133e-04	1.488087e-04	8.964454e-05
514           	1.517428e-04	1.457930e-04	8.721698e-05
515           	1.474602e-04	1.428185e-04	8.438050e-05
516           	1.434493e-04	1.398645e-04	8.156727e-05
517           	1.381756e-04	1.369186e-04	7.873342e-05
518           	1.332805e-04	1.338563e-04	7.621042e-05
519           	1.304219e-04	1.307507e-04	7.427172e-05
520           	1.269788e-04	1.275990e-04	7.321486e-05
521           	1.198846e-04	1.243909e-04	7.153023e-05
522           	1.154282e-04	1.213309e-04	7.013577e-05
523           	1.127872e-04	1.186486e-04	6.873219e-05
524           	1.080627e-04	1.161855e-04	6.752602e-05
525           	9.994377e-05	1.137698e-04	6.567048e-05
526           	9.743135e-05	1.114906e-04	6.406593e-05
527           	9.381280e-05	1.092276e-04	6.257074e-05
528           	8.736115e-05	1.070040e-04	6.128052e-05
529           	8.538897e-05	1.048739e-04	5.983385e-05
530           	8.117874e-05	1.027411e-04	5.836315e-05
531           	8.066174e-05	1.006092e-04	5.681276e-05
532           	7.959123e-05	9.858339e-05	5.528222e-05
533           	7.742361e-05	9.665289e-05	5.357064e-05
534           	7.984296e-05	9.496488e-05	5.253461e-05
535           	7.887137e-05	9.319476e-05	5.102741e-05
536           	7.772669e-05	9.142138e-05	4.958349e-05
537           	7.910132e-05	8.978785e-05	4.817330e-05
538           	7.825980e-05	8.823278e-05	4.703186e-05
539           	7.396770e-05	8.684576e-05	4.578613e-05
540           	7.782271e-05	8.544362e-05	4.486508e-05
541           	7.341449e-05	8.408476e-05	4.360183e-05
542           	7.474842e-05	8.284902e-05	4.262073e-05
543           	7.267560e-05	8.166275e-05	4.207581e-05
544           	6.970685e-05	8.033270e-05	4.140886e-05
545           	6.705069e-05	7.913569e-05	4.095158e-05
546           	6.625374e-05	7.781481e-05	4.040626e-05
547           	6.524891e-05	7.660270e-05	3.967151e-05
548           	6.627809e-05	7.520222e-05	3.934861e-05
549           	6.474397e-05	7.388228e-05	3.841696e-05
550           	6.703125e-05	7.265467e-05	3.708932e-05
551           	6.439314e-05	7.144350e-05	3.617442e-05
552           	6.386261e-05	7.016072e-05	3.592109e-05
553           	5.976560e-05	6.908355e-05	3.659124e-05