/*--------------------------------*- C++ -*----------------------------------*\
  =========                 |
  \\      /  F ield         | OpenFOAM: The Open Source CFD Toolbox
   \\    /   O peration     | Website:  https://openfoam.org
    \\  /    A nd           | Version:  7
     \\/     M anipulation  |
\*---------------------------------------------------------------------------*/
FoamFile
{
    version     2.0;
    format      ascii;
    class       volScalarField;
    location    "1400";
    object      nut;
}
// * * * * * * * * * * * * * * * * * * * * * * * * * * * * * * * * * * * * * //

dimensions      [0 2 -1 0 0 0 0];

internalField   nonuniform List<scalar> 
23117
(
5.21905e-06
5.21669e-06
5.23191e-06
5.21655e-06
5.23021e-06
5.23982e-06
5.21588e-06
5.22947e-06
5.23747e-06
5.2414e-06
5.21557e-06
5.22855e-06
5.23598e-06
5.23697e-06
5.23552e-06
5.21528e-06
5.2278e-06
5.23424e-06
5.23444e-06
5.2299e-06
5.22774e-06
5.21505e-06
5.22701e-06
5.23245e-06
5.2315e-06
5.22743e-06
5.22457e-06
5.22678e-06
5.21486e-06
5.22619e-06
5.23055e-06
5.22875e-06
5.22492e-06
5.22441e-06
5.22732e-06
5.23028e-06
5.21468e-06
5.22532e-06
5.22861e-06
5.22619e-06
5.22322e-06
5.22445e-06
5.22803e-06
5.23042e-06
5.23066e-06
5.21451e-06
5.22438e-06
5.22664e-06
5.22393e-06
5.22219e-06
5.22489e-06
5.22846e-06
5.22978e-06
5.22839e-06
5.22723e-06
5.21433e-06
5.22339e-06
5.2247e-06
5.22204e-06
5.22184e-06
5.22546e-06
5.22858e-06
5.22877e-06
5.22679e-06
5.22472e-06
5.22534e-06
5.21414e-06
5.22233e-06
5.22284e-06
5.2206e-06
5.22205e-06
5.22602e-06
5.22831e-06
5.22743e-06
5.22516e-06
5.2242e-06
5.22507e-06
5.22667e-06
5.21393e-06
5.22122e-06
5.22111e-06
5.21962e-06
5.22244e-06
5.22641e-06
5.22766e-06
5.22595e-06
5.22387e-06
5.22384e-06
5.22527e-06
5.2268e-06
5.22748e-06
5.21369e-06
5.22009e-06
5.21957e-06
5.21911e-06
5.22295e-06
5.22652e-06
5.2267e-06
5.22448e-06
5.22299e-06
5.22376e-06
5.22535e-06
5.22631e-06
5.22605e-06
5.22531e-06
5.21343e-06
5.21894e-06
5.21825e-06
5.21906e-06
5.22347e-06
5.22634e-06
5.22553e-06
5.22317e-06
5.22255e-06
5.22381e-06
5.22524e-06
5.22558e-06
5.22441e-06
5.22203e-06
5.22053e-06
5.21314e-06
5.21781e-06
5.2172e-06
5.21937e-06
5.22392e-06
5.22588e-06
5.22426e-06
5.22214e-06
5.22236e-06
5.22386e-06
5.22489e-06
5.22447e-06
5.2226e-06
5.21978e-06
5.21652e-06
5.21521e-06
5.21281e-06
5.21671e-06
5.21643e-06
5.21976e-06
5.22419e-06
5.22516e-06
5.223e-06
5.22144e-06
5.22231e-06
5.22379e-06
5.22425e-06
5.22308e-06
5.22059e-06
5.2175e-06
5.21455e-06
5.21203e-06
5.21166e-06
5.21246e-06
5.21568e-06
5.21595e-06
5.22022e-06
5.22425e-06
5.22426e-06
5.22185e-06
5.22108e-06
5.22232e-06
5.22355e-06
5.22334e-06
5.22149e-06
5.21857e-06
5.2154e-06
5.21273e-06
5.21107e-06
5.21033e-06
5.21089e-06
5.21208e-06
5.21474e-06
5.21576e-06
5.2207e-06
5.22411e-06
5.22324e-06
5.22089e-06
5.22088e-06
5.22231e-06
5.2231e-06
5.22222e-06
5.2198e-06
5.21663e-06
5.21359e-06
5.21139e-06
5.21037e-06
5.21053e-06
5.21122e-06
5.21225e-06
5.21168e-06
5.21391e-06
5.21586e-06
5.22113e-06
5.22376e-06
5.22218e-06
5.22016e-06
5.22078e-06
5.22219e-06
5.22245e-06
5.22093e-06
5.21809e-06
5.21486e-06
5.21212e-06
5.21051e-06
5.21019e-06
5.21081e-06
5.21211e-06
5.21358e-06
5.21472e-06
5.21126e-06
5.21321e-06
5.21619e-06
5.22147e-06
5.22322e-06
5.22114e-06
5.2197e-06
5.22074e-06
5.22194e-06
5.22163e-06
5.21955e-06
5.21644e-06
5.2133e-06
5.21101e-06
5.21005e-06
5.21031e-06
5.21139e-06
5.21289e-06
5.21465e-06
5.2164e-06
5.21749e-06
5.21084e-06
5.21264e-06
5.21658e-06
5.22169e-06
5.22254e-06
5.22019e-06
5.21945e-06
5.2207e-06
5.22156e-06
5.22066e-06
5.21813e-06
5.2149e-06
5.21201e-06
5.21026e-06
5.20993e-06
5.21067e-06
5.21207e-06
5.2138e-06
5.2156e-06
5.21743e-06
5.21915e-06
5.22018e-06
5.21041e-06
5.21224e-06
5.217e-06
5.22175e-06
5.22176e-06
5.21936e-06
5.21927e-06
5.22061e-06
5.22103e-06
5.21959e-06
5.21673e-06
5.21352e-06
5.211e-06
5.20983e-06
5.21005e-06
5.21119e-06
5.21283e-06
5.21467e-06
5.21655e-06
5.21835e-06
5.22007e-06
5.22167e-06
5.22265e-06
5.20999e-06
5.21198e-06
5.21743e-06
5.22167e-06
5.22092e-06
5.2187e-06
5.21915e-06
5.22044e-06
5.22039e-06
5.21846e-06
5.2154e-06
5.21233e-06
5.21025e-06
5.20968e-06
5.21035e-06
5.21179e-06
5.21359e-06
5.21552e-06
5.21741e-06
5.21921e-06
5.22089e-06
5.22247e-06
5.22392e-06
5.22486e-06
5.20958e-06
5.21189e-06
5.21784e-06
5.22145e-06
5.22007e-06
5.21823e-06
5.21907e-06
5.22018e-06
5.21964e-06
5.21732e-06
5.21416e-06
5.21134e-06
5.20976e-06
5.20972e-06
5.21076e-06
5.21242e-06
5.21434e-06
5.2163e-06
5.21819e-06
5.21997e-06
5.22163e-06
5.22316e-06
5.22462e-06
5.22593e-06
5.22685e-06
5.20919e-06
5.21195e-06
5.21821e-06
5.2211e-06
5.21924e-06
5.21792e-06
5.219e-06
5.21983e-06
5.21882e-06
5.21619e-06
5.21305e-06
5.21055e-06
5.2095e-06
5.20991e-06
5.21125e-06
5.21307e-06
5.21505e-06
5.21702e-06
5.21889e-06
5.22064e-06
5.22227e-06
5.22379e-06
5.2252e-06
5.22656e-06
5.22775e-06
5.22866e-06
5.20884e-06
5.21217e-06
5.21853e-06
5.22065e-06
5.21847e-06
5.21771e-06
5.21891e-06
5.21939e-06
5.21795e-06
5.21511e-06
5.21207e-06
5.20995e-06
5.20942e-06
5.2102e-06
5.21177e-06
5.2137e-06
5.21571e-06
5.21767e-06
5.21951e-06
5.22123e-06
5.22284e-06
5.22433e-06
5.22573e-06
5.22703e-06
5.22831e-06
5.22941e-06
5.23031e-06
5.20852e-06
5.21253e-06
5.21877e-06
5.22011e-06
5.21777e-06
5.21754e-06
5.21877e-06
5.21887e-06
5.21706e-06
5.2141e-06
5.21124e-06
5.20954e-06
5.20946e-06
5.21056e-06
5.21231e-06
5.2143e-06
5.21632e-06
5.21826e-06
5.22007e-06
5.22175e-06
5.22332e-06
5.22479e-06
5.22618e-06
5.22749e-06
5.22871e-06
5.22992e-06
5.23095e-06
5.23183e-06
5.20825e-06
5.21296e-06
5.21893e-06
5.2195e-06
5.21718e-06
5.21741e-06
5.21858e-06
5.2183e-06
5.21617e-06
5.21317e-06
5.21054e-06
5.20929e-06
5.20961e-06
5.21096e-06
5.21283e-06
5.21487e-06
5.21688e-06
5.21878e-06
5.22055e-06
5.2222e-06
5.22375e-06
5.2252e-06
5.22657e-06
5.22786e-06
5.2291e-06
5.23025e-06
5.23142e-06
5.23237e-06
5.23325e-06
5.20802e-06
5.21337e-06
5.21898e-06
5.21886e-06
5.21671e-06
5.21731e-06
5.21833e-06
5.21768e-06
5.21531e-06
5.21232e-06
5.20999e-06
5.20918e-06
5.20984e-06
5.21139e-06
5.21334e-06
5.21539e-06
5.21738e-06
5.21924e-06
5.22098e-06
5.2226e-06
5.22412e-06
5.22554e-06
5.2269e-06
5.22819e-06
5.22941e-06
5.23059e-06
5.23169e-06
5.23281e-06
5.23371e-06
5.23458e-06
5.20784e-06
5.21377e-06
5.21894e-06
5.21821e-06
5.21636e-06
5.21722e-06
5.21803e-06
5.21703e-06
5.21447e-06
5.21158e-06
5.20956e-06
5.20917e-06
5.21011e-06
5.21182e-06
5.21382e-06
5.21587e-06
5.21783e-06
5.21966e-06
5.22136e-06
5.22294e-06
5.22443e-06
5.22585e-06
5.22719e-06
5.22847e-06
5.22969e-06
5.23086e-06
5.23198e-06
5.23303e-06
5.23411e-06
5.23496e-06
5.23582e-06
5.20772e-06
5.21416e-06
5.21881e-06
5.21756e-06
5.21611e-06
5.21712e-06
5.21769e-06
5.21636e-06
5.21369e-06
5.21093e-06
5.20926e-06
5.20923e-06
5.21042e-06
5.21224e-06
5.21428e-06
5.21631e-06
5.21823e-06
5.22002e-06
5.22168e-06
5.22324e-06
5.22471e-06
5.22611e-06
5.22744e-06
5.22871e-06
5.22993e-06
5.23109e-06
5.23221e-06
5.23329e-06
5.23429e-06
5.23533e-06
5.23613e-06
5.23699e-06
5.20766e-06
5.21453e-06
5.21861e-06
5.21694e-06
5.21592e-06
5.21701e-06
5.2173e-06
5.2157e-06
5.21296e-06
5.21037e-06
5.20906e-06
5.20936e-06
5.21074e-06
5.21265e-06
5.2147e-06
5.2167e-06
5.21859e-06
5.22034e-06
5.22197e-06
5.2235e-06
5.22495e-06
5.22633e-06
5.22765e-06
5.22891e-06
5.23012e-06
5.23129e-06
5.23241e-06
5.23348e-06
5.23451e-06
5.23547e-06
5.23648e-06
5.23723e-06
5.23809e-06
5.20765e-06
5.21488e-06
5.21833e-06
5.21636e-06
5.21576e-06
5.21687e-06
5.21687e-06
5.21504e-06
5.21229e-06
5.20991e-06
5.20895e-06
5.20953e-06
5.21107e-06
5.21303e-06
5.21508e-06
5.21706e-06
5.2189e-06
5.22062e-06
5.22222e-06
5.22373e-06
5.22516e-06
5.22652e-06
5.22783e-06
5.22908e-06
5.23029e-06
5.23145e-06
5.23256e-06
5.23363e-06
5.23466e-06
5.23566e-06
5.23658e-06
5.23756e-06
5.23827e-06
5.23912e-06
5.20771e-06
5.21519e-06
5.218e-06
5.21583e-06
5.21562e-06
5.2167e-06
5.21642e-06
5.2144e-06
5.21168e-06
5.20953e-06
5.20891e-06
5.20973e-06
5.2114e-06
5.2134e-06
5.21544e-06
5.21738e-06
5.21918e-06
5.22086e-06
5.22244e-06
5.22392e-06
5.22533e-06
5.22668e-06
5.22798e-06
5.22923e-06
5.23043e-06
5.23158e-06
5.23269e-06
5.23376e-06
5.23479e-06
5.23577e-06
5.23673e-06
5.23762e-06
5.23857e-06
5.23924e-06
5.24009e-06
5.20784e-06
5.21546e-06
5.21761e-06
5.21536e-06
5.21549e-06
5.2165e-06
5.21596e-06
5.21379e-06
5.21114e-06
5.20923e-06
5.20893e-06
5.20996e-06
5.21173e-06
5.21375e-06
5.21576e-06
5.21767e-06
5.21943e-06
5.22108e-06
5.22262e-06
5.22409e-06
5.22549e-06
5.22682e-06
5.22811e-06
5.22935e-06
5.23054e-06
5.23168e-06
5.23279e-06
5.23385e-06
5.23488e-06
5.23587e-06
5.23682e-06
5.23774e-06
5.2386e-06
5.23952e-06
5.24015e-06
5.241e-06
5.20803e-06
5.2157e-06
5.21719e-06
5.21496e-06
5.21539e-06
5.21627e-06
5.21549e-06
5.21322e-06
5.21065e-06
5.20901e-06
5.20899e-06
5.2102e-06
5.21204e-06
5.21407e-06
5.21606e-06
5.21792e-06
5.21965e-06
5.22127e-06
5.22279e-06
5.22423e-06
5.22561e-06
5.22694e-06
5.22821e-06
5.22944e-06
5.23062e-06
5.23176e-06
5.23286e-06
5.23392e-06
5.23494e-06
5.23592e-06
5.23688e-06
5.23779e-06
5.23868e-06
5.23951e-06
5.24041e-06
5.24101e-06
5.24185e-06
5.2083e-06
5.21588e-06
5.21675e-06
5.21462e-06
5.21529e-06
5.21602e-06
5.21502e-06
5.21268e-06
5.21023e-06
5.20884e-06
5.20908e-06
5.21044e-06
5.21234e-06
5.21436e-06
5.21632e-06
5.21815e-06
5.21985e-06
5.22143e-06
5.22293e-06
5.22436e-06
5.22572e-06
5.22704e-06
5.2283e-06
5.22951e-06
5.23069e-06
5.23182e-06
5.23291e-06
5.23396e-06
5.23497e-06
5.23596e-06
5.23691e-06
5.23782e-06
5.23871e-06
5.23957e-06
5.24037e-06
5.24125e-06
5.24182e-06
5.24266e-06
5.20866e-06
5.21602e-06
5.21628e-06
5.21436e-06
5.21519e-06
5.21575e-06
5.21455e-06
5.21217e-06
5.20986e-06
5.20874e-06
5.2092e-06
5.21069e-06
5.21262e-06
5.21463e-06
5.21656e-06
5.21835e-06
5.22002e-06
5.22158e-06
5.22305e-06
5.22446e-06
5.22581e-06
5.22711e-06
5.22836e-06
5.22957e-06
5.23073e-06
5.23185e-06
5.23293e-06
5.23398e-06
5.23499e-06
5.23597e-06
5.23691e-06
5.23783e-06
5.23872e-06
5.23957e-06
5.24041e-06
5.24118e-06
5.24204e-06
5.24258e-06
5.24342e-06
5.20916e-06
5.2161e-06
5.21581e-06
5.21417e-06
5.21508e-06
5.21547e-06
5.21409e-06
5.2117e-06
5.20954e-06
5.20868e-06
5.20935e-06
5.21093e-06
5.21289e-06
5.21488e-06
5.21678e-06
5.21853e-06
5.22017e-06
5.2217e-06
5.22316e-06
5.22455e-06
5.22589e-06
5.22718e-06
5.22841e-06
5.22961e-06
5.23076e-06
5.23187e-06
5.23294e-06
5.23398e-06
5.23498e-06
5.23595e-06
5.2369e-06
5.23781e-06
5.23869e-06
5.23955e-06
5.24038e-06
5.2412e-06
5.24195e-06
5.24278e-06
5.2433e-06
5.24414e-06
5.20962e-06
5.21611e-06
5.21535e-06
5.21401e-06
5.21497e-06
5.21517e-06
5.21365e-06
5.21128e-06
5.20927e-06
5.20867e-06
5.2095e-06
5.21117e-06
5.21314e-06
5.21511e-06
5.21697e-06
5.21869e-06
5.2203e-06
5.22181e-06
5.22325e-06
5.22463e-06
5.22595e-06
5.22722e-06
5.22845e-06
5.22963e-06
5.23077e-06
5.23187e-06
5.23293e-06
5.23396e-06
5.23496e-06
5.23592e-06
5.23686e-06
5.23777e-06
5.23865e-06
5.23951e-06
5.24034e-06
5.24115e-06
5.24194e-06
5.24267e-06
5.24349e-06
5.24398e-06
5.24481e-06
5.20996e-06
5.21606e-06
5.21489e-06
5.21386e-06
5.21484e-06
5.21486e-06
5.21322e-06
5.21089e-06
5.20905e-06
5.20868e-06
5.20967e-06
5.2114e-06
5.21337e-06
5.21532e-06
5.21714e-06
5.21883e-06
5.22041e-06
5.2219e-06
5.22333e-06
5.22469e-06
5.226e-06
5.22726e-06
5.22847e-06
5.22964e-06
5.23077e-06
5.23185e-06
5.23291e-06
5.23393e-06
5.23492e-06
5.23587e-06
5.23681e-06
5.23771e-06
5.23859e-06
5.23944e-06
5.24028e-06
5.24108e-06
5.24187e-06
5.24264e-06
5.24335e-06
5.24415e-06
5.24462e-06
5.24545e-06
5.21028e-06
5.21595e-06
5.21446e-06
5.21372e-06
5.2147e-06
5.21454e-06
5.21282e-06
5.21053e-06
5.20887e-06
5.20871e-06
5.20984e-06
5.21162e-06
5.21359e-06
5.21551e-06
5.2173e-06
5.21896e-06
5.22051e-06
5.22199e-06
5.22339e-06
5.22474e-06
5.22603e-06
5.22728e-06
5.22848e-06
5.22963e-06
5.23075e-06
5.23183e-06
5.23287e-06
5.23388e-06
5.23486e-06
5.23581e-06
5.23674e-06
5.23764e-06
5.23851e-06
5.23936e-06
5.24019e-06
5.241e-06
5.24179e-06
5.24255e-06
5.2433e-06
5.24399e-06
5.24478e-06
5.24523e-06
5.24606e-06
5.21057e-06
5.2158e-06
5.21405e-06
5.21359e-06
5.21455e-06
5.21423e-06
5.21243e-06
5.21021e-06
5.20872e-06
5.20876e-06
5.21001e-06
5.21183e-06
5.21379e-06
5.21568e-06
5.21744e-06
5.21907e-06
5.2206e-06
5.22205e-06
5.22344e-06
5.22477e-06
5.22605e-06
5.22729e-06
5.22847e-06
5.22962e-06
5.23072e-06
5.23179e-06
5.23282e-06
5.23382e-06
5.23479e-06
5.23574e-06
5.23665e-06
5.23755e-06
5.23842e-06
5.23926e-06
5.24009e-06
5.2409e-06
5.24168e-06
5.24245e-06
5.24319e-06
5.24392e-06
5.2446e-06
5.24537e-06
5.2458e-06
5.24663e-06
5.21083e-06
5.21562e-06
5.21368e-06
5.21347e-06
5.21439e-06
5.21392e-06
5.21207e-06
5.20993e-06
5.20861e-06
5.20883e-06
5.21018e-06
5.21203e-06
5.21397e-06
5.21584e-06
5.21756e-06
5.21917e-06
5.22068e-06
5.22211e-06
5.22349e-06
5.2248e-06
5.22607e-06
5.22729e-06
5.22846e-06
5.22959e-06
5.23068e-06
5.23174e-06
5.23276e-06
5.23375e-06
5.23472e-06
5.23565e-06
5.23656e-06
5.23745e-06
5.23831e-06
5.23915e-06
5.23997e-06
5.24078e-06
5.24156e-06
5.24233e-06
5.24307e-06
5.2438e-06
5.24451e-06
5.24517e-06
5.24594e-06
5.24635e-06
5.24718e-06
5.21107e-06
5.2154e-06
5.21333e-06
5.21337e-06
5.21422e-06
5.21361e-06
5.21173e-06
5.20967e-06
5.20853e-06
5.20892e-06
5.21035e-06
5.21221e-06
5.21415e-06
5.21598e-06
5.21767e-06
5.21925e-06
5.22074e-06
5.22216e-06
5.22352e-06
5.22482e-06
5.22607e-06
5.22728e-06
5.22844e-06
5.22956e-06
5.23064e-06
5.23168e-06
5.23269e-06
5.23367e-06
5.23463e-06
5.23555e-06
5.23646e-06
5.23734e-06
5.23819e-06
5.23903e-06
5.23985e-06
5.24064e-06
5.24142e-06
5.24219e-06
5.24293e-06
5.24366e-06
5.24437e-06
5.24507e-06
5.24572e-06
5.24647e-06
5.24687e-06
5.24769e-06
5.21128e-06
5.21515e-06
5.21303e-06
5.21327e-06
5.21404e-06
5.21331e-06
5.21141e-06
5.20944e-06
5.20847e-06
5.20901e-06
5.21051e-06
5.21239e-06
5.2143e-06
5.2161e-06
5.21777e-06
5.21933e-06
5.2208e-06
5.2222e-06
5.22354e-06
5.22483e-06
5.22607e-06
5.22726e-06
5.22841e-06
5.22951e-06
5.23058e-06
5.23162e-06
5.23262e-06
5.23359e-06
5.23453e-06
5.23545e-06
5.23634e-06
5.23722e-06
5.23807e-06
5.2389e-06
5.23971e-06
5.2405e-06
5.24128e-06
5.24204e-06
5.24278e-06
5.24351e-06
5.24422e-06
5.24491e-06
5.2456e-06
5.24623e-06
5.24697e-06
5.24735e-06
5.24818e-06
5.21146e-06
5.21489e-06
5.21275e-06
5.21317e-06
5.21386e-06
5.21302e-06
5.21112e-06
5.20924e-06
5.20844e-06
5.20911e-06
5.21067e-06
5.21256e-06
5.21445e-06
5.21622e-06
5.21786e-06
5.2194e-06
5.22085e-06
5.22223e-06
5.22356e-06
5.22484e-06
5.22606e-06
5.22724e-06
5.22837e-06
5.22947e-06
5.23052e-06
5.23154e-06
5.23253e-06
5.23349e-06
5.23443e-06
5.23534e-06
5.23622e-06
5.23709e-06
5.23793e-06
5.23875e-06
5.23956e-06
5.24034e-06
5.24112e-06
5.24187e-06
5.24261e-06
5.24334e-06
5.24405e-06
5.24475e-06
5.24543e-06
5.2461e-06
5.24672e-06
5.24745e-06
5.24782e-06
5.24864e-06
5.21162e-06
5.2146e-06
5.21252e-06
5.21308e-06
5.21367e-06
5.21274e-06
5.21084e-06
5.20906e-06
5.20843e-06
5.20922e-06
5.21083e-06
5.21271e-06
5.21458e-06
5.21632e-06
5.21794e-06
5.21945e-06
5.22089e-06
5.22226e-06
5.22357e-06
5.22483e-06
5.22605e-06
5.22721e-06
5.22833e-06
5.22941e-06
5.23045e-06
5.23146e-06
5.23244e-06
5.23339e-06
5.23432e-06
5.23522e-06
5.2361e-06
5.23695e-06
5.23779e-06
5.2386e-06
5.2394e-06
5.24018e-06
5.24095e-06
5.2417e-06
5.24243e-06
5.24316e-06
5.24387e-06
5.24456e-06
5.24525e-06
5.24591e-06
5.24658e-06
5.24718e-06
5.2479e-06
5.24826e-06
5.24907e-06
5.21175e-06
5.21431e-06
5.21232e-06
5.21298e-06
5.21348e-06
5.21246e-06
5.21059e-06
5.2089e-06
5.20843e-06
5.20932e-06
5.21097e-06
5.21286e-06
5.2147e-06
5.21642e-06
5.21801e-06
5.21951e-06
5.22092e-06
5.22228e-06
5.22358e-06
5.22483e-06
5.22602e-06
5.22717e-06
5.22828e-06
5.22935e-06
5.23038e-06
5.23138e-06
5.23235e-06
5.23329e-06
5.2342e-06
5.23509e-06
5.23596e-06
5.23681e-06
5.23764e-06
5.23844e-06
5.23923e-06
5.24001e-06
5.24077e-06
5.24151e-06
5.24225e-06
5.24296e-06
5.24367e-06
5.24436e-06
5.24505e-06
5.24572e-06
5.24637e-06
5.24702e-06
5.24762e-06
5.24833e-06
5.24867e-06
5.24949e-06
5.21186e-06
5.21401e-06
5.21216e-06
5.21289e-06
5.21329e-06
5.21221e-06
5.21035e-06
5.20877e-06
5.20844e-06
5.20943e-06
5.21112e-06
5.21299e-06
5.21481e-06
5.2165e-06
5.21807e-06
5.21955e-06
5.22095e-06
5.22229e-06
5.22358e-06
5.22481e-06
5.226e-06
5.22713e-06
5.22823e-06
5.22929e-06
5.23031e-06
5.23129e-06
5.23225e-06
5.23318e-06
5.23409e-06
5.23497e-06
5.23582e-06
5.23666e-06
5.23748e-06
5.23828e-06
5.23906e-06
5.23983e-06
5.24058e-06
5.24132e-06
5.24205e-06
5.24276e-06
5.24346e-06
5.24416e-06
5.24484e-06
5.2455e-06
5.24616e-06
5.2468e-06
5.24745e-06
5.24803e-06
5.24874e-06
5.24907e-06
5.24988e-06
5.21195e-06
5.2137e-06
5.21202e-06
5.2128e-06
5.2131e-06
5.21196e-06
5.21013e-06
5.20865e-06
5.20847e-06
5.20954e-06
5.21125e-06
5.21312e-06
5.21491e-06
5.21658e-06
5.21813e-06
5.21959e-06
5.22097e-06
5.2223e-06
5.22357e-06
5.22479e-06
5.22597e-06
5.22709e-06
5.22817e-06
5.22922e-06
5.23023e-06
5.2312e-06
5.23215e-06
5.23307e-06
5.23396e-06
5.23483e-06
5.23568e-06
5.23651e-06
5.23732e-06
5.23811e-06
5.23889e-06
5.23965e-06
5.24039e-06
5.24112e-06
5.24184e-06
5.24255e-06
5.24325e-06
5.24394e-06
5.24461e-06
5.24528e-06
5.24594e-06
5.24658e-06
5.24722e-06
5.24785e-06
5.24842e-06
5.24912e-06
5.24945e-06
5.25025e-06
5.21201e-06
5.2134e-06
5.21189e-06
5.2127e-06
5.21291e-06
5.21172e-06
5.20993e-06
5.20855e-06
5.2085e-06
5.20965e-06
5.21138e-06
5.21323e-06
5.215e-06
5.21665e-06
5.21818e-06
5.21962e-06
5.22099e-06
5.22231e-06
5.22356e-06
5.22477e-06
5.22593e-06
5.22704e-06
5.22811e-06
5.22915e-06
5.23014e-06
5.23111e-06
5.23204e-06
5.23295e-06
5.23384e-06
5.2347e-06
5.23554e-06
5.23636e-06
5.23716e-06
5.23794e-06
5.23871e-06
5.23946e-06
5.2402e-06
5.24092e-06
5.24163e-06
5.24234e-06
5.24303e-06
5.24371e-06
5.24438e-06
5.24505e-06
5.2457e-06
5.24635e-06
5.24698e-06
5.2476e-06
5.24823e-06
5.2488e-06
5.24949e-06
5.2498e-06
5.25061e-06
5.21206e-06
5.2131e-06
5.21177e-06
5.2126e-06
5.21273e-06
5.2115e-06
5.20975e-06
5.20846e-06
5.20854e-06
5.20976e-06
5.2115e-06
5.21334e-06
5.21509e-06
5.21671e-06
5.21822e-06
5.21965e-06
5.221e-06
5.22231e-06
5.22355e-06
5.22475e-06
5.22589e-06
5.22699e-06
5.22805e-06
5.22907e-06
5.23006e-06
5.23101e-06
5.23194e-06
5.23284e-06
5.23371e-06
5.23456e-06
5.23539e-06
5.2362e-06
5.23699e-06
5.23776e-06
5.23852e-06
5.23927e-06
5.24e-06
5.24071e-06
5.24142e-06
5.24211e-06
5.2428e-06
5.24348e-06
5.24414e-06
5.2448e-06
5.24546e-06
5.2461e-06
5.24673e-06
5.24736e-06
5.24797e-06
5.24859e-06
5.24915e-06
5.24984e-06
5.25014e-06
5.25094e-06
5.21208e-06
5.2128e-06
5.21164e-06
5.21249e-06
5.21254e-06
5.21129e-06
5.20958e-06
5.20839e-06
5.20858e-06
5.20986e-06
5.21162e-06
5.21344e-06
5.21517e-06
5.21676e-06
5.21826e-06
5.21967e-06
5.22101e-06
5.2223e-06
5.22353e-06
5.22472e-06
5.22585e-06
5.22694e-06
5.22798e-06
5.22899e-06
5.22997e-06
5.23091e-06
5.23183e-06
5.23272e-06
5.23358e-06
5.23442e-06
5.23524e-06
5.23604e-06
5.23682e-06
5.23759e-06
5.23834e-06
5.23907e-06
5.23979e-06
5.2405e-06
5.2412e-06
5.24189e-06
5.24257e-06
5.24324e-06
5.2439e-06
5.24456e-06
5.2452e-06
5.24584e-06
5.24648e-06
5.2471e-06
5.24772e-06
5.24832e-06
5.24893e-06
5.24949e-06
5.25017e-06
5.25046e-06
5.25126e-06
5.21209e-06
5.2125e-06
5.21153e-06
5.21239e-06
5.21236e-06
5.21109e-06
5.20942e-06
5.20833e-06
5.20863e-06
5.20996e-06
5.21173e-06
5.21353e-06
5.21524e-06
5.21681e-06
5.21829e-06
5.21969e-06
5.22102e-06
5.22229e-06
5.22351e-06
5.22468e-06
5.2258e-06
5.22688e-06
5.22792e-06
5.22891e-06
5.22988e-06
5.23081e-06
5.23172e-06
5.23259e-06
5.23345e-06
5.23428e-06
5.23509e-06
5.23588e-06
5.23665e-06
5.23741e-06
5.23815e-06
5.23887e-06
5.23959e-06
5.24029e-06
5.24098e-06
5.24166e-06
5.24233e-06
5.243e-06
5.24365e-06
5.2443e-06
5.24494e-06
5.24558e-06
5.24621e-06
5.24683e-06
5.24745e-06
5.24806e-06
5.24866e-06
5.24926e-06
5.2498e-06
5.25048e-06
5.25077e-06
5.25156e-06
5.21209e-06
5.21222e-06
5.21142e-06
5.21228e-06
5.21219e-06
5.2109e-06
5.20928e-06
5.20829e-06
5.20868e-06
5.21006e-06
5.21183e-06
5.21362e-06
5.2153e-06
5.21686e-06
5.21832e-06
5.2197e-06
5.22102e-06
5.22228e-06
5.22349e-06
5.22465e-06
5.22576e-06
5.22682e-06
5.22785e-06
5.22883e-06
5.22979e-06
5.23071e-06
5.2316e-06
5.23247e-06
5.23332e-06
5.23414e-06
5.23494e-06
5.23572e-06
5.23648e-06
5.23723e-06
5.23796e-06
5.23868e-06
5.23938e-06
5.24007e-06
5.24076e-06
5.24143e-06
5.2421e-06
5.24275e-06
5.2434e-06
5.24404e-06
5.24468e-06
5.24531e-06
5.24594e-06
5.24656e-06
5.24717e-06
5.24778e-06
5.24838e-06
5.24897e-06
5.24957e-06
5.25011e-06
5.25078e-06
5.25106e-06
5.25185e-06
5.21206e-06
5.21194e-06
5.21131e-06
5.21218e-06
5.21202e-06
5.21072e-06
5.20915e-06
5.20825e-06
5.20874e-06
5.21016e-06
5.21193e-06
5.2137e-06
5.21536e-06
5.2169e-06
5.21834e-06
5.21971e-06
5.22102e-06
5.22227e-06
5.22347e-06
5.22461e-06
5.22571e-06
5.22676e-06
5.22778e-06
5.22875e-06
5.2297e-06
5.23061e-06
5.23149e-06
5.23235e-06
5.23318e-06
5.23399e-06
5.23478e-06
5.23556e-06
5.23631e-06
5.23704e-06
5.23777e-06
5.23848e-06
5.23917e-06
5.23986e-06
5.24053e-06
5.2412e-06
5.24186e-06
5.24251e-06
5.24315e-06
5.24378e-06
5.24442e-06
5.24504e-06
5.24566e-06
5.24628e-06
5.24689e-06
5.24749e-06
5.24809e-06
5.24869e-06
5.24927e-06
5.24986e-06
5.2504e-06
5.25107e-06
5.25134e-06
5.25212e-06
5.21203e-06
5.21167e-06
5.21121e-06
5.21207e-06
5.21186e-06
5.21056e-06
5.20903e-06
5.20822e-06
5.20879e-06
5.21025e-06
5.21202e-06
5.21377e-06
5.21541e-06
5.21693e-06
5.21836e-06
5.21972e-06
5.22102e-06
5.22225e-06
5.22344e-06
5.22457e-06
5.22566e-06
5.2267e-06
5.2277e-06
5.22867e-06
5.2296e-06
5.2305e-06
5.23138e-06
5.23223e-06
5.23305e-06
5.23385e-06
5.23463e-06
5.23539e-06
5.23614e-06
5.23686e-06
5.23758e-06
5.23828e-06
5.23896e-06
5.23964e-06
5.24031e-06
5.24097e-06
5.24162e-06
5.24226e-06
5.24289e-06
5.24352e-06
5.24415e-06
5.24477e-06
5.24538e-06
5.24599e-06
5.2466e-06
5.2472e-06
5.2478e-06
5.24839e-06
5.24898e-06
5.24956e-06
5.25014e-06
5.25067e-06
5.25134e-06
5.25161e-06
5.25239e-06
5.21198e-06
5.21142e-06
5.21111e-06
5.21196e-06
5.21171e-06
5.2104e-06
5.20892e-06
5.20821e-06
5.20885e-06
5.21034e-06
5.2121e-06
5.21384e-06
5.21546e-06
5.21697e-06
5.21838e-06
5.21973e-06
5.22101e-06
5.22224e-06
5.22341e-06
5.22453e-06
5.22561e-06
5.22664e-06
5.22763e-06
5.22859e-06
5.22951e-06
5.2304e-06
5.23127e-06
5.2321e-06
5.23292e-06
5.23371e-06
5.23448e-06
5.23523e-06
5.23596e-06
5.23668e-06
5.23739e-06
5.23808e-06
5.23876e-06
5.23942e-06
5.24008e-06
5.24073e-06
5.24138e-06
5.24201e-06
5.24264e-06
5.24326e-06
5.24388e-06
5.24449e-06
5.2451e-06
5.2457e-06
5.2463e-06
5.2469e-06
5.2475e-06
5.24809e-06
5.24867e-06
5.24925e-06
5.24983e-06
5.25041e-06
5.25093e-06
5.2516e-06
5.25186e-06
5.25263e-06
5.21192e-06
5.21118e-06
5.21102e-06
5.21186e-06
5.21156e-06
5.21025e-06
5.20881e-06
5.20819e-06
5.20891e-06
5.21043e-06
5.21219e-06
5.21391e-06
5.21551e-06
5.217e-06
5.2184e-06
5.21973e-06
5.221e-06
5.22222e-06
5.22338e-06
5.22449e-06
5.22556e-06
5.22658e-06
5.22756e-06
5.2285e-06
5.22942e-06
5.2303e-06
5.23115e-06
5.23198e-06
5.23279e-06
5.23357e-06
5.23433e-06
5.23507e-06
5.23579e-06
5.2365e-06
5.2372e-06
5.23788e-06
5.23855e-06
5.23921e-06
5.23986e-06
5.2405e-06
5.24113e-06
5.24176e-06
5.24238e-06
5.243e-06
5.24361e-06
5.24421e-06
5.24481e-06
5.24541e-06
5.24601e-06
5.2466e-06
5.24719e-06
5.24778e-06
5.24836e-06
5.24894e-06
5.24952e-06
5.25008e-06
5.25066e-06
5.25118e-06
5.25185e-06
5.2521e-06
5.25287e-06
5.21185e-06
5.21095e-06
5.21093e-06
5.21175e-06
5.21141e-06
5.21011e-06
5.20872e-06
5.20819e-06
5.20897e-06
5.21051e-06
5.21226e-06
5.21396e-06
5.21555e-06
5.21702e-06
5.21841e-06
5.21973e-06
5.22099e-06
5.2222e-06
5.22335e-06
5.22445e-06
5.2255e-06
5.22651e-06
5.22748e-06
5.22842e-06
5.22932e-06
5.23019e-06
5.23104e-06
5.23186e-06
5.23265e-06
5.23342e-06
5.23418e-06
5.23491e-06
5.23562e-06
5.23632e-06
5.23701e-06
5.23768e-06
5.23834e-06
5.23899e-06
5.23964e-06
5.24027e-06
5.2409e-06
5.24151e-06
5.24213e-06
5.24273e-06
5.24334e-06
5.24394e-06
5.24453e-06
5.24512e-06
5.24571e-06
5.2463e-06
5.24688e-06
5.24746e-06
5.24804e-06
5.24862e-06
5.24919e-06
5.24977e-06
5.25033e-06
5.2509e-06
5.25142e-06
5.25208e-06
5.25233e-06
5.2531e-06
5.21177e-06
5.21073e-06
5.21085e-06
5.21165e-06
5.21127e-06
5.20998e-06
5.20864e-06
5.20819e-06
5.20903e-06
5.21059e-06
5.21233e-06
5.21402e-06
5.21558e-06
5.21704e-06
5.21842e-06
5.21973e-06
5.22098e-06
5.22218e-06
5.22332e-06
5.22441e-06
5.22545e-06
5.22645e-06
5.22741e-06
5.22834e-06
5.22923e-06
5.23009e-06
5.23093e-06
5.23174e-06
5.23252e-06
5.23328e-06
5.23403e-06
5.23475e-06
5.23546e-06
5.23615e-06
5.23682e-06
5.23749e-06
5.23814e-06
5.23878e-06
5.23941e-06
5.24004e-06
5.24066e-06
5.24127e-06
5.24187e-06
5.24247e-06
5.24307e-06
5.24366e-06
5.24425e-06
5.24483e-06
5.24541e-06
5.24599e-06
5.24657e-06
5.24715e-06
5.24772e-06
5.24829e-06
5.24887e-06
5.24943e-06
5.25e-06
5.25056e-06
5.25114e-06
5.25165e-06
5.25231e-06
5.25256e-06
5.25331e-06
5.21168e-06
5.21052e-06
5.21077e-06
5.21155e-06
5.21114e-06
5.20986e-06
5.20856e-06
5.2082e-06
5.20909e-06
5.21066e-06
5.2124e-06
5.21407e-06
5.21562e-06
5.21706e-06
5.21843e-06
5.21973e-06
5.22097e-06
5.22215e-06
5.22328e-06
5.22436e-06
5.22539e-06
5.22638e-06
5.22734e-06
5.22825e-06
5.22914e-06
5.22999e-06
5.23082e-06
5.23162e-06
5.23239e-06
5.23314e-06
5.23388e-06
5.23459e-06
5.23529e-06
5.23597e-06
5.23664e-06
5.23729e-06
5.23794e-06
5.23857e-06
5.23919e-06
5.23981e-06
5.24042e-06
5.24102e-06
5.24162e-06
5.24221e-06
5.2428e-06
5.24338e-06
5.24396e-06
5.24454e-06
5.24511e-06
5.24569e-06
5.24626e-06
5.24683e-06
5.2474e-06
5.24796e-06
5.24853e-06
5.2491e-06
5.24966e-06
5.25023e-06
5.25079e-06
5.25136e-06
5.25187e-06
5.25252e-06
5.25277e-06
5.25352e-06
5.21158e-06
5.21033e-06
5.21069e-06
5.21145e-06
5.21101e-06
5.20974e-06
5.20849e-06
5.20821e-06
5.20915e-06
5.21073e-06
5.21246e-06
5.21411e-06
5.21565e-06
5.21708e-06
5.21844e-06
5.21973e-06
5.22096e-06
5.22213e-06
5.22325e-06
5.22432e-06
5.22534e-06
5.22632e-06
5.22726e-06
5.22817e-06
5.22904e-06
5.22989e-06
5.23071e-06
5.2315e-06
5.23226e-06
5.23301e-06
5.23373e-06
5.23443e-06
5.23512e-06
5.2358e-06
5.23645e-06
5.2371e-06
5.23774e-06
5.23836e-06
5.23898e-06
5.23958e-06
5.24018e-06
5.24078e-06
5.24137e-06
5.24195e-06
5.24253e-06
5.24311e-06
5.24368e-06
5.24425e-06
5.24482e-06
5.24538e-06
5.24595e-06
5.24651e-06
5.24707e-06
5.24763e-06
5.2482e-06
5.24876e-06
5.24932e-06
5.24988e-06
5.25044e-06
5.251e-06
5.25157e-06
5.25208e-06
5.25273e-06
5.25297e-06
5.25371e-06
5.21148e-06
5.21015e-06
5.21062e-06
5.21135e-06
5.21089e-06
5.20963e-06
5.20843e-06
5.20822e-06
5.20921e-06
5.2108e-06
5.21252e-06
5.21415e-06
5.21567e-06
5.2171e-06
5.21844e-06
5.21972e-06
5.22094e-06
5.22211e-06
5.22322e-06
5.22427e-06
5.22529e-06
5.22626e-06
5.22719e-06
5.22809e-06
5.22895e-06
5.22979e-06
5.2306e-06
5.23138e-06
5.23213e-06
5.23287e-06
5.23358e-06
5.23428e-06
5.23496e-06
5.23562e-06
5.23627e-06
5.23691e-06
5.23754e-06
5.23815e-06
5.23876e-06
5.23936e-06
5.23995e-06
5.24054e-06
5.24112e-06
5.24169e-06
5.24226e-06
5.24283e-06
5.2434e-06
5.24396e-06
5.24452e-06
5.24508e-06
5.24563e-06
5.24619e-06
5.24675e-06
5.2473e-06
5.24786e-06
5.24842e-06
5.24897e-06
5.24953e-06
5.25009e-06
5.25065e-06
5.2512e-06
5.25177e-06
5.25228e-06
5.25293e-06
5.25317e-06
5.2539e-06
5.21137e-06
5.20999e-06
5.21056e-06
5.21126e-06
5.21078e-06
5.20952e-06
5.20837e-06
5.20823e-06
5.20927e-06
5.21087e-06
5.21257e-06
5.21419e-06
5.2157e-06
5.21711e-06
5.21844e-06
5.21971e-06
5.22093e-06
5.22208e-06
5.22318e-06
5.22423e-06
5.22523e-06
5.2262e-06
5.22712e-06
5.22801e-06
5.22886e-06
5.22969e-06
5.23049e-06
5.23126e-06
5.23201e-06
5.23273e-06
5.23344e-06
5.23413e-06
5.2348e-06
5.23545e-06
5.23609e-06
5.23672e-06
5.23734e-06
5.23795e-06
5.23855e-06
5.23914e-06
5.23972e-06
5.2403e-06
5.24087e-06
5.24144e-06
5.242e-06
5.24256e-06
5.24312e-06
5.24367e-06
5.24422e-06
5.24478e-06
5.24533e-06
5.24587e-06
5.24642e-06
5.24697e-06
5.24752e-06
5.24807e-06
5.24862e-06
5.24918e-06
5.24973e-06
5.25029e-06
5.25084e-06
5.2514e-06
5.25196e-06
5.25247e-06
5.25312e-06
5.25335e-06
5.25408e-06
5.21126e-06
5.20983e-06
5.21049e-06
5.21117e-06
5.21067e-06
5.20943e-06
5.20832e-06
5.20825e-06
5.20932e-06
5.21093e-06
5.21262e-06
5.21423e-06
5.21572e-06
5.21712e-06
5.21844e-06
5.21971e-06
5.22091e-06
5.22205e-06
5.22315e-06
5.22419e-06
5.22518e-06
5.22613e-06
5.22705e-06
5.22793e-06
5.22878e-06
5.22959e-06
5.23038e-06
5.23114e-06
5.23188e-06
5.2326e-06
5.2333e-06
5.23398e-06
5.23464e-06
5.23528e-06
5.23592e-06
5.23654e-06
5.23715e-06
5.23775e-06
5.23834e-06
5.23892e-06
5.2395e-06
5.24006e-06
5.24063e-06
5.24119e-06
5.24174e-06
5.24229e-06
5.24284e-06
5.24339e-06
5.24393e-06
5.24448e-06
5.24502e-06
5.24556e-06
5.2461e-06
5.24664e-06
5.24719e-06
5.24773e-06
5.24827e-06
5.24882e-06
5.24937e-06
5.24992e-06
5.25047e-06
5.25103e-06
5.25158e-06
5.25215e-06
5.25265e-06
5.2533e-06
5.25353e-06
5.25425e-06
5.21114e-06
5.20969e-06
5.21043e-06
5.21107e-06
5.21056e-06
5.20933e-06
5.20828e-06
5.20827e-06
5.20938e-06
5.21099e-06
5.21267e-06
5.21426e-06
5.21574e-06
5.21713e-06
5.21844e-06
5.2197e-06
5.22089e-06
5.22203e-06
5.22311e-06
5.22414e-06
5.22513e-06
5.22607e-06
5.22698e-06
5.22785e-06
5.22869e-06
5.2295e-06
5.23028e-06
5.23103e-06
5.23176e-06
5.23247e-06
5.23316e-06
5.23383e-06
5.23448e-06
5.23512e-06
5.23574e-06
5.23636e-06
5.23696e-06
5.23755e-06
5.23813e-06
5.2387e-06
5.23927e-06
5.23983e-06
5.24039e-06
5.24094e-06
5.24148e-06
5.24203e-06
5.24257e-06
5.24311e-06
5.24364e-06
5.24418e-06
5.24471e-06
5.24525e-06
5.24578e-06
5.24632e-06
5.24685e-06
5.24739e-06
5.24793e-06
5.24847e-06
5.24901e-06
5.24955e-06
5.2501e-06
5.25065e-06
5.25121e-06
5.25176e-06
5.25232e-06
5.25283e-06
5.25347e-06
5.2537e-06
5.25442e-06
5.21102e-06
5.20956e-06
5.21037e-06
5.21099e-06
5.21046e-06
5.20924e-06
5.20823e-06
5.20829e-06
5.20943e-06
5.21104e-06
5.21272e-06
5.21429e-06
5.21576e-06
5.21714e-06
5.21844e-06
5.21969e-06
5.22087e-06
5.222e-06
5.22307e-06
5.2241e-06
5.22508e-06
5.22601e-06
5.22691e-06
5.22777e-06
5.2286e-06
5.2294e-06
5.23017e-06
5.23092e-06
5.23164e-06
5.23234e-06
5.23302e-06
5.23368e-06
5.23433e-06
5.23496e-06
5.23557e-06
5.23618e-06
5.23677e-06
5.23735e-06
5.23793e-06
5.23849e-06
5.23905e-06
5.2396e-06
5.24015e-06
5.24069e-06
5.24123e-06
5.24176e-06
5.2423e-06
5.24283e-06