/*--------------------------------*- C++ -*----------------------------------*\
  =========                 |
  \\      /  F ield         | OpenFOAM: The Open Source CFD Toolbox
   \\    /   O peration     | Website:  https://openfoam.org
    \\  /    A nd           | Version:  7
     \\/     M anipulation  |
\*---------------------------------------------------------------------------*/
FoamFile
{
    version     2.0;
    format      ascii;
    class       volScalarField;
    location    "1400";
    object      p;
}
// * * * * * * * * * * * * * * * * * * * * * * * * * * * * * * * * * * * * * //

dimensions      [0 2 -2 0 0 0 0];

internalField   nonuniform List<scalar> 
23117
(
2.26001
6.39876
0.551865
9.76111
2.0879
0.641435
12.3071
4.19959
2.13941
0.755442
14.431
5.98626
4.00037
2.35865
0.659507
16.2549
7.57552
5.65088
4.27819
2.01291
0.663056
17.8711
8.94466
7.20685
5.94784
3.83705
1.89898
0.686649
19.3275
10.1486
8.6211
7.51781
5.43867
3.67501
1.84523
0.692953
20.6571
11.2142
9.9213
8.95211
6.97063
5.23257
3.60637
1.77986
0.691676
21.8805
12.1667
11.1174
10.2783
8.38271
6.7473
5.13448
3.52256
1.74454
0.680068
23.0142
13.0245
12.2248
11.5033
9.7008
8.15713
6.63462
5.02534
3.46483
1.72981
0.661535
24.0693
13.8015
13.2551
12.6394
10.9287
9.48662
8.03736
6.51312
4.9479
3.42513
1.72087
0.645119
25.0548
14.5085
14.2185
13.6957
12.0767
10.7358
9.36896
7.90972
6.4257
4.89349
3.39152
1.71216
0.636433
25.9781
15.1542
15.1231
14.6809
13.1522
11.9128
10.6273
9.24316
7.8186
6.36208
4.84907
3.36275
1.70016
0.636192
26.8441
15.7453
15.9757
15.602
14.1626
13.0232
11.8193
10.5097
9.15512
7.75188
6.30964
4.81184
3.33737
1.68409
0.641874
27.6593
16.288
16.7819
16.465
15.1141
14.0728
12.9494
11.7159
10.4305
9.0909
7.69716
6.26569
4.77877
3.31373
1.66548
0.649927
28.4269
16.7862
17.5462
17.2751
16.012
15.0665
14.0224
12.865
11.6506
10.3738
9.03856
7.65143
6.22689
4.74713
3.2909
1.64616
0.65759
29.151
17.2444
18.2726
18.0367
16.861
16.0087
15.0425
13.9613
12.818
11.606
10.3284
8.99499
7.61078
6.19014
4.71551
3.26817
1.62723
0.663577
29.8345
17.6657
18.9641
18.7535
17.6652
16.9035
16.0135
15.0081
13.9365
12.7897
11.5717
10.291
8.95595
7.57175
6.15351
4.68312
3.24494
1.609
0.667783
30.4805
18.0533
19.6235
19.4284
18.428
17.7541
16.9388
16.0089
15.0088
13.928
12.7702
11.5443
10.2572
8.91784
7.53218
6.11574
4.64943
3.22078
1.59122
0.670667
31.0914
18.4097
20.2531
20.0644
19.1524
18.5634
17.8214
16.9665
16.0378
15.0233
13.9269
12.7564
11.5192
10.2233
8.87835
7.4906
6.07593
4.61409
3.19542
1.5735
0.672766
31.6696
18.7373
20.8551
20.6639
19.841
19.3339
18.6639
17.8835
17.0259
16.0781
15.0436
13.9298
12.7433
11.4926
10.1868
8.83588
7.44603
6.03352
4.57686
3.16871
1.5555
0.674452
32.2172
19.0381
21.4312
21.2288
20.496
20.0678
19.4686
18.762
17.9754
17.0945
16.1228
15.0664
13.9319
12.7274
11.4623
10.1462
8.7893
7.39782
5.98819
4.53757
3.14062
1.537
0.675918
32.7362
19.3139
21.9829
21.7611
21.1195
20.767
20.2373
19.604
18.8882
18.0745
17.1661
16.1683
15.0869
13.9297
12.7062
11.4264
10.1001
8.73791
7.3456
5.93973
4.49613
3.11117
1.51795
0.677239
33.2287
19.5664
22.5118
22.2625
21.7133
21.4332
20.9719
20.4112
19.7656
19.0195
18.1752
17.2369
16.2098
15.1013
13.9207
12.678
11.3837
10.0479
8.68126
7.28916
5.88811
4.45254
3.08043
1.49835
0.67843
33.696
19.7973
23.0191
22.7346
22.2791
22.0679
21.6739
21.1849
20.6093
19.9309
19.1513
18.2736
17.3021
16.2438
15.1074
13.9031
12.6414
11.3334
9.98913
8.61915
7.22847
5.83338
4.40689
3.0485
1.47826
0.67951
34.14
20.0079
23.5061
23.1788
22.8182
22.6724
22.3447
21.9265
21.4204
20.8098
20.0956
19.2797
18.3652
17.3584
16.2679
15.1032
13.8754
12.5956
11.2749
9.92349
8.55156
7.16361
5.77569
4.35931
3.01551
1.45774
0.680506
34.562
20.1996
23.9736
23.5964
23.3321
23.2479
22.9855
22.6371
22.1999
21.6571
21.009
20.2558
19.3998
18.4463
17.4032
16.28
15.0874
13.8369
12.54
11.2081
9.85102
8.47862
7.09477
5.71525
4.31
2.9816
1.43687
0.681456
34.9637
20.3736
24.4229
23.9886
23.822
23.7956
23.5976
23.3177
22.9487
22.4739
21.8922
21.2027
20.4066
19.5082
18.5144
17.4344
16.2787
15.0589
13.7869
12.4746
11.1331
9.77189
8.40057
7.02223
5.65231
4.25917
2.94695
1.41571
0.682409
35.3461
20.5311
24.8547
24.3566
24.2889
24.3164
24.1818
23.9692
23.6677
23.2606
22.7458
22.121
21.3861
20.5445
19.6022
18.5674
17.4504
16.263
15.0172
13.7254
12.3992
11.0499
9.6864
8.31775
6.94632
5.58717
4.20704
2.91171
1.39435
0.683414
35.7107
20.6732
25.2699
24.7016
24.7341
24.8114
24.7392
24.5925
24.3576
24.018
23.5704
23.0111
22.3388
21.5558
20.6668
19.6795
18.6035
17.4503
16.2323
14.9621
13.6522
12.3143
10.959
9.59496
8.23056
6.86739
5.52013
4.15387
2.87605
1.37284
0.684524
36.0585
20.8009
25.6694
25.0247
25.1585
25.2815
25.2707
25.1882
25.0191
24.7465
24.3663
23.8732
23.2649
22.5421
21.7087
20.7711
19.7385
18.6217
17.4334
16.1864
14.8937
13.5679
12.2201
10.8609
9.49803
8.13944
6.78584
5.45153
4.09987
2.84014
1.35127
0.68578
36.3907
20.9152
26.0538
25.3268
25.563
25.7276
25.7772
25.7572
25.6528
25.4468
25.1339
24.7077
24.1645
23.5036
22.7277
21.8422
20.8554
19.7778
18.6213
17.3994
16.1254
14.8124
13.4727
12.1173
10.756
9.39613
8.04486
6.70206
5.38167
4.0453
2.80415
1.32969
0.687236
36.7084
21.017
26.4238
25.6089
25.9486
26.1505
26.2596
26.3002
26.2593
26.1191
25.8735
25.5147
25.0375
24.4402
23.724
22.893
21.9545
20.9185
19.7966
18.602
17.3483
16.0495
14.7185
13.3673
12.0064
10.645
9.28983
7.94731
6.61646
5.31087
3.99038
2.76823
1.30818
0.688935
37.0125
21.1072
26.7802
25.8721
26.3161
26.551
26.7186
26.8178
26.8393
26.7641
26.5854
26.2942
25.8841
25.3518
24.6971
23.923
23.0357
22.044
20.9594
19.7946
18.5636
17.2806
15.9594
14.6128
13.2524
11.8881
10.5286
9.17967
7.84725
6.52941
5.23944
3.93533
2.73253
1.28679
0.690928
37.3037
21.1866
27.1235
26.1172
26.6663
26.9299
27.1551
27.3108
27.3932
27.382
27.2699
27.0464
26.7041
26.2381
25.6469
24.9321
24.0985
23.1542
22.1097
20.9776
19.7718
18.5067
17.1967
15.8557
14.4959
13.1287
11.7632
10.4073
9.06624
7.74517
6.44131
5.16767
3.88035
2.69719
1.26557
0.693257
37.5832
21.2561
27.4543
26.3452
27
27.2881
27.5699
27.7798
27.9217
27.9734
27.9272
27.7714
27.4973
27.0989
26.573
25.9197
25.1426
24.2485
23.2472
22.1508
20.9729
19.7283
18.4316
17.0974
15.7392
14.3689
12.9971
11.6323
10.2819
8.95009
7.64153
6.35252
5.09583
3.82563
2.66234
1.24457
0.695972
37.8517
21.3163
27.7731
26.5569
27.3179
27.6264
27.9636
28.2254
28.4254
28.5388
28.5576
28.4692
28.2638
27.9339
27.4749
26.8853
26.1673
25.3265
24.3717
23.3141
22.1672
20.9457
19.6647
18.3391
16.9835
15.6108
14.2325
12.8584
11.4963
10.1529
8.83176
7.53676
6.26337
5.02418
3.77135
2.62811
1.22383
0.699122
38.1097
21.3681
28.0804
26.7532
27.6207
27.9454
28.3372
28.6484
28.9049
29.0784
29.1614
29.1399
29.0034
28.7428
28.352
27.8283
27.172
26.3875
25.4824
24.467
23.3543
22.159
20.8962
19.5817
18.2303
16.8561
15.4716
14.0877
12.7134
11.3559
10.0211
8.71177
7.43128
6.17419
4.95296
3.71767
2.5946
1.20337
0.702754
38.3582
21.412
28.3767
26.935
27.9092
28.2459
28.6912
29.0495
29.3608
29.593
29.739
29.7839
29.716
29.5252
29.2041
28.748
28.156
27.4308
26.5785
25.6089
24.534
23.368
22.1265
20.8254
19.4803
18.106
16.7161
15.3226
13.9354
12.563
11.2119
9.88696
8.5906
7.32546
6.08526
4.88238
3.66472
2.56191
1.18323
0.706916
38.5978
21.4489
28.6623
27.1031
28.1838
28.5288
29.0266
29.4293
29.7938
30.083
30.2907
30.4011
30.4016
30.2811
30.0304
29.6437
29.1183
28.4552
27.6593
26.7389
25.7053
24.5724
23.3553
22.0705
20.734
19.3616
17.9675
16.5648
15.1648
13.7766
12.4081
11.0648
9.75113
8.46873
7.21968
5.99685
4.81263
3.61263
2.53013
1.16342
0.711658
38.829
21.4792
28.9378
27.2582
28.4453
28.7947
29.3439
29.7885
30.2045
30.5489
30.817
30.9918
31.0603
31.0101
30.8308
30.5149
30.0582
29.46
28.7237
27.8562
26.8677
25.7714
24.5824
23.317
21.9919
20.6233
19.2267
17.8159
16.4032
14.9992
13.6122
12.2493
10.9154
9.61414
8.34657
7.11426
5.90921
4.7439
3.56151
2.49934
1.14396
0.717027
39.0524
21.5036
29.2034
27.4012
28.6941
29.0443
29.6439
30.1279
30.5936
30.9913
31.3183
31.5564
31.6921
31.712
31.6046
31.3608
30.9747
30.4441
29.7706
28.9595
28.02
26.9644
25.8072
24.5647
23.2539
21.8917
20.4945
19.077
17.6525
16.2326
14.8269
13.4432
12.0875
10.7643
9.47647
8.22451
7.00949
5.82255
4.67633
3.51146
2.46961
1.12485
0.723066
39.2685
21.5227
29.4596
27.5327
28.9309
29.2784
29.9274
30.4481
30.9618
31.4108
31.7951
32.0951
32.2972
32.3869
32.3516
32.1808
31.8671
31.4065
30.7987
30.0477
29.1612
28.1502
27.0287
25.8129
24.5198
23.167
21.7713
20.3488
18.9137
17.4785
16.054
14.649
13.2703
11.9234
10.612
9.33861
8.10292
6.90564
5.73706
4.61007
3.46254
2.44101
1.10608
0.729826
39.4779
21.5371
29.7065
27.6536
29.1561
29.4978
30.1949
30.7499
31.3098
31.8081
32.2479
32.6084
32.8757
33.0346
33.0714
32.9744
32.7346
32.3461
31.807
31.1196
30.2898
29.3277
28.2462
27.061
25.7893
24.449
23.0576
21.632
20.1877
18.7383
17.2953
15.8687
14.4663
13.0944
11.7577
10.4592
9.20095
7.9821
6.80295
5.65292
4.54523
3.41484
2.41358
1.08765
0.737346
39.681
21.5472
29.9445
27.7644
29.3703
29.703
30.4472
31.0339
31.6382
32.1839
32.6773
33.0966
33.428
33.6552
33.764
33.7412
33.5763
33.2619
32.7942
32.1736
31.4046
30.4954
29.4583
28.3081
27.0618
25.7374
24.3533
22.9271
21.4754
20.0127
18.552
17.104
15.6775
14.2799
12.9163
11.5909
10.3063
9.0639
7.86236
6.70165
5.57027
4.48192
3.3684
2.38737
1.06956
0.745663
39.8783
21.5535
30.1739
27.8659
29.5738
29.8948
30.685
31.3009
31.9479
32.5387
33.084
33.5604
33.9542
34.2489
34.429
34.4806
34.3916
34.153
33.7592
33.2086
32.504
31.6521
30.6638
29.553
28.3364
27.0319
25.6584
24.2343
22.7772
21.3028
19.8252
18.3563
16.9058
15.4817
14.0904
12.7366
11.4237
10.1538
8.92779
7.74396
6.60191
5.48925
4.42022
3.32325
2.3624
1.05178
0.754809
40.0702
21.5564
30.3949
27.9587
29.7671
30.0738
30.9088
31.5516
32.2394
32.8733
33.4685
34.0001
34.4549
34.8157
35.0665
35.1923
35.1798
35.0184
34.7006
34.2231
33.5865
32.7961
31.8611
30.7943
29.6119
28.3315
26.9724
25.5535
24.0935
22.6092
21.1159
19.6267
18.1524
16.7019
15.2822
13.8989
12.5561
11.2566
10.002
8.79293
7.62712
6.50391
5.40996
4.3602
3.27942
2.33871
1.03431
0.764813
40.257
21.5565
30.6077
28.0435
29.9507
30.2407
31.1193
31.7867
32.5136
33.1884
33.8316
34.4165
34.9305
35.356
35.6766
35.8762
35.9405
35.8573
35.6174
35.2156
34.6506
33.9257
33.0485
32.0306
30.8871
29.6354
28.2947
26.8846
25.4245
23.9325
22.425
20.9163
19.4186
17.9417
16.4933
15.0799
13.706
12.3752
11.09
9.85134
8.65961
7.51205
6.40778
5.33248
4.30192
3.23693
2.3163
1.01711
0.77569
40.4391
21.5542
30.8126
28.1208
30.1249
30.3961
31.3171
32.0068
32.7711
33.4848
34.1738
34.81
35.3815
35.8702
36.2592
36.532
36.6731
36.6689
36.5086
36.1849
35.6947
35.0393
34.2244
33.2601
32.1605
30.9422
29.6244
28.227
26.7701
25.2728
23.753
22.2261
20.7056
19.2023
17.7253
16.2812
14.8756
13.5125
12.1947
10.9244
9.70216
8.52807
7.39891
6.31363
5.25689
4.24542
3.19579
2.29519
1.00018
0.787451
40.6168
21.5498
31.0095
28.1912
30.29
30.5406
31.5028
32.2127
33.0127
33.763
34.4961
35.1815
35.8085
36.3585
36.8148
37.1598
37.3774
37.4526
37.3731
37.1297
36.7173
36.1351
35.3869
34.4811
33.4304
32.2507
30.9605
29.5801
28.1301
26.6305
25.1004
23.5568
22.0142
20.4851
18.9792
17.5044
16.0665
14.6702
13.3189
12.015
10.7601
9.55475
8.39853
7.28786
6.22159
5.18324
4.19073
3.15599
2.27538
0.983499
0.800103
40.7904
21.5437
31.1989
28.2553
30.4465
30.6749
31.677
32.405
33.239
34.0239
34.7989
35.5315
36.212
36.8216
37.3434
37.7597
38.0531
38.2078
38.21
38.0488
37.7168
37.2113
36.5341
35.6917
34.695
33.559
32.3017
30.9429
29.5038
28.0054
26.4677
24.9091
23.3456
21.791
20.2564
18.7505
17.2801
15.85
14.4643
13.1258
11.8365
10.5976
9.40935
8.27115
7.17903
6.13171
5.11159
4.13786
3.11752
2.25685
0.967041
0.813632
40.9603
21.5363
31.3807
28.3136
30.5946
30.7995
31.8402
32.5844
33.4507
34.2683
35.0832
35.8608
36.5927
37.2599
37.8456
38.3316
38.7001
38.9342
39.0186
38.9409
38.6918
38.2664
37.6642
36.8898
35.9524
34.8655
33.6462
32.3142
30.8907
29.3972
27.8549
26.2835
24.7006
23.1213
21.5581
20.021
18.5175
17.0534
15.6327
14.2587
12.9339
11.6596
10.4371
9.26619
8.14612
7.07253
6.04408
5.04194
4.08684
3.08038
2.23959
0.950799
0.828023
41.1268
21.5278
31.5551
28.3666
30.7346
30.915
31.993
32.7515
33.6486
34.4967
35.3496
36.1701
36.9513
37.674
38.3218
38.876
39.3184
39.6313
39.7983
39.8051
39.6409
39.2984
38.7751
38.0734
37.2004
36.1682
34.9925
33.6926
32.2895
30.8053
29.2619
27.6804
26.0798
24.4768
22.8854
21.3169
19.78
18.2812
16.8252
15.4152
14.054
12.7434
11.4848
10.2789
9.12545
8.02356
6.96842
5.95873
4.97432
4.03764
3.04452
2.22356
0.934759
0.843246
41.29
21.5185
31.7222
28.4147
30.8669
31.0219
32.1358
32.907
33.8333
34.7101
35.5989
36.4601
37.2885
38.0647
38.7724
39.393
39.9081
40.299
40.5484
40.6406
40.5628
40.3059
39.865
39.2403
38.4368
37.4647
36.3385
35.0763
33.699
32.2288
30.6884
29.1
27.484
25.8586
24.2396
22.6398
21.069
19.5349
18.0428
16.5964
15.1983
13.8506
12.5549
11.3122
10.1232
8.98732
7.90358
6.8668
5.8757
4.90873
3.99027
3.00995
2.20875
0.918914
0.859269
41.4502
21.5087
31.8822
28.4584
30.9917
31.1208
32.2692
33.0515
34.0054
34.9089
35.8319
36.7317
37.6051
38.4324
39.1981
39.8833
40.4693
40.9372
41.2685
41.4464
41.4564
41.2872
40.9321
40.3885
39.6595
38.7531
37.6821
36.4635
35.1176
33.6666
32.1338
30.5421
28.9134
27.2676
25.6219
23.9908
22.3859
20.8158
19.2868
17.8031
16.3678
14.9826
13.6491
12.3688
11.1423
9.97021
8.85192
7.78628
6.7677
5.79501
4.84517
3.94469
2.97661
2.19512
0.903258
0.876039
41.6076
21.4986
32.0351
28.4982
31.1092
31.2121
32.3936
33.1855
34.1657
35.094
36.0492
36.9856
37.9018
38.7781
39.5994
40.3472
41.0025
41.546
41.9585
42.222
42.3206
42.2411
41.9744
41.5159
40.866
40.0307
39.0208
37.852
36.5436
35.1174
33.597
32.0063
30.3682
28.7042
27.0332
25.3714
23.7321
22.1254
20.5585
19.0367
17.5632
16.1401
14.7686
13.4499
12.1852
10.9751
9.8201
8.71937
7.67174
6.67117
5.71667
4.78363
3.9009
2.94449
2.18261
0.887794
0.8935
41.7625
21.4886
32.181
28.5344
31.2198
31.2963
32.5096
33.3097
34.3146
35.2661
36.2516
37.2225
38.1793
39.1024
39.9772
40.7853
41.5079
42.1254
42.618
42.9669
43.1545
43.1661
42.9903
42.6203
42.0541
41.2952
40.3524
39.2395
37.9747
36.5794
35.077
33.492
31.8484
30.169
28.4745
26.783
25.1092
23.4652
21.8596
20.2985
18.7858
17.3238
15.9139
14.5568
13.2534
12.0046
10.811
9.67302
8.58978
7.55999
6.57722
5.64068
4.72407
3.85884
2.91355
2.17119
0.872526
0.911593
41.915
21.4787
32.32
28.5674
31.3237
31.3739
32.6174
33.4246
34.4528
35.4258
36.4399
37.4432
38.4386
39.4062
40.3321
41.1982
41.986
42.6758
43.2472
43.6807
43.9575
44.0611
43.9784
43.6999
43.2215
42.544
41.6741
40.6235
39.4088
38.0507
36.5723
34.9982
33.3534
31.6621
29.9466
28.2265
26.5188
24.837
23.1916
21.5899
20.0367
18.5348
17.0856
15.6898
14.3476
13.0599
11.8272
10.6501
9.52909
8.4632
7.45108
6.48586
5.56703
4.66649
3.81849
2.88376
2.1608
0.85746
0.930244
42.0653
21.4692
32.4523
28.5976
31.421
31.4453
32.7176
33.5307
34.5809
35.5737
36.6147
37.6485
38.6803
39.6901
40.6648
41.5867
42.4375
43.1975
43.8461
44.3632
44.7288
44.9251
44.937
44.7529
44.366
43.7748
42.9833
42.0012
40.8434
39.529
38.0808
36.5235
34.8826
33.1835
31.4498
29.7032
27.9623
26.2427
24.5565
22.9129
21.3176
19.7743
18.2847
16.8493
15.4683
14.1416
12.8696
11.653
10.4925
9.38839
8.3397
7.34505
6.3971
5.49569
4.61083
3.7798
2.85509
2.15139
0.84261
0.949377
42.2136
21.4602
32.5777
28.6252
31.5121
31.5109
32.8106
33.6286
34.6994
35.7106
36.7768
37.8391
38.9053
39.955
40.9763
41.9515
42.8629
43.6909
44.415
45.0142
45.4681
45.7573
45.8649
45.7774
45.4855
44.9849
44.2774
43.37
42.2756
41.0119
39.6007
38.0664
36.435
34.7325
32.9844
31.2136
29.441
27.6839
25.9565
24.2694
22.6304
21.0439
19.5122
18.0362
16.6155
15.2499
13.9389
12.6828
11.4825
10.3383
9.25101
8.21932
7.2419
6.31092
5.42664
4.55707
3.74273
2.8275
2.14289
0.827991
0.968913
42.3602
21.4519
32.6965
28.6507
31.5972
31.5711
32.8967
33.7187
34.8089
35.837
36.9267
38.0158
39.1143
40.2018
41.2672
42.2933
43.263
44.1567
44.9541
45.634
46.175
46.5568
46.761
46.7719
46.5778
46.1721
45.5536
44.7269
43.7027
42.4967
41.1294
39.6248
38.0089
36.3086
34.5501
32.7584
30.9559
29.1622
27.3933
25.6619
23.9772
22.3454
20.7697
19.2513
17.7899
16.3847
15.0349
13.7398
12.4998
11.3155
10.1877
9.117
8.10208
7.14164
6.22731
5.35985
4.50517
3.70723
2.80097
2.13525
0.81362
0.988765
42.5049
21.4443
32.8087
28.6743
31.6764
31.6264
32.9763
33.8015
34.9099
35.9535
37.0653
38.1793
39.3081
40.4312
41.5383
42.613
43.6384
44.5955
45.464
46.2226
46.8494
47.3233
47.6242
47.7348
47.6412
47.334
46.8093
46.0692
45.1216
43.9804
42.6644
41.1966
39.6028
37.9103
36.1465
34.3376
32.508
30.679
28.8689
27.0924
25.3607
23.6814
22.0592
20.4962
18.9923
17.5465
16.1574
14.8236
13.5446
12.3206
11.1524
10.0408
8.9864
7.988
7.04424
6.14624
5.29527
4.45509
3.67324
2.77546
2.12841
0.799516
1.00885
42.648
21.4377
32.9144
28.6962
31.75
31.677
33.0498
33.8775
35.0029
36.0608
37.193
38.3303
39.4876
40.6441
41.7907
42.9113
43.9899
45.0079
45.9451
46.7803
47.4914
48.0562
48.4538
48.665
48.6737
48.4683
48.0419
47.3938
46.5293
45.46
44.2027
42.7791
41.2146
39.5364
37.7727
35.9512
34.0976
32.2355
30.3851
28.5633
26.7832
25.0544
23.3832
21.7728
20.2241
18.7359
17.3065
15.9338
14.6164
13.3535
12.1454
10.9931
9.89747
8.85924
7.87707
6.9497
6.06768
5.23288
4.40679
3.64073
2.75093
2.12229
0.785697
1.02909
42.7899
21.4321
33.0136
28.7167
31.8181
31.7232
33.1174
33.9471
35.0884
36.1592
37.3106
38.4694
39.6533
40.8412
42.025
43.1892
44.3185
45.3947
46.3981
47.3076
48.101
48.7555
49.2492
49.5613
49.674
49.5729
49.2488
48.6979
47.9228
46.9323
45.7412
44.3696
42.8417
41.1848
39.4275
37.5984
35.7249
33.8325
31.9433
30.0765
28.2472
26.4672
24.7446
23.0839
21.4873
19.9542
18.4827
17.0702
15.7144
14.4135
13.1666
11.9744
10.8378
9.75786
8.73551
7.7693
6.858
5.99159
5.17262
4.36021
3.60963
2.72737
2.11685
0.772187
1.04938
42.9309
21.4275
33.1064
28.736
31.881
31.7655
33.1797
34.0106
35.1668
36.2495
37.4186
38.5974
39.8061
41.0233
42.2421
43.4475
44.6249
45.7566
46.8237
47.8051
48.6786
49.4211
50.0099
50.4229
50.6404
50.646
50.4276
49.9787
49.2988
48.394
47.2766
45.9648
44.4815
42.8534
41.1091
39.2783
37.3897
35.4704
33.5447
31.6338
29.7552
27.9227
26.1462
24.4325
22.7847
21.2035
19.6873
18.2333
16.8383
15.4994
14.215
12.9841
11.8075
10.6864
9.62197
8.61523
7.66465
6.76909
5.91794
5.11446
4.31532
3.57988
2.70473
2.11202
0.759008
1.06966
43.0705
21.4237
33.1929
28.7544
31.9389
31.8041
33.2367
34.0686
35.2386
36.332
37.5176
38.7149
39.9467
41.1913
42.4429
43.6871
44.91
46.0946
47.2226
48.2732
49.2245
50.0531
50.7356
51.2489
51.5718
51.6857
51.5761
51.2334
50.6543
49.8419
48.8056
47.5615
46.1309
44.5394
42.8156
40.9896
39.0913
37.1493
35.1901
33.2368
31.3093
29.4234
27.5913
25.8217
24.1194
22.4865
20.9222
19.4239
17.988
16.6108
15.2891
14.0211
12.8061
11.6449
10.539
9.48982
8.49838
7.56311
6.68296
5.84669
5.05833
4.27207
3.55144
2.68299
2.10774
0.746179
1.08983
43.2067
21.4213
33.2734
28.772
31.9919
31.8392
33.2889
34.1214
35.3041
36.4073
37.6081
38.8225
40.0757
41.3458
42.6282
43.9088
45.1747
46.4096
47.5957
48.7128
49.7392
50.6517
51.4262
52.039
52.4672
52.6906
52.6921
52.4595
51.9863
51.2724
50.3246
49.1562
47.7866
46.24
44.5446
42.7305
40.8286
38.869
36.8799
34.8867
32.9112
30.9719
29.0829
27.2549
25.495
23.8065
22.1902
20.6441
19.1646
17.7474
16.3881
15.0836
13.8319
12.6326
11.4866
10.3957
9.36138
8.38493
7.46465
6.59954
5.77777
5.00418
4.23041
3.52426
2.66213
2.10395
0.733718
1.10982
43.3409
21.4215
33.3476
28.789
32.0402
31.8712
33.3366
34.1693
35.3638
36.4759
37.6907
38.9208
40.1939
41.4877
42.7988
44.1135
45.4199
46.7024
47.9438
49.1246
50.2235
51.2173
52.0818
52.7927
53.3258
53.6592
53.7736
53.6543
53.2916
52.6824
51.8301
50.7453
49.4451
47.952
46.2933
44.4989
42.6002
40.6286
38.6141
36.584
34.5626
32.5703
30.6237
28.7356
26.915
25.1674
23.4949
21.8967
20.3699
18.9099
17.5117
16.1705
14.8831
13.6476
12.4636
11.3326
10.2564
9.23665
8.27488
7.36922
6.51882
5.71116
4.95197
4.19029
3.49827
2.64212
2.1006
0.721643
1.12956
43.4816
21.4235
33.4149
28.8055
32.0841
31.9003
33.3799
34.2126
35.418
36.5381
37.7659
39.0104
40.3019
41.6176
42.9554
44.3021
45.6465
46.9739
48.2678
49.5095
50.678
51.7504
52.7027
53.5098
54.147
54.5905
54.8192
54.8157
54.5676
54.0684
53.3184
52.325
51.1027
49.672
48.0585
46.292
44.4041
42.4271
40.3924
38.3294
36.2645
34.2205
32.2163
30.2668
28.3832
26.573
24.8401
23.1853
21.6067
20.1001
18.6601
17.2811
15.9582
14.6877
13.4681
12.2993
11.1829
10.121
9.11561
8.16816
7.27678
6.44072
5.64679
4.90165
4.15168
3.47342
2.62292
2.09762
0.709969
1.14898
43.6316
21.4219
33.4761
28.8222
32.1237
31.9266
33.4192
34.2517
35.4671
36.5944
37.8341
39.0918
40.4002
41.7363
43.0989
44.4754
45.8555
47.2251
48.5688
49.8683
51.1034
52.2517
53.2892
54.1905
54.9302
55.4834
55.8272
55.9416
55.8116
55.4274
54.786
53.8915
52.7555
51.396
49.837
48.1072
46.2381
44.2628
42.2139
40.1227
38.0176
35.9239
33.8627
31.8513
29.903
28.0273
26.2302
24.5142
22.8788
21.3208
19.8351
18.4156
17.056
15.7511
14.4974
13.2935
12.1396
11.0375
9.9897
8.99821
8.06476
7.1873
6.3652
5.58463
4.85316
4.11452
3.44967
2.60451
2.09498
0.69871
1.16802
43.7622
21.4148
33.534
28.8388
32.1589
31.9505
33.4547
34.2869
35.5115
36.6452
37.8958
39.1655
40.4896
41.8444
43.23
44.6342
46.0476
47.457
48.8476
50.202
51.5008
52.7219
53.8417
54.8349
55.6754
56.3374
56.7963
57.0302
57.021
56.7562
56.2293
55.441
54.3994
53.1201
51.6249
49.941
48.0995
46.1337
44.0774
41.9634
39.8223
37.6816
35.5648
33.4916
31.4775
29.5341
27.6694
25.8878
24.1906
22.5759
21.0396
19.5755
18.1767
16.8365
15.5495
14.3124
13.1239
11.9845
10.8964
9.8623
8.88443
7.96462
7.1007
6.29221
5.52461
4.80644
4.07877
3.42696
2.58686
2.09262
0.687876
1.18662
43.8375
21.4217
33.5898
28.854
32.1902
31.9722
33.4866
34.3184
35.5514
36.6909
37.9514
39.2321
40.5705
41.9425
43.3494
44.7793
46.2238
47.6704
49.1052
50.5116
51.8709
53.1618
54.361
55.4434
56.3825
57.1519
57.7256
58.0797
58.1937
58.052
57.6448
56.9694
56.0305
54.8403
53.4183
51.7898
49.9852
48.0374
45.9812
43.8508
41.6786
39.4943
37.3241
35.1898
33.1095
31.0968
29.1617
27.3107
25.5469
23.8701
22.2774
20.7635
19.3214
17.9435
16.6227
15.3535
14.1326
12.9591
11.834
10.7596
9.73882
8.7742
7.86768
7.01695
6.22171
5.46669
4.76145
4.04438
3.40523
2.56995
2.0905
0.677474
1.20474
43.9329
21.4668
33.6328
28.8673
32.2184
31.9918
33.5152
34.3465
35.5872
36.7318
38.0014
39.292
40.6435
42.0314
43.4578
44.9116
46.385
47.8663
49.3425
50.798
52.2148
53.5723
54.8478
56.0165
57.0518
57.9267
58.6142
59.0887
59.3276
59.3122
59.0295
58.4731
57.6444
56.5522
55.2129
53.6497
51.8916
49.9711
47.9232
45.7833
43.5858
41.3623
39.1414
36.9477
34.8013
32.7183
30.7109
28.7873
26.9526
25.2084
23.5535
21.9838
20.493
19.0733
17.7163
16.4147
15.163
13.9581
12.7993
11.6881
10.6269
9.61919
8.66747
7.77389
6.93601
6.15363
5.4108
4.71812
4.0113
3.38445
2.55374
2.08858
0.667509
1.22233
44.123
21.4988
33.6497
28.8846
32.2437
32.0091
33.5406
34.3716
35.6191
36.7682
38.0461
39.3457
40.7091
42.1115
43.5559
45.0317
46.5319
48.0456
49.5607
51.0623
52.5335
53.9543
55.3029
56.5547
57.6834
58.6616
59.4615
60.0562
60.4209
60.5342
60.3801
59.9486
59.2372
58.2514
57.0043
55.5165
53.8149
51.9314
49.9009
47.7595
45.543
43.2855
41.0177
38.7666
36.5551
34.4015
32.3203
30.3216
28.4123
26.5961
24.8732
23.2415
21.6956
20.2284
18.8312
17.4951
16.2126
14.978
13.7887
12.6444
11.5466
10.4984
9.50336
8.56419
7.68321
6.85779
6.08791
5.35691
4.67641
3.9795
3.36456
2.53822
2.08681
0.657984
1.23935
44.1846
21.4252
33.669
28.9131
32.264
32.0241
33.5632
34.3937
35.6474
36.8006
38.0858
39.3936
40.7679
42.1834
43.6444
45.1404
46.6654
48.2092
49.7606
51.3055
52.8279
54.3089
55.7272
57.0589
58.278
59.357
60.2674
60.9813
61.472
61.7158
61.6937
61.3921
60.8048
59.9335
58.7879
57.3855
55.751
53.9147
51.9111
49.7769
47.549
45.2633
42.953
40.6476
38.3725
36.1488
33.9928
31.9171
29.9304
28.038
26.2421
24.5421
22.9346
21.4132
19.97
18.5954
17.2801
16.0164
14.7987
13.6246
12.4943
11.4096
10.374
9.39128
8.46432
7.59557
6.78225
6.0245
5.30494
4.63626
3.94892
3.34553
2.52335
2.08517
0.648898
1.25577
44.2485
21.4007
33.7302
28.9373
32.2762
32.0387
33.5832
34.413
35.6725
36.8291
38.121
39.4361
40.8203
42.2478
43.7238
45.2384
46.7863
48.358
49.9431
51.5286
53.0993
54.6371
56.1217
57.5299
58.8361
60.0129
61.0317
61.8633
62.4797
62.8552
62.9676
62.8003
62.3433
61.5942
60.5591
59.2521
57.6952
55.9168
53.9504
51.8328
49.6017
47.2948
44.9473
42.5914
40.2551
37.962
35.7311
33.5771
31.5106
29.5386
27.6653
25.8916
24.2158
22.6332
21.137
19.7179
18.366
17.0714
15.826
14.6249
13.4656
12.3489
11.2771
10.2537
9.28288
8.36777
7.51091
6.70932
5.96334
5.25486
4.59762
3.91953
3.32729
2.50911
2.08362
0.640248
1.27157
44.3125
21.3753
33.7493
28.9236
32.2872
32.0549
33.6006
34.4295
35.6943
36.8542
38.1521
39.4736
40.8666
42.305
43.7948
45.3264
46.8954
48.4928
50.1093
51.7326
53.3485
54.94
56.4875
57.9687
59.3586
60.6301
61.7544
62.7018
63.4431
63.9505
64.1995
64.1702
63.8488
63.2292
62.3132
61.1115
59.6429
57.9334
56.015
53.924
51.6989
49.3785
47
44.5982
42.2038
39.843
37.5376
35.3044
33.1563
31.1022
29.1477
27.2955
25.5454
23.8947
22.3379
20.8672
19.4724
18.143
16.8688
15.6416
14.4565
13.3118
12.2083
11.1488
10.1373
9.1781
8.27448
7.42915
6.63895
5.90436
5.2066
4.56045
3.89127
3.30982
2.49548
2.08214
0.632028
1.28672
44.3769
21.3503
33.7688
28.9185
32.3047
32.0681
33.615
34.4443
35.7131
36.8757
38.1792
39.5065
40.9075
42.3556
43.858
45.4051
46.9933
48.6145
50.26
51.9185
53.5768
55.2187
56.8257
58.3763
59.8463
61.2091
62.4359
63.4967
64.3614
65.0006
65.3873
65.4987
65.3177
64.834
64.0455
62.9587
61.5889
59.9595
58.1005
56.047
53.8377
51.5124
49.1102
46.668
44.2193
41.7933
39.4142
37.1017
34.8707
32.7323
30.6935
28.7587
26.9293
25.2041
23.5794
22.049
20.604
19.2336
17.9266
16.6725
15.463
14.2936
13.1629
12.0722
11.0248
10.0248
9.07686
8.18439
7.35024
6.57108
5.84753
5.16012
4.52468
3.86412
3.29307
2.48242
2.08069
0.62423
1.30121
44.4417
21.3257
33.7877
28.9132
32.3096
32.0669
33.6271
34.4587
35.7296
36.894
38.2025
39.5352
40.9433
42.4001
43.9137
45.475
47.0809
48.7239
50.3962
52.0874
53.7851
55.4742
57.1373
58.7538
60.3002
61.7506
63.0766
64.2481
65.2342
66.0042
66.5291
66.7835
66.7468
66.4048
65.7513
64.7887
63.5283
61.9902
60.202
58.1975
56.0147
53.6941
51.2763
48.8003
46.3021
43.8139
41.3628
38.9712
36.6567
34.4321
32.3065
30.2858
28.3726
26.5675
24.8682
23.2704
21.7667
20.3476
19.0016
17.7168
16.4823
15.2902
14.1361
13.0189
11.9408
10.905
9.91611
8.97908
8.09742
7.27412
6.50563
5.79276
5.11535
4.49027
3.83801
3.27701
2.46991
2.07927
0.616844
1.31503
44.5063
21.3015
33.806
28.9081
32.3145
32.0659
33.6346
34.4701
35.7446
36.9101
38.2221
39.5595
40.9743
42.439
43.9627
45.5367
47.1587
48.8217
50.5186
52.24
53.9744
55.7078
57.4236
59.1023
60.7214
62.2557
63.6773
64.9563
66.0613
66.9605
67.6235
68.0222
68.1328
67.9376
67.4261
66.5964
65.4557
64.0202
62.3146
60.3709
58.2261
55.9206
53.4962
50.9938
48.452
45.9056
43.3849
40.9153
38.5167
36.2047
33.9903
31.8807
29.8802
27.9905
26.2108
24.5384
22.9679
21.4913
20.0982
18.7764
17.5134
16.2983
15.1231
13.9838
12.8799
11.8137
10.7892
9.81117
8.8847
8.01351
7.20071
6.44256
5.74001
5.07225
4.45716
3.81293
3.26159
2.45793
2.07783
0.609859
1.32818
44.5698
21.2775
33.8242
28.903
32.3191
32.0647
33.6363
34.4715
35.7566
36.9252
38.2393
39.5799
41.0006
42.4727
44.0055
45.5909
47.2274
48.9087
50.6283
52.3775
54.146
55.9205
57.6856
59.423
61.111
62.7253
64.2388
65.6217
66.8426
67.8692
68.6692
69.2127
69.473
69.4288
69.0655
68.3768
67.3655
66.0439
64.433
62.5623
60.4674
58.1883
55.7673
53.247
50.6684
48.0689
45.4818
42.9356
40.4534
38.0531
35.7479
33.547
31.456
29.4779
27.613
25.8599
24.215
22.6722
21.2229
19.8557
18.558
17.3166
16.1204
14.9616
13.8366
12.7455
11.6911
10.6775
9.70987
8.79363
7.93257
7.12994
6.38179
5.68922
5.03077
4.42533
3.78882
3.24678
2.44645
2.07638
0.603261
1.34065
44.6349
21.253
33.8422
28.8986
32.3238
32.0636
33.6379
34.4712
35.7602
36.9368
38.2552
39.5977
41.0225
42.501
44.0424
45.6381
47.2877
48.9855
50.7259
52.5008
54.3006
56.1134
57.9247
59.7171
61.4701
63.1606
64.762
66.245
67.5786
68.7297
69.6654
70.3535
70.765
70.8751
70.6654
70.1251
69.2525
68.0555
66.5515
64.7663
62.7338
60.4931
58.0866
55.558
52.9502
50.3036
47.6544
45.034
42.469
39.9799
37.5825
35.288
33.1038
31.0338
29.0796
27.2409
25.5152
23.8984
22.3837
20.9616
19.6204
18.3464
17.1262
15.9485
14.8057
13.6946
12.6159
11.5727
10.5697
9.61215
8.7058
7.85455
7.06176
6.32326
5.64033
4.99085
4.39471
3.76565
3.23255
2.43544
2.0749
0.597035
1.35245
44.7005
21.2296
33.8596
28.8945
32.3283
32.0627
33.6395
34.4709
35.7604
36.9384
38.2672
39.6142
41.0415
42.5245
44.0734
45.6788
47.3403
49.053
50.8121
52.6106
54.4394
56.2876
58.1418
59.9858
61.8002
63.5627
65.2479
66.8272
68.2696
69.5423
70.6114
71.4433
72.0066
72.2735
72.2219
71.8366
71.1114
70.0495
68.6639
66.9772
65.0201
62.8303
60.4501
57.9237
55.2958
52.6091
49.9029
47.2119
44.5655
41.9877
39.4971
37.1071
34.8269
32.662
30.615
28.6864
26.8748
25.1772
23.5889
22.1024
20.7077
19.3921
18.1415
16.9421
15.7824
14.6551
13.5575
12.4907
11.4585
10.4657
9.51791
8.62112
7.77936
6.99608
6.26692
5.59328
4.95244
4.36526
3.74338
3.21887
2.42489
2.07336
0.591166
1.36358
44.766
21.2069
33.8768
28.8903
32.3327
32.0616
33.6411
34.4705
35.7608
36.9379
38.2691
39.6264
41.0591
42.5448
44.099
45.7131
47.3856
49.1118
50.888
52.7078
54.5633
56.4442
58.3383
60.2304
62.1023
63.9329
65.6977
67.3691
68.9166
70.3073
71.507
72.481
73.196
73.6214
73.7314
73.507
72.937
72.0201
70.7645
69.1888
67.3205
65.195
62.8536
60.341
57.703
54.9845
52.2275
49.47
46.7449
44.0792
41.4947
39.0074
36.6288
34.366
32.2229
30.2007
28.2988
26.5152
24.8462
23.2866
21.8284
20.4609
19.1708
17.9434
16.7643
15.6222
14.5099
13.4253
12.37
11.3483
10.3654
9.42706
8.53952
7.70693
6.93285
6.2127
5.54801
4.9155
4.33693
3.72198
3.20571
2.41477
2.07177
0.585638
1.37405
44.832
21.1843
33.8934
28.8865
32.3368
32.0607
33.6424
34.4702
35.761
36.9375
38.2688
39.6274
41.0719
42.5636
44.1211
45.7412
47.4237
49.1625
50.9542
52.7933
54.6731
56.5842
58.5152
60.452
62.3778
64.2725
66.1127
67.8718
69.5201
71.025
72.3521
73.466
74.3317
74.9163
75.1908
75.1319
74.7243
73.9615
72.847
71.3948
69.6288
67.5815
65.2924
62.8059
60.1689
57.4279
54.6275
51.809
49.0085
46.2566