/*--------------------------------*- C++ -*----------------------------------*\
  =========                 |
  \\      /  F ield         | OpenFOAM: The Open Source CFD Toolbox
   \\    /   O peration     | Website:  https://openfoam.org
    \\  /    A nd           | Version:  7
     \\/     M anipulation  |
\*---------------------------------------------------------------------------*/
FoamFile
{
    version     2.0;
    format      ascii;
    class       surfaceScalarField;
    location    "1400";
    object      phi;
}
// * * * * * * * * * * * * * * * * * * * * * * * * * * * * * * * * * * * * * //

dimensions      [0 3 -1 0 0 0 0];

internalField   nonuniform List<scalar> 
45906
(
-0.301697
0.0678832
-0.301466
0.0657139
-0.290109
0.0677237
-0.301339
0.0636063
-0.289959
0.0655636
-0.278766
0.0675848
-0.301258
0.0615484
-0.289822
0.0634695
-0.278639
0.0654371
-0.267882
0.0674329
-0.301201
0.0595536
-0.289712
0.0614382
-0.278521
0.0633514
-0.267748
0.0653026
-0.257371
0.0672901
-0.301159
0.0576239
-0.289623
0.0594644
-0.278416
0.0613333
-0.267625
0.0632284
-0.257234
0.0651647
-0.247099
0.0671381
-0.301126
0.055785
-0.289549
0.05755
-0.278323
0.0593715
-0.267512
0.0612203
-0.257099
0.0630936
-0.246949
0.0650139
-0.237185
0.0669728
-0.301098
0.0540096
-0.289486
0.0557221
-0.278241
0.0574672
-0.267406
0.0592659
-0.256969
0.0610907
-0.2468
0.0629447
-0.237022
0.064851
-0.227613
0.0668043
-0.301075
0.0522829
-0.289431
0.0539545
-0.278166
0.0556471
-0.267307
0.0573676
-0.256844
0.0591408
-0.246654
0.0609452
-0.236864
0.0627866
-0.227451
0.0646886
-0.218435
0.0666445
-0.301056
0.0506297
-0.289382
0.0522335
-0.278096
0.0538853
-0.267211
0.0555521
-0.256723
0.0572464
-0.246513
0.0589993
-0.236711
0.0607925
-0.227296
0.0626323
-0.218286
0.0645397
-0.209601
0.066502
-0.301038
0.0490228
-0.289336
0.0505845
-0.278031
0.0521686
-0.26712
0.0537936
-0.256605
0.0554341
-0.246376
0.0571094
-0.236565
0.0588529
-0.22715
0.0606463
-0.218147
0.0624932
-0.209472
0.0644111
-0.201205
0.0663789
-0.301023
0.0474741
-0.289294
0.0489806
-0.277969
0.0505224
-0.26703
0.052079
-0.25649
0.0536784
-0.246243
0.0553016
-0.236425
0.0569698
-0.227013
0.0587155
-0.218017
0.0605166
-0.209352
0.0623733
-0.201095
0.0643011
-0.193154
0.0662709
-0.301008
0.0459827
-0.289254
0.047434
-0.277909
0.0489202
-0.266942
0.0504343
-0.256377
0.0519664
-0.246115
0.0535506
-0.236293
0.0551692
-0.226884
0.0568414
-0.217897
0.0585954
-0.209241
0.0604054
-0.20099
0.0622691
-0.193056
0.0642031
-0.185439
0.0661715
-0.300995
0.0445349
-0.289215
0.045944
-0.27785
0.0473747
-0.266855
0.0488331
-0.256267
0.0503241
-0.245992
0.0518435
-0.236168
0.0534256
-0.226765
0.0550496
-0.217786
0.0567302
-0.209138
0.058492
-0.200892
0.0603075
-0.192961
0.0621739
-0.185347
0.0641104
-0.178028
0.0660758
-0.300983
0.0431507
-0.289178
0.044497
-0.277791
0.0458852
-0.266768
0.0472882
-0.256159
0.0487254
-0.245875
0.0502064
-0.23605
0.051726
-0.226654
0.0533145
-0.217683
0.0549467
-0.209041
0.0566338
-0.2008
0.0583994
-0.192869
0.0602163
-0.185255
0.0620822
-0.177936
0.0640187
-0.170903
0.0659811
-0.300972
0.0417945
-0.28914
0.0431133
-0.277732
0.0444383
-0.266682
0.0457991
-0.256054
0.0471832
-0.245762
0.048613
-0.23594
0.0500962
-0.226551
0.051623
-0.217587
0.0532189
-0.208951
0.0548562
-0.200711
0.0565454
-0.192781
0.058311
-0.185166
0.0601268
-0.177845
0.061991
-0.170811
0.0639268
-0.164045
0.0658872
-0.300961
0.0404918
-0.289103
0.0417572
-0.277673
0.0430543
-0.266597
0.0443527
-0.255952
0.045697
-0.245655
0.0470762
-0.235837
0.0485101
-0.226455
0.0500006
-0.217498
0.051534
-0.208865
0.0531334
-0.200627
0.0547713
-0.192695
0.0564594
-0.185078
0.0582231
-0.177755
0.0600374
-0.17072
0.0619002
-0.163954
0.0638357
-0.157463
0.0657948
-0.30095
0.0392279
-0.289065
0.0404543
-0.277614
0.0416978
-0.266512
0.0429694
-0.255853
0.0442537
-0.245554
0.0455956
-0.235741
0.0469802
-0.226366
0.0484213
-0.217415
0.0499172
-0.208784
0.0514526
-0.200544
0.0530513
-0.192611
0.0546872
-0.184991
0.0563731
-0.177667
0.058135
-0.170631
0.0599484
-0.163864
0.0618108
-0.157374
0.0637465
-0.151132
0.065705
-0.30094
0.0380075
-0.289027
0.0391899
-0.277554
0.0403945
-0.266428
0.0416137
-0.255758
0.0428737
-0.245458
0.044158
-0.235651
0.0455061
-0.226284
0.0468975
-0.217336
0.0483426
-0.208706
0.0498391
-0.200465
0.0513727
-0.192528
0.0529688
-0.184906
0.0546022
-0.177581
0.0562865
-0.170544
0.0580476
-0.163777
0.059861
-0.157287
0.0617238
-0.151046
0.0636603
-0.145058
0.0656184
-0.300929
0.0368251
-0.288989
0.0379689
-0.277494
0.0391298
-0.266345
0.0403115
-0.255666
0.0415218
-0.245368
0.0427836
-0.235568
0.0440746
-0.226206
0.0454288
-0.217262
0.0468228
-0.20863
0.0482672
-0.200387
0.049761
-0.192447
0.0512915
-0.184823
0.0528851
-0.177496
0.054517
-0.170458
0.0562008
-0.163691
0.0579621
-0.157202
0.0597762
-0.150962
0.0616399
-0.144975
0.0635776
-0.139228
0.0655353
-0.300919
0.0356805
-0.288949
0.0367859
-0.277433
0.0379085
-0.266263
0.0390481
-0.255577
0.0402234
-0.245284
0.0414371
-0.23549
0.0427058
-0.226134
0.044002
-0.21719
0.0453575
-0.208557
0.0467496
-0.20031
0.0481906
-0.192367
0.0496811
-0.18474
0.0512091
-0.177412
0.0528013
-0.170374
0.0544329
-0.163608
0.0561172
-0.15712
0.0578793
-0.15088
0.0596946
-0.144895
0.0615594
-0.139149
0.0634984
-0.133622
0.0654557
-0.300908
0.0345747
-0.288909
0.0356405
-0.277373
0.0367253
-0.266183
0.0378284
-0.255493
0.0389641
-0.245204
0.0401441
-0.235418
0.0413646
-0.226065
0.0426373
-0.217122
0.0439334
-0.208486
0.045286
-0.200235
0.0466742
-0.192288
0.0481118
-0.184659
0.0495999
-0.177329
0.0511268
-0.170291
0.0527189
-0.163526
0.0543511
-0.157039
0.0560363
-0.1508
0.0577997
-0.144816
0.0596162
-0.139071
0.0614823
-0.133546
0.0634227
-0.128247
0.0653796
-0.300898
0.0335022
-0.288869
0.0345339
-0.277312
0.0355799
-0.266105
0.0366471
-0.255414
0.0377487
-0.24513
0.03889
-0.23535
0.0400763
-0.226
0.0412996
-0.217055
0.042571
-0.208416
0.0438634
-0.20016
0.0452117
-0.192211
0.0465965
-0.184579
0.0480319
-0.177249
0.049519
-0.17021
0.0510459
-0.163446
0.0526387
-0.15696
0.0542719
-0.150723
0.0559585
-0.14474
0.0577233
-0.138996
0.0595412
-0.133473
0.0614084
-0.128174
0.0633503
-0.123091
0.0653067
-0.300887
0.0324643
-0.288827
0.0334606
-0.277252
0.0344735
-0.266029
0.035504
-0.255338
0.0365717
-0.245061
0.0376795
-0.235286
0.0388264
-0.225938
0.0400143
-0.216991
0.0412352
-0.208347
0.0425022
-0.200087
0.0437902
-0.192134
0.0451351
-0.184501
0.0465179
-0.177169
0.0479524
-0.170131
0.0494396
-0.163367
0.0509672
-0.156882
0.052561
-0.150646
0.0541957
-0.144665
0.0558837
-0.138923
0.05765
-0.133401
0.0594693
-0.128103
0.0613378
-0.123022
0.063281
-0.118131
0.0652371
-0.300875
0.031458
-0.288785
0.0324219
-0.277192
0.0334006
-0.265955
0.0344
-0.255267
0.0354328
-0.244996
0.0365071
-0.235227
0.0376197
-0.225879
0.038767
-0.216928
0.0399515
-0.208279
0.0411675
-0.200015
0.04243
-0.192059
0.0437148
-0.184423
0.0450578
-0.177091
0.0464398
-0.170053
0.0478744
-0.16329
0.0493622
-0.156806
0.050891
-0.150571
0.0524861
-0.144592
0.0541223
-0.138851
0.0558119
-0.13333
0.0575797
-0.128035
0.0594005
-0.122954
0.0612702
-0.118064
0.0632149
-0.113376
0.0651705
-0.300863
0.030486
-0.288741
0.0314149
-0.277133
0.0323625
-0.265885
0.0333298
-0.2552
0.0343332
-0.244936
0.0353726
-0.23517
0.0364508
-0.225822
0.0375626
-0.216867
0.0387056
-0.208213
0.039885
-0.199944
0.0410965
-0.191984
0.0423558
-0.184347
0.0436387
-0.177014
0.044981
-0.169976
0.0463631
-0.163214
0.0477983
-0.156731
0.0492872
-0.150498
0.0508172
-0.144519
0.0524139
-0.138781
0.0540517
-0.133262
0.055743
-0.127967
0.0575124
-0.122888
0.0593347
-0.118
0.0612057
-0.113313
0.0631518
-0.108811
0.065107
-0.30085
0.0295415
-0.288698
0.0304422
-0.277074
0.0313564
-0.265817
0.0322946
-0.255138
0.0332673
-0.24488
0.034277
-0.235117
0.0353193
-0.225766
0.0363955
-0.216807
0.0375024
-0.208147
0.0386401
-0.199874
0.039815
-0.191911
0.0410235
-0.184272
0.042281
-0.176939
0.0435632
-0.169901
0.0449055
-0.163139
0.0462881
-0.156657
0.0477243
-0.150425
0.0492145
-0.144448
0.0507461
-0.138711
0.0523444
-0.133194
0.053984
-0.127901
0.0556771
-0.122824
0.0574481
-0.117937
0.0592719
-0.113251
0.0611442
-0.108751
0.0630916
-0.104428
0.0650464
-0.300837
0.0286296
-0.288653
0.0294972
-0.277017
0.0303848
-0.265752
0.0312915
-0.255079
0.0322362
-0.244828
0.0332148
-0.235066
0.0342264
-0.225713
0.0352658
-0.216748
0.0363366
-0.208083
0.0374381
-0.199805
0.0385714
-0.19184
0.0397433
-0.184199
0.04095
-0.176864
0.0422067
-0.169826
0.0434888
-0.163065
0.0448315
-0.156584
0.046215
-0.150353
0.0476525
-0.144378
0.0491442
-0.138643
0.0506775
-0.133127
0.0522777
-0.127837
0.0539191
-0.122761
0.055614
-0.117876
0.0573867
-0.113191
0.0592121
-0.108692
0.0610855
-0.10437
0.0630343
-0.100225
0.0649887
-0.300823
0.0277438
-0.288609
0.0285849
-0.27696
0.029441
-0.26569
0.030323
-0.255025
0.0312371
-0.244779
0.0321871
-0.235018
0.0331666
-0.225661
0.0341744
-0.21669
0.0352081
-0.20802
0.0362734
-0.199738
0.0373706
-0.191769
0.038501
-0.184127
0.0396712
-0.176791
0.0408769
-0.169753
0.0421334
-0.162992
0.0434158
-0.156511
0.0447593
-0.150282
0.0461439
-0.144308
0.0475829
-0.138575
0.0490763
-0.133061
0.0506115
-0.127772
0.0522136
-0.122699
0.053857
-0.117815
0.0555537
-0.113133
0.0573281
-0.108635
0.059155
-0.104314
0.0610297
-0.10017
0.0629797
-0.0961879
0.0649337
-0.300809
0.0268867
-0.288564
0.0276989
-0.276906
0.0285302
-0.265631
0.0293824
-0.254974
0.0302724
-0.244733
0.0311912
-0.234972
0.032141
-0.22561
0.033116
-0.216634
0.0341178
-0.207958
0.0351461
-0.199672
0.0362073
-0.1917
0.0373016
-0.184056
0.0384302
-0.176719
0.0395993
-0.169681
0.0408046
-0.162919
0.0420612
-0.15644
0.0433443
-0.150212
0.0446889
-0.144239
0.046075
-0.138507
0.0475157
-0.132996
0.049011
-0.127709
0.0505482
-0.122638
0.0521523
-0.117756
0.0537977
-0.113075
0.0554963
-0.10858
0.0572723
-0.10426
0.0591007
-0.100117
0.0609765
-0.096136
0.0629278
-0.0923169
0.0648814
-0.300793
0.0260567
-0.288519
0.0268415
-0.276853
0.0276458
-0.265576
0.0284748
-0.254928
0.0293355
-0.244689
0.0302293
-0.234928
0.0311469
-0.225561
0.0320917
-0.216578
0.0330606
-0.207897
0.0340572
-0.199607
0.0350814
-0.191633
0.0361397
-0.183986
0.0372321
-0.176649
0.0383595
-0.169609
0.039528
-0.162848
0.0407334
-0.156369
0.0419904
-0.150142
0.0432745
-0.144171
0.0446204
-0.138441
0.0460083
-0.132931
0.0474508
-0.127646
0.0489482
-0.122577
0.0504875
-0.117698
0.0520937
-0.113019
0.0537411
-0.108525
0.0554415
-0.104207
0.0572192
-0.100066
0.0590491
-0.0960855
0.060926
-0.0922675
0.0628784
-0.0885918
0.0648315
-0.300777
0.0252514
-0.288474
0.0260116
-0.276802
0.0267903
-0.265524
0.0275936
-0.254884
0.0284313
-0.244649
0.0292949
-0.234885
0.0301868
-0.225513
0.031099
-0.216524
0.0320377
-0.207838
0.0330013
-0.199544
0.0339939
-0.191567
0.0350152
-0.183918
0.0360715
-0.176579
0.0371625
-0.169539
0.0382892
-0.162778
0.0394575
-0.156299
0.0406632
-0.150073
0.0419212
-0.144103
0.0432066
-0.138374
0.0445541
-0.132867
0.0459438
-0.127584
0.0473885
-0.122517
0.048888
-0.11764
0.0504295
-0.112963
0.0520378
-0.108471
0.0536872
-0.104155
0.0553895
-0.100015
0.0571688
-0.0960364
0.059
-0.0922195
0.0608779
-0.0885448
0.0628315
-0.0850276
0.0647841
-0.30076
0.0244719
-0.288429
0.0252064
-0.276752
0.0259622
-0.265474
0.0267412
-0.254844
0.0275533
-0.244611
0.028393
-0.234844
0.029254
-0.225466
0.03014
-0.216471
0.0310462
-0.20778
0.0319798
-0.199482
0.0329396
-0.191502
0.0339292
-0.183851
0.0349484
-0.176511
0.0360032
-0.16947
0.0370932
-0.162708
0.0382195
-0.15623
0.039388
-0.150004
0.0405945
-0.144035
0.0418536
-0.138308
0.0431406
-0.132802
0.04449
-0.127522
0.0458818
-0.122457
0.0473286
-0.117582
0.0488303
-0.112907
0.050374
-0.108418
0.0519845
-0.104104
0.0536358
-0.0999655
0.0553399
-0.0959884
0.0571208
-0.0921729
0.0589533
-0.0884992
0.0608322
-0.0849831
0.0627869
-0.0815994
0.064739
-0.300742
0.0237156
-0.288384
0.0244273
-0.276705
0.0251591
-0.265428
0.0259163
-0.254806
0.0267039
-0.244574
0.0275171
-0.234805
0.0283536
-0.225421
0.0292085
-0.21642
0.0300886
-0.207723
0.0309898
-0.199422
0.0319196
-0.191439
0.0328764
-0.183786
0.0338638
-0.176444
0.0348812
-0.169401
0.0359349
-0.162639
0.0370244
-0.156161
0.0381507
-0.149936
0.0393197
-0.143968
0.0405273
-0.138243
0.0417878
-0.132738
0.0430767
-0.12746
0.0444281
-0.122397
0.0458221
-0.117524
0.0472712
-0.112852
0.0487752
-0.108365
0.0503212
-0.104053
0.0519337
-0.0999167
0.053587
-0.0959414
0.0552929
-0.0921273
0.0570752
-0.088455
0.0589091
-0.0849397
0.0607889
-0.0815571
0.0627445
-0.0783172
0.0646961
-0.300723
0.0229826
-0.28834
0.0236715
-0.276659
0.024382
-0.265386
0.0251161
-0.254772
0.0258817
-0.24454
0.0266696
-0.234767
0.027479
-0.225376
0.0283093
-0.21637
0.0291585
-0.207669
0.0300338
-0.199363
0.0309312
-0.191377
0.031858
-0.183722
0.0328124
-0.176378
0.0337978
-0.169334
0.034814
-0.162571
0.0358668
-0.156093
0.0369562
-0.149868
0.0380829
-0.143901
0.0392529
-0.138177
0.0404618
-0.132675
0.0417241
-0.127398
0.0430149
-0.122338
0.0443685
-0.117467
0.0457648
-0.112797
0.0472162
-0.108312
0.0487226
-0.104003
0.0502708
-0.0998685
0.0518854
-0.095895
0.0535407
-0.0920827
0.0552482
-0.0884118
0.057032
-0.0848977
0.0588671
-0.0815159
0.0607477
-0.078277
0.0627043
-0.0751558
0.0646553
-0.300704
0.022274
-0.288296
0.0229391
-0.276616
0.0236283
-0.265346
0.0243419
-0.25474
0.0250841
-0.244508
0.0258491
-0.23473
0.0266328
-0.225334
0.0274361
-0.216321
0.0282608
-0.207615
0.0291053
-0.199306
0.0299769
-0.191317
0.0308712
-0.183659
0.0317954
-0.176313
0.0327477
-0.169268
0.0337316
-0.162504
0.0347468
-0.156025
0.0357994
-0.149801
0.0368889
-0.143835
0.0380164
-0.138112
0.0391876
-0.132611
0.0403981
-0.127337
0.0416623
-0.122278
0.0429553
-0.11741
0.0443112
-0.112742
0.0457099
-0.10826
0.0471637
-0.103952
0.0486724
-0.0998205
0.0502228
-0.0958492
0.0518395
-0.0920387
0.0534966
-0.0883694
0.0552059
-0.0848568
0.056991
-0.0814761
0.0588272
-0.0782379
0.0607086
-0.0751176
0.0626662
-0.0721304
0.0646165
-0.300683
0.0215861
-0.288253
0.0222313
-0.276575
0.022898
-0.265308
0.0235911
-0.25471
0.0243122
-0.244477
0.0250531
-0.234694
0.0258136
-0.225292
0.0265911
-0.216274
0.027389
-0.207564
0.0282092
-0.199251
0.02905
-0.191259
0.0299184
-0.183598
0.03081
-0.17625
0.031732
-0.169203
0.0326826
-0.162438
0.0336654
-0.155958
0.0346801
-0.149734
0.0357326
-0.143769
0.0368228
-0.138047
0.0379513
-0.132547
0.039124
-0.127275
0.0403364
-0.122218
0.0416027
-0.117353
0.042898
-0.112687
0.0442563
-0.108207
0.0456574
-0.103902
0.0471136
-0.0997728
0.0486246
-0.0958036
0.0501773
-0.0919952
0.051796
-0.0883277
0.0534549
-0.0848166
0.0551657
-0.0814373
0.0569522
-0.0782002
0.0587894
-0.0750806
0.0606716
-0.0720942
0.0626299
-0.0692259
0.0645795
-0.300662
0.0209186
-0.288212
0.0215442
-0.276536
0.0221923
-0.265274
0.0228635
-0.254682
0.0235635
-0.244447
0.0242826
-0.23466
0.0250188
-0.225252
0.0257733
-0.216229
0.0265456
-0.207514
0.0273391
-0.199197
0.0281556
-0.191202
0.0289931
-0.183538
0.0298588
-0.176188
0.030748
-0.169139
0.0316681
-0.162372
0.0326174
-0.155892
0.0335994
-0.149668
0.0346139
-0.143703
0.0356668
-0.137982
0.0367579
-0.132484
0.0378878
-0.127213
0.0390622
-0.122159
0.0402767
-0.117295
0.0415452
-0.112632
0.0428429
-0.108155
0.0442037
-0.103852
0.0456073
-0.099725
0.0470659
-0.0957582
0.0485792
-0.0919519
0.050134
-0.0882864
0.0517547
-0.0847771
0.0534154
-0.0813992
0.0551277
-0.0781634
0.0569154
-0.0750448
0.0587536
-0.072059
0.0606364
-0.0691915
0.0625955
-0.0664372
0.0645444
-0.300639
0.0202731
-0.288171
0.0208778
-0.276499
0.0215074
-0.265242
0.0221604
-0.254657
0.0228378
-0.244419
0.0235352
-0.234627
0.0242495
-0.225212
0.0249797
-0.216185
0.0257292
-0.207466
0.0264973
-0.199145
0.0272872
-0.191147
0.0281004
-0.18348
0.028935
-0.176127
0.0297981
-0.169076
0.0306853
-0.162308
0.0316038
-0.155827
0.0325521
-0.149602
0.0335338
-0.143638
0.0345485
-0.137917
0.0356022
-0.13242
0.0366944
-0.127151
0.037826
-0.122099
0.0390024
-0.117237
0.040219
-0.112577
0.0414899
-0.108102
0.0427901
-0.103802
0.0441534
-0.0996772
0.0455594
-0.0957127
0.0470205
-0.0919087
0.048536
-0.0882453
0.0500929
-0.0847379
0.0517155
-0.0813618
0.0533779
-0.0781274
0.0550917
-0.0750099
0.0568805
-0.0720251
0.0587197
-0.0691581
0.060603
-0.0664045
0.0625629
-0.0637593
0.064511
-0.300616
0.0196468
-0.288131
0.0202335
-0.276465
0.0208431
-0.265212
0.0214778
-0.254633
0.0221364
-0.244392
0.0228108
-0.234595
0.0235033
-0.225175
0.0242118
-0.216142
0.0249373
-0.207419
0.0256827
-0.199095
0.0264472
-0.191093
0.0272336
-0.183424
0.0280438
-0.176068
0.0288758
-0.169015
0.0297366
-0.162245
0.0306221
-0.155763
0.0315395
-0.149537
0.0324872
-0.143573
0.0334688
-0.137853
0.0344841
-0.132357
0.0355388
-0.127089
0.0366325
-0.122039
0.0377659
-0.11718
0.0389444
-0.112521
0.0401634
-0.108049
0.0414368
-0.103751
0.0427396
-0.0996292
0.0441053
-0.0956672
0.0455138
-0.0918655
0.0469772
-0.0882044
0.048495
-0.084699
0.050054
-0.0813247
0.0516784
-0.0780919
0.0533424
-0.0749759
0.0550576
-0.0719921
0.0568475
-0.069126
0.0586876
-0.0663729
0.0605713
-0.0637284
0.0625319
-0.0611923
0.0644791
-0.300592
0.0190399
-0.288093
0.0196085
-0.276432
0.0202008
-0.265185
0.0208158
-0.254611
0.0214555
-0.244366
0.0221105
-0.234564
0.02278
-0.225139
0.0234669
-0.216101
0.024171
-0.207374
0.0248924
-0.199047
0.0256342
-0.191041
0.0263953
-0.183369
0.0271786
-0.17601
0.027986
-0.168955
0.0288156
-0.162183
0.0296746
-0.155699
0.0305587
-0.149473
0.0314752
-0.143508
0.0324228
-0.137789
0.0334047
-0.132294
0.0344208
-0.127027
0.0354769
-0.121978
0.0365723
-0.117121
0.0377078
-0.112465
0.0388886
-0.107995
0.04011
-0.1037
0.0413859
-0.0995808
0.0426912
-0.0956214
0.0440595
-0.0918222
0.0454705
-0.0881634
0.0469362
-0.0846602
0.0484561
-0.0812879
0.0500171
-0.0780568
0.0516433
-0.0749423
0.0533089
-0.0719599
0.0550254
-0.0690947
0.0568163
-0.0663424
0.0586571
-0.0636983
0.0605413
-0.0611629
0.0625025
-0.058726
0.0644488
-0.300568
0.0184509
-0.288056
0.0190028
-0.276401
0.0195777
-0.26516
0.0201756
-0.25459
0.0207949
-0.244341
0.0214307
-0.234535
0.0220809
-0.225104
0.022745
-0.216062
0.0234276
-0.207331
0.0241278
-0.199
0.0248457
-0.190991
0.025584
-0.183315
0.0263419
-0.175954
0.0271224
-0.168896
0.0279273
-0.162122
0.0287548
-0.155637
0.0296121
-0.14941
0.0304952
-0.143444
0.0314114
-0.137725
0.032359
-0.132231
0.0333416
-0.126965
0.0343588
-0.121918
0.0354165
-0.117063
0.0365139
-0.112409
0.0376515
-0.107941
0.0388347
-0.103649
0.0400587
-0.0995321
0.0413372
-0.0955752
0.0426451
-0.0917785
0.0440159
-0.0881221
0.0454293
-0.0846212
0.0468973
-0.0812511
0.0484193
-0.0780219
0.0499822
-0.0749092
0.0516101
-0.0719281
0.0532772
-0.0690643
0.0549949
-0.0663129
0.0567867
-0.0636695
0.0586283
-0.0611344
0.0605128
-0.0586981
0.0624746
-0.0563555
0.06442
-0.300542
0.0178811
-0.28802
0.0184153
-0.276372
0.018974
-0.265137
0.0195545
-0.25457
0.020156
-0.244317
0.0207711
-0.234506
0.0214021
-0.22507
0.0220473
-0.216024
0.0227073
-0.20729
0.0233861
-0.198955
0.0240827
-0.190943
0.0247972
-0.183264
0.0255323
-0.175899
0.0262872
-0.168838
0.027065
-0.162063
0.0278676
-0.155576
0.0286934
-0.149347
0.0295495
-0.143381
0.030432
-0.137662
0.031348
-0.132168
0.032296
-0.126903
0.0332796
-0.121858
0.0342983
-0.117004
0.0353577
-0.112353
0.0364573
-0.107887
0.0375973
-0.103597
0.038783
-0.099483
0.0400096
-0.0955287
0.0412906
-0.0917346
0.0426011
-0.0880806
0.0439744
-0.0845821
0.0453901
-0.0812141
0.0468603
-0.0779871
0.0483844
-0.0748762
0.0499492
-0.0718968
0.0515788
-0.0690343
0.0532472
-0.0662841
0.054966
-0.0636415
0.0567587
-0.0611071
0.058601
-0.0586711
0.0604857
-0.056329
0.0624481
-0.0540907
0.0643925
-0.300516
0.0173294
-0.287986
0.0178471
-0.276345
0.0183882
-0.265115
0.0189527
-0.254552
0.0195361
-0.244294
0.0201332
-0.234479
0.0207437
-0.225038
0.0213699
-0.215988
0.0220111
-0.20725
0.0226674
-0.198911
0.0233428
-0.190896
0.0240359
-0.183214
0.0247471
-0.175846
0.0254791
-0.168783
0.0262313
-0.162004
0.0270067
-0.155515
0.0278074
-0.149285
0.0286317
-0.143318
0.029487
-0.137599
0.030369
-0.132105
0.0312853
-0.126841
0.0322341
-0.121797
0.0332189
-0.116945
0.0342393
-0.112296
0.0353007
-0.107833
0.0364026
-0.103545
0.0375451
-0.0994333
0.0387334
-0.0954817
0.0399625
-0.0916901
0.0412462
-0.0880387
0.0425592
-0.0845426
0.0439349
-0.081177
0.045353
-0.0779521
0.0468253
-0.0748432
0.0483514
-0.0718656
0.049918
-0.0690046
0.0515491
-0.0662558
0.0532189
-0.0636143
0.0549388
-0.0610806
0.0567323
-0.0586452
0.0585751
-0.0563033
0.06046
-0.0540656
0.062423
-0.0519116
0.0643663
-0.300489
0.0167931
-0.287954
0.017297
-0.27632
0.0178218
-0.265096
0.0183686
-0.254534
0.0189353
-0.244272
0.0195142
-0.234452
0.0201068
-0.225007
0.0207128
-0.215953
0.0213352
-0.207211
0.0219729
-0.19887
0.0226257
-0.190851
0.0232977
-0.183165
0.0239875
-0.175794
0.0246956
-0.168728
0.0254247
-0.161947
0.0261744
-0.155456
0.0269476
-0.149225
0.0277467
-0.143257
0.0285699
-0.137536
0.0294246
-0.132043
0.0303067
-0.12678
0.0312234
-0.121736
0.0321733
-0.116886
0.0331597
-0.112238
0.0341819
-0.107777
0.0352456
-0.103492
0.0363498
-0.0993831
0.0374949
-0.0954341
0.0386858
-0.0916452
0.0399176
-0.0879964
0.0412038
-0.0845028
0.0425194
-0.0811395
0.0438974
-0.0779169
0.0453178
-0.07481
0.0467922
-0.0718344
0.0483202
-0.0689752
0.0498885
-0.0662278
0.0515211
-0.0635875
0.0531921
-0.0610549
0.054913
-0.0586202
0.0567072
-0.0562789
0.0585506
-0.0540412
0.0604356
-0.0518877
0.0623991
-0.0498181
0.0643413
-0.300461
0.0162735
-0.287923
0.0167623
-0.276296
0.0172732
-0.265078
0.0178037
-0.254518
0.0183522
-0.244251
0.0189143
-0.234427
0.019489
-0.224977
0.0200773
-0.21592
0.0206796
-0.207175
0.0212986
-0.19883
0.0219328
-0.190807
0.0225823
-0.183118
0.0232509
-0.175744
0.0239376
-0.168675
0.0246427
-0.161892
0.0253692
-0.155398
0.0261166
-0.149165
0.026888
-0.143196
0.0276857
-0.137474
0.0285081
-0.131981
0.0293626
-0.126718
0.030245
-0.121675
0.0311626
-0.116826
0.0321138
-0.112181
0.0331019
-0.107722
0.0341263
-0.103439
0.0351923
-0.0993323
0.036299
-0.0953859
0.0374467
-0.0915997
0.0386403
-0.0879535
0.0398747
-0.0844625
0.0411635
-0.0811017
0.0424815
-0.0778813
0.0438619
-0.0747767
0.0452844
-0.071803
0.0467609
-0.0689457
0.0482907
-0.0661999
0.0498606
-0.0635611
0.0514947
-0.0610297
0.0531668
-0.0585959
0.0548887
-0.0562552
0.0566835
-0.054018
0.0585274
-0.0518646
0.0604125
-0.0497955
0.0623764
-0.0478103
0.0643174
-0.300433
0.0157707
-0.287894
0.0162444
-0.276274
0.0167401
-0.265061
0.0172567
-0.254502
0.0177882
-0.244231
0.0183321
-0.234403
0.0188902
-0.224949
0.0194608
-0.215889
0.0200456
-0.20714
0.0206446
-0.198791
0.0212602
-0.190765
0.0218911
-0.183073
0.0225372
-0.175696
0.0232027
-0.168624
0.0238863
-0.161838
0.0245886
-0.155342
0.0253127
-0.149106
0.026058
-0.143136
0.0268279
-0.137413
0.0276246
-0.131919
0.0284466
-0.126657
0.0293011
-0.121614
0.0301841
-0.116767
0.0311029
-0.112122
0.0320558
-0.107666
0.0330458
-0.103385
0.0340724
-0.099281
0.0351409
-0.0953372
0.0362503
-0.0915536
0.0374006
-0.0879101
0.0385968
-0.0844216
0.0398339
-0.0810633
0.0411251
-0.0778454
0.0424455
-0.074743
0.0438282
-0.0717715
0.0452528
-0.068916
0.0467312
-0.0661721
0.0482628
-0.0635348
0.0498343
-0.0610047
0.0514697
-0.0585721
0.053143
-0.0562322
0.0548658
-0.0539956
0.0566611
-0.0518426
0.0585055
-0.0497735
0.0603905
-0.0477888
0.0623549
-0.0458881
0.0642946
-0.300405
0.0152819
-0.287866
0.0157433
-0.276253
0.0162236
-0.265046
0.0167249
-0.254488
0.017242
-0.244212
0.017769
-0.23438
0.0183091
-0.224922
0.0188632
-0.215858
0.0194305
-0.207106
0.0200121
-0.198755
0.0206078
-0.190725
0.0212201
-0.18303
0.0218477
-0.175649
0.0224906
-0.168574
0.023153
-0.161785
0.0238337
-0.155287
0.0245335
-0.149049
0.0252554
-0.143076
0.025999
-0.137353
0.0267676
-0.131858
0.0275636
-0.126595
0.0283854
-0.121554
0.0292403
-0.116707
0.0301243
-0.112064
0.0310445
-0.107609
0.0319992
-0.103331
0.0329914
-0.099229
0.0340204
-0.0952877
0.0350915
-0.0915068
0.0362035
-0.087866
0.0373565
-0.0843801
0.0385554
-0.0810244
0.039795
-0.0778089
0.0410887
-0.0747089
0.0424114
-0.0717395
0.0437963
-0.0688862
0.0452229
-0.0661441
0.0467032
-0.0635085
0.0482365
-0.0609799
0.0498095
-0.0585485
0.0514462
-0.0562097
0.0531205
-0.053974
0.0548441
-0.0518215
0.05664
-0.0497527
0.0584847
-0.0477679
0.0603696
-0.0458677
0.0623345
-0.0440364
0.0642729
-0.300375
0.01481
-0.287841
0.0152563
-0.276234
0.0157237
-0.265032
0.0162097
-0.254474
0.0167109
-0.244194
0.0172236
-0.234358
0.017747
-0.224896
0.0182833
-0.215829
0.0188344
-0.207074
0.0193985
-0.198719
0.0199769
-0.190687
0.0205694
-0.182988
0.0211784
-0.175604
0.0218027
-0.168526
0.0224426
-0.161734
0.0231019
-0.155233
0.02378
-0.148993
0.0244774
-0.143018
0.0251974
-0.137294
0.0259395
-0.131798
0.0267072
-0.126535
0.0275028
-0.121493
0.0283248
-0.116647
0.0291805
-0.112005
0.0300657
-0.107552
0.0309876
-0.103276
0.0319443
-0.0991763
0.0329388
-0.0952376
0.0339703
-0.0914593
0.035044
-0.0878212
0.0361587
-0.084338
0.0373144
-0.0809849
0.0385159
-0.077772
0.039758
-0.0746743
0.0410541
-0.0717072
0.0423791
-0.0688559
0.0437661
-0.0661158
0.0451947
-0.0634821
0.0466768
-0.0609551
0.0482117
-0.0585251
0.0497861
-0.0561876
0.051424
-0.0539527
0.0530993
-0.051801
0.0548236
-0.0497327
0.0566199
-0.0477482
0.058465
-0.0458478
0.0603497
-0.044017
0.0623151
-0.0422603
0.0642521
-0.300345
0.0143521
-0.287817
0.014786
-0.276215
0.0152379
-0.265019
0.015711
-0.25446
0.0161964
-0.244176
0.0166934
-0.234337
0.0172026
-0.224872
0.0177224
-0.215802
0.0182559
-0.207044
0.0188038
-0.198686
0.0193649
-0.19065
0.0199401
-0.182948
0.0205293
-0.175561
0.0211351
-0.16848
0.0217563
-0.161685
0.0223931
-0.155181
0.0230497
-0.148938
0.0237253
-0.142962
0.0244206
-0.137235
0.0251389
-0.131738
0.0258798
-0.126474
0.0266469
-0.121433
0.0274424
-0.116587
0.0282649
-0.111947
0.0291216
-0.107495
0.0300083
-0.10322
0.0309321
-0.0991231
0.031891
-0.0951868
0.032888
-0.0914111
0.0339221
-0.0877757
0.0349985
-0.0842952
0.0361159
-0.0809448
0.0372742
-0.0777344
0.0384783
-0.0746392
0.0397228
-0.0716744
0.0410213
-0.0688253
0.0423485
-0.0660872
0.0437375
-0.0634554
0.045168
-0.0609301
0.0466518
-0.0585017
0.0481882
-0.0561655
0.049764
-0.0539318
0.0514031
-0.051781
0.0530793
-0.0497134
0.0548043
-0.0477293
0.056601
-0.0458292
0.0584464
-0.0439982
0.0603309
-0.0422419
0.0622967
-0.0405648
0.0642322
-0.300315
0.0139072
-0.287795
0.01433
-0.276198
0.0147688
-0.265008
0.0152264
-0.254447
0.0156983
-0.244159
0.0161796
-0.234317
0.0166733
-0.224848
0.0171792
-0.215776
0.0176963
-0.207015
0.0182268
-0.198654
0.0187717
-0.190615
0.0193296
-0.18291
0.0199016
-0.175519
0.0204877
-0.168435
0.0210903
-0.161637
0.0217085
-0.15513
0.0223424
-0.148885
0.0229964
-0.142906
0.0236697
-0.137178
0.0243631
-0.131679
0.02508
-0.126414
0.0258201
-0.121373
0.0265868
-0.116527
0.0273826
-0.111888
0.0282059
-0.107437
0.0290639
-0.103164
0.0299523
-0.0990692
0.0308782
-0.0951353
0.0318395
-0.0913622
0.0328391
-0.0877294
0.0338759
-0.0842517
0.034955
-0.0809039
0.0360751
-0.0776961
0.037236
-0.0746034
0.0384425
-0.071641
0.0396895
-0.0687942
0.0409901
-0.0660582
0.0423195
-0.0634283
0.0437104
-0.0609049
0.0451427
-0.0584781
0.0466282
-0.0561434
0.0481661
-0.053911
0.0497432
-0.0517613
0.0513833
-0.0496945
0.0530604
-0.0477111
0.054786
-0.0458113
0.0565831
-0.0439805
0.0584287
-0.042224
0.0603129
-0.0405473
0.0622792
-0.0389247
0.0642132
-0.300284
0.0134777
-0.287774
0.0138868
-0.276182
0.0143137
-0.264997
0.0147582
-0.254435
0.0152142
-0.244143
0.0156824
-0.234298
0.0161605
-0.224826
0.0166511
-0.215751
0.0171544
-0.206987
0.0176686
-0.198623
0.0181961
-0.190581
0.018738
-0.182873
0.0192928
-0.175479
0.0198616
-0.168392
0.0204445
-0.161591
0.0210441
-0.155081
0.0216593
-0.148833
0.0222905
-0.142852
0.022942
-0.137121
0.0236133
-0.131621
0.0243051
-0.126355
0.0250209
-0.121313
0.0257604
-0.116468
0.0265272
-0.111828
0.0273235
-0.107379
0.0281479
-0.103108
0.0290074
-0.0990147
0.0298978
-0.0950831
0.030826
-0.0913125
0.0317898
-0.0876824
0.032792
-0.0842073
0.0338316
-0.0808623
0.0349134
-0.0776571
0.0360361
-0.074567
0.0371996
-0.0716071
0.0384086
-0.0687625
0.0396578
-0.0660287
0.0409607
-0.0634009
0.042292
-0.0608793
0.0436848
-0.0584543
0.0451189
-0.0561212
0.046606
-0.0538902
0.0481453
-0.0517417
0.0497236
-0.0496759
0.0513647
-0.0476933
0.0530426
-0.0457941
0.0547688
-0.0439636
0.0565661
-0.0422073
0.058412
-0.0405302
0.0602959
-0.0389081
0.0622626
-0.0373601
0.064195
-0.300253
0.0130599
-0.287755
0.013459
-0.276167
0.0138715
-0.264988
0.0143041
-0.254424
0.0147466
-0.244128
0.015199
-0.23428
0.0156642
-0.224805
0.0161395
-0.215727
0.0166275
-0.206961
0.017128
-0.198594
0.0176393
-0.190549
0.0181639
-0.182838
0.0187027
-0.175441
0.0192544
-0.16835
0.0198201
-0.161546
0.0203999
-0.155033
0.0209965
-0.148783
0.0216088
-0.142799
0.0222375
-0.137066
0.0228868
-0.131564
0.0235562
-0.126297
0.0242467
-0.121254
0.0249617
-0.116408
0.0257009
-0.111769
0.0264681
-0.107321
0.0272653
-0.103051
0.028091
-0.0989596
0.0289523
-0.0950302
0.0298449
-0.091262
0.0307755
-0.0876345
0.0317419
-0.0841622
0.0327469
-0.0808199
0.0337891
-0.0776174
0.0348737
-0.0745299
0.035999
-0.0715725
0.037165
-0.0687303
0.0383764
-0.0659987
0.0396278
-0.0633729
0.0409327
-0.0608533
0.042266
-0.0584301
0.0436607
-0.0560987
0.0450964
-0.0538692
0.046585
-0.051722
0.0481257
-0.0496575
0.0497051
-0.0476758
0.0513472
-0.0457773
0.0530258
-0.0439473
0.0547526
-0.0421912
0.0565501
-0.0405144
0.0583962
-0.0388918
0.0602796
-0.0373443
0.0622468
-0.0358509
0.0641776
-0.300222
0.0126549
-0.287738
0.0130428
-0.276152
0.0134445
-0.264979
0.0138627
-0.254413
0.014293
-0.244114
0.0147322
-0.234262
0.0151817
-0.224785
0.0156442
-0.215705
0.016117
-0.206935
0.0166024
-0.198566
0.0171002
-0.190518
0.0176086
-0.182804
0.0181302
-0.175404
0.018666
-0.16831
0.0192145
-0.161503
0.0197771
-0.154987
0.0203539
-0.148734
0.0209476
-0.142747
0.0215572
-0.137012
0.0221835
-0.131508
0.0228308
-0.126239
0.0234987
-0.121195
0.0241881
-0.116349
0.0249026
-0.11171
0.0256419
-0.107262
0.0264097
-0.102994
0.0272081
-0.098904
0.0280354
-0.0949766
0.0288988
-0.0912107
0.0297937
-0.0875858
0.0307268
-0.0841162
0.0316959
-0.0807766
0.0327036