/*--------------------------------*- C++ -*----------------------------------*\
  =========                 |
  \\      /  F ield         | OpenFOAM: The Open Source CFD Toolbox
   \\    /   O peration     | Website:  https://openfoam.org
    \\  /    A nd           | Version:  7
     \\/     M anipulation  |
\*---------------------------------------------------------------------------*/
FoamFile
{
    version     2.0;
    format      ascii;
    class       volVectorField;
    location    "1400";
    object      U;
}
// * * * * * * * * * * * * * * * * * * * * * * * * * * * * * * * * * * * * * //

dimensions      [0 1 -1 0 0 0 0];

internalField   nonuniform List<vector> 
23117
(
(49.9672 13.153 0)
(49.9143 13.0952 0)
(50.0567 13.1491 0)
(49.8922 13.0593 0)
(50.0171 13.1437 0)
(50.1189 13.1247 0)
(49.8746 13.0246 0)
(49.9984 13.1311 0)
(50.086 13.1177 0)
(50.1845 13.0882 0)
(49.8638 12.9947 0)
(49.9757 13.1161 0)
(50.069 13.1078 0)
(50.1478 13.0775 0)
(50.2306 13.0626 0)
(49.8557 12.9686 0)
(49.9594 13.1019 0)
(50.0474 13.0965 0)
(50.1293 13.0666 0)
(50.1905 13.0555 0)
(50.2588 13.035 0)
(49.8496 12.9456 0)
(49.9454 13.0893 0)
(50.0303 13.0847 0)
(50.1058 13.0553 0)
(50.1702 13.0455 0)
(50.2128 13.0275 0)
(50.2693 13.0035 0)
(49.8446 12.9254 0)
(49.9338 13.0783 0)
(50.0144 13.073 0)
(50.0859 13.0439 0)
(50.1427 13.0353 0)
(50.1895 13.017 0)
(50.2167 12.9948 0)
(50.2656 12.9707 0)
(49.8405 12.9075 0)
(49.9237 13.0691 0)
(50.0004 13.062 0)
(50.0666 13.0328 0)
(50.1185 13.0247 0)
(50.1575 13.0066 0)
(50.1908 12.9837 0)
(50.2097 12.9616 0)
(50.2571 12.9382 0)
(49.837 12.8917 0)
(49.9147 13.0614 0)
(49.9875 13.0517 0)
(50.0485 13.0223 0)
(50.0943 13.0142 0)
(50.129 12.9957 0)
(50.1555 12.9731 0)
(50.1835 12.9509 0)
(50.2022 12.93 0)
(50.2525 12.9086 0)
(49.8339 12.8778 0)
(49.9066 13.0552 0)
(49.9755 13.0422 0)
(50.031 13.0124 0)
(50.071 13.0041 0)
(50.1004 12.9849 0)
(50.1246 12.9622 0)
(50.1477 12.9406 0)
(50.1779 12.9202 0)
(50.202 12.902 0)
(50.2562 12.8829 0)
(49.8312 12.8656 0)
(49.8991 13.0503 0)
(49.9641 13.0335 0)
(50.0141 13.0032 0)
(50.0483 12.9943 0)
(50.0731 12.9744 0)
(50.094 12.9515 0)
(50.1172 12.9304 0)
(50.1444 12.9109 0)
(50.1806 12.8934 0)
(50.2108 12.8784 0)
(50.2675 12.8608 0)
(49.8287 12.8548 0)
(49.892 13.0465 0)
(49.9531 13.0256 0)
(49.9975 12.9948 0)
(50.0261 12.9851 0)
(50.0466 12.9642 0)
(50.0653 12.9413 0)
(50.0876 12.9207 0)
(50.1165 12.9019 0)
(50.1504 12.8853 0)
(50.1919 12.8705 0)
(50.2257 12.8579 0)
(50.2828 12.841 0)
(49.8265 12.8454 0)
(49.8853 13.0438 0)
(49.9424 13.0184 0)
(49.9811 12.9872 0)
(50.0044 12.9766 0)
(50.0211 12.9547 0)
(50.038 12.9317 0)
(50.0603 12.9115 0)
(50.0897 12.8934 0)
(50.1256 12.8775 0)
(50.1643 12.8634 0)
(50.2079 12.8503 0)
(50.2421 12.8391 0)
(50.2979 12.8222 0)
(49.8244 12.8373 0)
(49.8787 13.042 0)
(49.9318 13.0119 0)
(49.9648 12.9803 0)
(49.9831 12.9686 0)
(49.9966 12.9458 0)
(50.0123 12.9228 0)
(50.0348 12.903 0)
(50.0652 12.8855 0)
(50.1014 12.8701 0)
(50.1414 12.8563 0)
(50.1815 12.8436 0)
(50.2241 12.8312 0)
(50.2564 12.8208 0)
(50.3104 12.8038 0)
(49.8224 12.8303 0)
(49.8722 13.0411 0)
(49.9213 13.006 0)
(49.9487 12.9741 0)
(49.9623 12.9613 0)
(49.9732 12.9376 0)
(49.9882 12.9147 0)
(50.0112 12.8953 0)
(50.0424 12.8783 0)
(50.0792 12.8632 0)
(50.1186 12.8495 0)
(50.1589 12.8367 0)
(50.1974 12.8245 0)
(50.2376 12.8124 0)
(50.2671 12.8024 0)
(50.3195 12.7855 0)
(49.8206 12.8243 0)
(49.8658 13.0409 0)
(49.9107 13.0007 0)
(49.9326 12.9685 0)
(49.9421 12.9547 0)
(49.9509 12.9303 0)
(49.9656 12.9075 0)
(49.9893 12.8884 0)
(50.0212 12.8717 0)
(50.0581 12.8567 0)
(50.0971 12.843 0)
(50.136 12.83 0)
(50.1742 12.8174 0)
(50.21 12.8054 0)
(50.2476 12.7935 0)
(50.2745 12.784 0)
(50.3258 12.7674 0)
(49.8188 12.8193 0)
(49.8593 13.0413 0)
(49.9001 12.9959 0)
(49.9166 12.9637 0)
(49.9225 12.9487 0)
(49.9297 12.9237 0)
(49.9445 12.9011 0)
(49.969 12.8823 0)
(50.0014 12.8657 0)
(50.0381 12.8508 0)
(50.0763 12.8368 0)
(50.114 12.8234 0)
(50.1503 12.8105 0)
(50.1856 12.7981 0)
(50.2189 12.7864 0)
(50.2544 12.7749 0)
(50.2794 12.7659 0)
(50.3299 12.7497 0)
(49.8171 12.8152 0)
(49.8528 13.0423 0)
(49.8894 12.9915 0)
(49.9008 12.9595 0)
(49.9035 12.9435 0)
(49.9097 12.9179 0)
(49.9249 12.8956 0)
(49.9501 12.8771 0)
(49.9828 12.8605 0)
(50.0191 12.8454 0)
(50.0561 12.831 0)
(50.0923 12.8171 0)
(50.1272 12.8036 0)
(50.1607 12.7908 0)
(50.1937 12.7787 0)
(50.225 12.7675 0)
(50.2592 12.7566 0)
(50.2829 12.7483 0)
(50.3328 12.7325 0)
(49.8153 12.8119 0)
(49.8462 13.0438 0)
(49.8786 12.9875 0)
(49.8851 12.9558 0)
(49.8852 12.9389 0)
(49.8908 12.913 0)
(49.9065 12.8909 0)
(49.9325 12.8726 0)
(49.9652 12.856 0)
(50.0007 12.8404 0)
(50.0364 12.8255 0)
(50.071 12.8109 0)
(50.1043 12.7969 0)
(50.1365 12.7836 0)
(50.1679 12.7711 0)
(50.1993 12.7596 0)
(50.2294 12.7491 0)
(50.2627 12.7389 0)
(50.2855 12.7314 0)
(50.3349 12.7161 0)
(49.8136 12.8094 0)
(49.8395 13.0457 0)
(49.8678 12.984 0)
(49.8697 12.9528 0)
(49.8676 12.9349 0)
(49.873 12.9089 0)
(49.8895 12.8871 0)
(49.916 12.8689 0)
(49.9485 12.852 0)
(49.9829 12.836 0)
(50.0171 12.8204 0)
(50.0501 12.8052 0)
(50.0818 12.7905 0)
(50.1126 12.7766 0)
(50.143 12.7637 0)
(50.1731 12.7519 0)
(50.2034 12.741 0)
(50.2327 12.7313 0)
(50.2654 12.7219 0)
(50.2875 12.7152 0)
(50.3364 12.7003 0)
(49.8119 12.8075 0)
(49.8327 13.0481 0)
(49.8569 12.9807 0)
(49.8545 12.9504 0)
(49.8508 12.9317 0)
(49.8563 12.9055 0)
(49.8736 12.8842 0)
(49.9005 12.8659 0)
(49.9324 12.8487 0)
(49.9656 12.8321 0)
(49.9981 12.8158 0)
(50.0294 12.7997 0)
(50.0596 12.7843 0)
(50.0892 12.7698 0)
(50.1185 12.7564 0)
(50.1478 12.7442 0)
(50.177 12.7332 0)
(50.2067 12.7232 0)
(50.2353 12.7143 0)
(50.2675 12.7057 0)
(50.2889 12.6997 0)
(50.3374 12.6852 0)
(49.8102 12.8063 0)
(49.8257 13.0507 0)
(49.846 12.9778 0)
(49.8397 12.9485 0)
(49.8348 12.929 0)
(49.8407 12.903 0)
(49.8587 12.8819 0)
(49.8857 12.8636 0)
(49.9169 12.846 0)
(49.9487 12.8287 0)
(49.9795 12.8116 0)
(50.009 12.7947 0)
(50.0378 12.7785 0)
(50.0662 12.7633 0)
(50.0945 12.7494 0)
(50.1229 12.7367 0)
(50.1516 12.7253 0)
(50.1803 12.7151 0)
(50.2094 12.706 0)
(50.2375 12.6979 0)
(50.2691 12.6901 0)
(50.2899 12.6849 0)
(50.338 12.6707 0)
(49.8084 12.8056 0)
(49.8186 13.0536 0)
(49.8351 12.9753 0)
(49.8253 12.9471 0)
(49.8196 12.927 0)
(49.8262 12.9011 0)
(49.8449 12.8804 0)
(49.8718 12.862 0)
(49.9019 12.8439 0)
(49.932 12.8259 0)
(49.9611 12.8078 0)
(49.989 12.7901 0)
(50.0163 12.7731 0)
(50.0435 12.7572 0)
(50.0709 12.7426 0)
(50.0986 12.7294 0)
(50.1265 12.7176 0)
(50.1547 12.7071 0)
(50.1829 12.6978 0)
(50.2116 12.6895 0)
(50.2391 12.6823 0)
(50.2702 12.6751 0)
(50.2905 12.6707 0)
(50.3381 12.6569 0)
(49.8065 12.8054 0)
(49.8114 13.0567 0)
(49.8243 12.9729 0)
(49.8112 12.9463 0)
(49.8053 12.9255 0)
(49.8126 12.9 0)
(49.8318 12.8795 0)
(49.8584 12.8609 0)
(49.8873 12.8423 0)
(49.9157 12.8235 0)
(49.9429 12.8046 0)
(49.9692 12.786 0)
(49.9952 12.7682 0)
(50.0213 12.7516 0)
(50.0478 12.7363 0)
(50.0747 12.7224 0)
(50.102 12.7101 0)
(50.1295 12.6991 0)
(50.1573 12.6895 0)
(50.1851 12.6811 0)
(50.2132 12.6737 0)
(50.2403 12.6673 0)
(50.2709 12.6609 0)
(50.2907 12.6572 0)
(50.3379 12.6437 0)
(49.8045 12.8057 0)
(49.804 13.06 0)
(49.8135 12.9709 0)
(49.7977 12.9459 0)
(49.7919 12.9246 0)
(49.7999 12.8995 0)
(49.8195 12.8793 0)
(49.8455 12.8604 0)
(49.873 12.8412 0)
(49.8996 12.8216 0)
(49.925 12.8018 0)
(49.9497 12.7824 0)
(49.9744 12.7638 0)
(49.9994 12.7463 0)
(50.025 12.7303 0)
(50.0512 12.7157 0)
(50.0778 12.7028 0)
(50.1048 12.6913 0)
(50.132 12.6814 0)
(50.1594 12.6727 0)
(50.1868 12.6652 0)
(50.2145 12.6586 0)
(50.241 12.6529 0)
(50.2713 12.6472 0)
(50.2905 12.6442 0)
(50.3373 12.6311 0)
(49.8025 12.8064 0)
(49.7965 13.0635 0)
(49.8029 12.9691 0)
(49.7847 12.946 0)
(49.7793 12.9242 0)
(49.7881 12.8996 0)
(49.8079 12.8796 0)
(49.8331 12.8604 0)
(49.859 12.8406 0)
(49.8838 12.8202 0)
(49.9074 12.7996 0)
(49.9306 12.7793 0)
(49.9539 12.7598 0)
(49.9779 12.7415 0)
(50.0026 12.7247 0)
(50.028 12.7094 0)
(50.054 12.6958 0)
(50.0804 12.6837 0)
(50.1072 12.6733 0)
(50.1341 12.6642 0)
(50.1612 12.6565 0)
(50.1881 12.6498 0)
(50.2154 12.6441 0)
(50.2415 12.6392 0)
(50.2713 12.6342 0)
(50.2901 12.6319 0)
(50.3365 12.6191 0)
(49.8004 12.8075 0)
(49.7889 13.0671 0)
(49.7925 12.9675 0)
(49.7723 12.9466 0)
(49.7675 12.9243 0)
(49.7771 12.9002 0)
(49.797 12.8804 0)
(49.8211 12.8609 0)
(49.8453 12.8404 0)
(49.8682 12.8193 0)
(49.8901 12.7978 0)
(49.9117 12.7767 0)
(49.9338 12.7564 0)
(49.9567 12.7373 0)
(49.9805 12.7196 0)
(50.0052 12.7035 0)
(50.0305 12.6891 0)
(50.0564 12.6764 0)
(50.0827 12.6653 0)
(50.1092 12.6558 0)
(50.1358 12.6477 0)
(50.1625 12.6409 0)
(50.1891 12.6352 0)
(50.216 12.6303 0)
(50.2417 12.6261 0)
(50.2711 12.6218 0)
(50.2894 12.6201 0)
(50.3354 12.6076 0)
(49.7981 12.8089 0)
(49.7812 13.0708 0)
(49.7823 12.9662 0)
(49.7604 12.9475 0)
(49.7565 12.9249 0)
(49.7667 12.9014 0)
(49.7865 12.8817 0)
(49.8095 12.8618 0)
(49.8319 12.8407 0)
(49.8529 12.8188 0)
(49.8731 12.7966 0)
(49.8933 12.7746 0)
(49.9141 12.7535 0)
(49.9359 12.7335 0)
(49.9588 12.715 0)
(49.9826 12.6981 0)
(50.0073 12.6828 0)
(50.0326 12.6693 0)
(50.0584 12.6576 0)
(50.0846 12.6475 0)
(50.1109 12.639 0)
(50.1372 12.6319 0)
(50.1636 12.626 0)
(50.1898 12.6212 0)
(50.2164 12.6171 0)
(50.2416 12.6137 0)
(50.2706 12.61 0)
(50.2885 12.6089 0)
(50.3342 12.5967 0)
(49.7958 12.8106 0)
(49.7735 13.0745 0)
(49.7723 12.9651 0)
(49.7491 12.9489 0)
(49.7462 12.9258 0)
(49.7571 12.903 0)
(49.7765 12.8834 0)
(49.7982 12.8631 0)
(49.8188 12.8414 0)
(49.8379 12.8188 0)
(49.8564 12.7958 0)
(49.8751 12.7731 0)
(49.8947 12.7512 0)
(49.9154 12.7303 0)
(49.9374 12.7109 0)
(49.9604 12.693 0)
(49.9844 12.6769 0)
(50.0091 12.6626 0)
(50.0344 12.6501 0)
(50.0602 12.6394 0)
(50.0861 12.6304 0)
(50.1123 12.6229 0)
(50.1384 12.6168 0)
(50.1645 12.6118 0)
(50.1903 12.6078 0)
(50.2165 12.6045 0)
(50.2414 12.6018 0)
(50.27 12.5987 0)
(50.2875 12.5983 0)
(50.3328 12.5863 0)
(49.7933 12.8125 0)
(49.7657 13.0782 0)
(49.7626 12.9641 0)
(49.7384 12.9507 0)
(49.7367 12.9272 0)
(49.7481 12.9051 0)
(49.7669 12.8855 0)
(49.7871 12.8648 0)
(49.8059 12.8425 0)
(49.8232 12.8193 0)
(49.8401 12.7956 0)
(49.8574 12.7721 0)
(49.8757 12.7494 0)
(49.8953 12.7277 0)
(49.9162 12.7073 0)
(49.9384 12.6885 0)
(49.9616 12.6715 0)
(49.9858 12.6563 0)
(50.0106 12.6429 0)
(50.036 12.6315 0)
(50.0617 12.6218 0)
(50.0875 12.6138 0)
(50.1135 12.6074 0)
(50.1393 12.6023 0)
(50.1651 12.5982 0)
(50.1906 12.5951 0)
(50.2165 12.5925 0)
(50.2409 12.5905 0)
(50.2692 12.588 0)
(50.2864 12.5881 0)
(50.3313 12.5764 0)
(49.7907 12.8147 0)
(49.7579 13.082 0)
(49.7532 12.9634 0)
(49.7283 12.9528 0)
(49.7279 12.9289 0)
(49.7396 12.9075 0)
(49.7578 12.8879 0)
(49.7764 12.8668 0)
(49.7933 12.844 0)
(49.8089 12.8202 0)
(49.8241 12.7958 0)
(49.84 12.7717 0)
(49.857 12.7481 0)
(49.8755 12.7255 0)
(49.8954 12.7043 0)
(49.9167 12.6845 0)
(49.9391 12.6665 0)
(49.9626 12.6503 0)
(49.987 12.6361 0)
(50.0119 12.6239 0)
(50.0373 12.6135 0)
(50.063 12.6049 0)
(50.0888 12.598 0)
(50.1145 12.5926 0)
(50.1401 12.5884 0)
(50.1657 12.5853 0)
(50.1908 12.5829 0)
(50.2163 12.5811 0)
(50.2404 12.5798 0)
(50.2683 12.5778 0)
(50.2851 12.5785 0)
(50.3297 12.5669 0)
(49.7879 12.817 0)
(49.7501 13.0857 0)
(49.7442 12.9629 0)
(49.7188 12.9553 0)
(49.7197 12.9309 0)
(49.7316 12.9103 0)
(49.7489 12.8906 0)
(49.766 12.8692 0)
(49.7811 12.8459 0)
(49.7948 12.8215 0)
(49.8085 12.7965 0)
(49.8229 12.7717 0)
(49.8387 12.7474 0)
(49.856 12.724 0)
(49.8749 12.7018 0)
(49.8952 12.681 0)
(49.9168 12.662 0)
(49.9397 12.6449 0)
(49.9635 12.6297 0)
(49.988 12.6165 0)
(50.0131 12.6054 0)
(50.0386 12.5961 0)
(50.0642 12.5887 0)
(50.0899 12.5828 0)
(50.1155 12.5784 0)
(50.1408 12.5752 0)
(50.1661 12.5729 0)
(50.1909 12.5714 0)
(50.216 12.5703 0)
(50.2397 12.5696 0)
(50.2673 12.5681 0)
(50.2837 12.5693 0)
(50.328 12.558 0)
(49.785 12.8195 0)
(49.7424 13.0895 0)
(49.7355 12.9625 0)
(49.7099 12.958 0)
(49.7122 12.9332 0)
(49.724 12.9133 0)
(49.7404 12.8935 0)
(49.7558 12.8718 0)
(49.7691 12.8481 0)
(49.7811 12.8232 0)
(49.7932 12.7977 0)
(49.8063 12.7722 0)
(49.8208 12.7472 0)
(49.8369 12.723 0)
(49.8546 12.6998 0)
(49.8739 12.6781 0)
(49.8947 12.6581 0)
(49.9169 12.6399 0)
(49.9401 12.6237 0)
(49.9642 12.6096 0)
(49.989 12.5975 0)
(50.0143 12.5875 0)
(50.0398 12.5794 0)
(50.0654 12.5731 0)
(50.0909 12.5683 0)
(50.1163 12.5649 0)
(50.1414 12.5626 0)
(50.1664 12.5612 0)
(50.1909 12.5604 0)
(50.2156 12.56 0)
(50.239 12.5599 0)
(50.2662 12.5589 0)
(50.2823 12.5607 0)
(50.3262 12.5494 0)
(49.782 12.8221 0)
(49.7347 13.0932 0)
(49.7272 12.9624 0)
(49.7016 12.961 0)
(49.7052 12.9358 0)
(49.7168 12.9166 0)
(49.7322 12.8967 0)
(49.7459 12.8747 0)
(49.7574 12.8506 0)
(49.7678 12.8253 0)
(49.7784 12.7993 0)
(49.7901 12.7733 0)
(49.8032 12.7475 0)
(49.8181 12.7225 0)
(49.8347 12.6984 0)
(49.853 12.6757 0)
(49.8729 12.6547 0)
(49.8942 12.6354 0)
(49.9168 12.6182 0)
(49.9405 12.603 0)
(49.965 12.59 0)
(49.99 12.5792 0)
(50.0154 12.5703 0)
(50.041 12.5634 0)
(50.0665 12.5581 0)
(50.0919 12.5544 0)
(50.1171 12.552 0)
(50.142 12.5506 0)
(50.1666 12.5501 0)
(50.1907 12.55 0)
(50.2152 12.5502 0)
(50.2381 12.5507 0)
(50.2651 12.5502 0)
(50.2808 12.5524 0)
(50.3244 12.5413 0)
(49.7788 12.8248 0)
(49.7272 13.0968 0)
(49.7192 12.9623 0)
(49.6938 12.9643 0)
(49.6987 12.9385 0)
(49.71 12.9201 0)
(49.7243 12.9 0)
(49.7363 12.8778 0)
(49.746 12.8534 0)
(49.7549 12.8277 0)
(49.764 12.8013 0)
(49.7742 12.7748 0)
(49.7861 12.7484 0)
(49.7996 12.7225 0)
(49.815 12.6976 0)
(49.8322 12.6739 0)
(49.8512 12.6518 0)
(49.8717 12.6315 0)
(49.8937 12.6131 0)
(49.9169 12.5969 0)
(49.941 12.5829 0)
(49.9658 12.5711 0)
(49.9911 12.5614 0)
(50.0166 12.5538 0)
(50.0422 12.548 0)
(50.0677 12.5438 0)
(50.0929 12.5412 0)
(50.1179 12.5397 0)
(50.1424 12.5392 0)
(50.1667 12.5395 0)
(50.1906 12.5402 0)
(50.2146 12.541 0)
(50.2372 12.542 0)
(50.2638 12.5419 0)
(50.2792 12.5445 0)
(50.3225 12.5336 0)
(49.7755 12.8276 0)
(49.7197 13.1004 0)
(49.7116 12.9625 0)
(49.6866 12.9677 0)
(49.6927 12.9414 0)
(49.7036 12.9238 0)
(49.7166 12.9035 0)
(49.7269 12.8811 0)
(49.735 12.8565 0)
(49.7423 12.8305 0)
(49.75 12.8038 0)
(49.7588 12.7767 0)
(49.7693 12.7497 0)
(49.7815 12.7231 0)
(49.7957 12.6973 0)
(49.8118 12.6727 0)
(49.8297 12.6495 0)
(49.8494 12.6281 0)
(49.8707 12.6086 0)
(49.8933 12.5913 0)
(49.917 12.5762 0)
(49.9416 12.5634 0)
(49.9667 12.5528 0)
(49.9922 12.5443 0)
(50.0178 12.5379 0)
(50.0434 12.5332 0)
(50.0688 12.5302 0)
(50.0938 12.5286 0)
(50.1186 12.528 0)
(50.1429 12.5284 0)
(50.1668 12.5294 0)
(50.1903 12.5308 0)
(50.214 12.5322 0)
(50.2363 12.5337 0)
(50.2626 12.5341 0)
(50.2777 12.5371 0)
(50.3207 12.5263 0)
(49.772 12.8304 0)
(49.7124 13.104 0)
(49.7044 12.9628 0)
(49.6799 12.9714 0)
(49.6871 12.9445 0)
(49.6974 12.9277 0)
(49.7092 12.9072 0)
(49.7179 12.8846 0)
(49.7244 12.8598 0)
(49.7301 12.8336 0)
(49.7364 12.8066 0)
(49.7438 12.7791 0)
(49.7529 12.7515 0)
(49.7638 12.7242 0)
(49.7767 12.6976 0)
(49.7916 12.672 0)
(49.8085 12.6478 0)
(49.8273 12.6253 0)
(49.8478 12.6047 0)
(49.8699 12.5862 0)
(49.8931 12.57 0)
(49.9174 12.5561 0)
(49.9423 12.5445 0)
(49.9678 12.5351 0)
(49.9934 12.5279 0)
(50.0191 12.5226 0)
(50.0446 12.5191 0)
(50.0699 12.5172 0)
(50.0948 12.5165 0)
(50.1192 12.517 0)
(50.1432 12.5182 0)
(50.1669 12.5199 0)
(50.19 12.5219 0)
(50.2134 12.5239 0)
(50.2353 12.5259 0)
(50.2613 12.5266 0)
(50.276 12.53 0)
(50.3188 12.5193 0)
(49.7684 12.8333 0)
(49.7053 13.1075 0)
(49.6976 12.9633 0)
(49.6737 12.9752 0)
(49.6819 12.9476 0)
(49.6915 12.9316 0)
(49.7021 12.911 0)
(49.7091 12.8883 0)
(49.7141 12.8633 0)
(49.7184 12.837 0)
(49.7232 12.8097 0)
(49.7293 12.7818 0)
(49.7369 12.7537 0)
(49.7465 12.7258 0)
(49.7581 12.6984 0)
(49.7718 12.6719 0)
(49.7876 12.6467 0)
(49.8054 12.623 0)
(49.8251 12.6013 0)
(49.8464 12.5816 0)
(49.8692 12.5642 0)
(49.8931 12.5492 0)
(49.9179 12.5365 0)
(49.9433 12.5262 0)
(49.969 12.5181 0)
(49.9947 12.5121 0)
(50.0205 12.5081 0)
(50.0459 12.5057 0)
(50.071 12.5048 0)
(50.0957 12.5051 0)
(50.1199 12.5064 0)
(50.1436 12.5084 0)
(50.1669 12.5109 0)
(50.1897 12.5135 0)
(50.2127 12.516 0)
(50.2343 12.5184 0)
(50.2599 12.5195 0)
(50.2744 12.5233 0)
(50.3169 12.5126 0)
(49.7646 12.8362 0)
(49.6983 13.1109 0)
(49.6912 12.9639 0)
(49.6679 12.9792 0)
(49.6771 12.9509 0)
(49.6859 12.9357 0)
(49.6952 12.9148 0)
(49.7006 12.8922 0)
(49.7041 12.8671 0)
(49.707 12.8407 0)
(49.7105 12.8131 0)
(49.7151 12.7849 0)
(49.7214 12.7564 0)
(49.7296 12.7279 0)
(49.7398 12.6997 0)
(49.7522 12.6724 0)
(49.7669 12.6461 0)
(49.7837 12.6214 0)
(49.8025 12.5985 0)
(49.8231 12.5776 0)
(49.8453 12.559 0)
(49.8689 12.5428 0)
(49.8934 12.529 0)
(49.9187 12.5176 0)
(49.9444 12.5086 0)
(49.9703 12.5018 0)
(49.9962 12.497 0)
(50.0219 12.4941 0)
(50.0472 12.4929 0)
(50.0722 12.493 0)
(50.0966 12.4943 0)
(50.1205 12.4965 0)
(50.1439 12.4992 0)
(50.1669 12.5023 0)
(50.1893 12.5055 0)
(50.212 12.5085 0)
(50.2332 12.5114 0)
(50.2586 12.5128 0)
(50.2728 12.517 0)
(50.315 12.5063 0)
(49.7607 12.8391 0)
(49.6916 13.1142 0)
(49.6851 12.9646 0)
(49.6626 12.9833 0)
(49.6726 12.9542 0)
(49.6805 12.9399 0)
(49.6885 12.9188 0)
(49.6925 12.8962 0)
(49.6946 12.8711 0)
(49.6961 12.8445 0)
(49.6981 12.8169 0)
(49.7014 12.7884 0)
(49.7063 12.7595 0)
(49.713 12.7304 0)
(49.7219 12.7016 0)
(49.733 12.6734 0)
(49.7465 12.6462 0)
(49.7622 12.6204 0)
(49.78 12.5963 0)
(49.7999 12.5742 0)
(49.8215 12.5543 0)
(49.8446 12.5369 0)
(49.8688 12.5219 0)
(49.8939 12.5094 0)
(49.9196 12.4993 0)
(49.9457 12.4916 0)
(49.9717 12.4861 0)
(49.9977 12.4826 0)
(50.0234 12.4808 0)
(50.0486 12.4807 0)
(50.0734 12.4818 0)
(50.0975 12.484 0)
(50.1212 12.487 0)
(50.1442 12.4905 0)
(50.1669 12.4942 0)
(50.1889 12.498 0)
(50.2113 12.5015 0)
(50.2321 12.5047 0)
(50.2572 12.5064 0)
(50.2711 12.5109 0)
(50.3131 12.5003 0)
(49.7567 12.8419 0)
(49.6851 13.1174 0)
(49.6794 12.9654 0)
(49.6577 12.9874 0)
(49.6683 12.9576 0)
(49.6754 12.9441 0)
(49.6821 12.9228 0)
(49.6846 12.9003 0)
(49.6853 12.8752 0)
(49.6855 12.8487 0)
(49.6863 12.8209 0)
(49.6881 12.7922 0)
(49.6916 12.763 0)
(49.6969 12.7334 0)
(49.7044 12.7039 0)
(49.7142 12.6749 0)
(49.7263 12.6468 0)
(49.7409 12.6199 0)
(49.7578 12.5947 0)
(49.7768 12.5714 0)
(49.7977 12.5502 0)
(49.8203 12.5315 0)
(49.8442 12.5152 0)
(49.8691 12.5016 0)
(49.8948 12.4904 0)
(49.9209 12.4817 0)
(49.9471 12.4753 0)
(49.9734 12.4711 0)
(49.9993 12.4688 0)
(50.0249 12.4682 0)
(50.05 12.4691 0)
(50.0745 12.4712 0)
(50.0985 12.4743 0)
(50.1218 12.478 0)
(50.1445 12.4822 0)
(50.1668 12.4866 0)
(50.1885 12.4909 0)
(50.2105 12.4948 0)
(50.231 12.4984 0)
(50.2558 12.5004 0)
(50.2695 12.5052 0)
(50.3112 12.4945 0)
(49.7526 12.8448 0)
(49.6788 13.1206 0)
(49.6741 12.9664 0)
(49.6532 12.9916 0)
(49.6644 12.961 0)
(49.6704 12.9483 0)
(49.676 12.9268 0)
(49.677 12.9045 0)
(49.6765 12.8794 0)
(49.6754 12.853 0)
(49.6748 12.8252 0)
(49.6753 12.7963 0)
(49.6773 12.7668 0)
(49.6812 12.7368 0)
(49.6873 12.7067 0)
(49.6957 12.677 0)
(49.7066 12.648 0)
(49.7199 12.6201 0)
(49.7357 12.5937 0)
(49.7538 12.5692 0)
(49.774 12.5468 0)
(49.796 12.5267 0)
(49.8195 12.5092 0)
(49.8442 12.4942 0)
(49.8697 12.4819 0)
(49.8959 12.4721 0)
(49.9223 12.4647 0)
(49.9488 12.4597 0)
(49.9751 12.4567 0)
(50.0011 12.4556 0)
(50.0265 12.4561 0)
(50.0515 12.458 0)
(50.0758 12.4611 0)
(50.0994 12.465 0)
(50.1224 12.4696 0)
(50.1448 12.4744 0)
(50.1667 12.4794 0)
(50.1881 12.4842 0)
(50.2098 12.4885 0)
(50.2299 12.4924 0)
(50.2545 12.4946 0)
(50.2678 12.4997 0)
(50.3093 12.4891 0)
(49.7483 12.8476 0)
(49.6728 13.1237 0)
(49.6691 12.9675 0)
(49.649 12.9959 0)
(49.6607 12.9645 0)
(49.6657 12.9526 0)
(49.67 12.9309 0)
(49.6698 12.9088 0)
(49.668 12.8838 0)
(49.6656 12.8574 0)
(49.6637 12.8296 0)
(49.6629 12.8007 0)
(49.6635 12.7709 0)
(49.666 12.7406 0)
(49.6706 12.71 0)
(49.6776 12.6796 0)
(49.6871 12.6498 0)
(49.6992 12.6209 0)
(49.7139 12.5934 0)
(49.731 12.5676 0)
(49.7503 12.5439 0)
(49.7717 12.5225 0)
(49.7947 12.5036 0)
(49.8191 12.4874 0)
(49.8445 12.4738 0)
(49.8707 12.4628 0)
(49.8973 12.4544 0)
(49.924 12.4484 0)
(49.9506 12.4447 0)
(49.977 12.443 0)
(50.0029 12.443 0)
(50.0282 12.4447 0)
(50.0529 12.4476 0)
(50.077 12.4515 0)
(50.1003 12.4563 0)
(50.123 12.4615 0)
(50.145 12.4671 0)
(50.1666 12.4725 0)
(50.1876 12.4778 0)
(50.209 12.4825 0)
(50.2288 12.4868 0)
(50.2531 12.4892 0)
(50.2662 12.4946 0)
(50.3075 12.4839 0)
(49.7439 12.8504 0)
(49.6671 13.1266 0)
(49.6644 12.9687 0)
(49.6452 13.0001 0)
(49.6572 12.9679 0)
(49.6612 12.9568 0)
(49.6644 12.935 0)
(49.6628 12.9132 0)
(49.6598 12.8883 0)
(49.6563 12.8621 0)
(49.6531 12.8343 0)
(49.6509 12.8054 0)
(49.6502 12.7754 0)
(49.6512 12.7447 0)
(49.6544 12.7137 0)
(49.6599 12.6827 0)
(49.6681 12.6521 0)
(49.6789 12.6223 0)
(49.6923 12.5937 0)
(49.7083 12.5667 0)
(49.7268 12.5417 0)
(49.7474 12.5189 0)
(49.7699 12.4987 0)
(49.7939 12.481 0)
(49.8192 12.4661 0)
(49.8453 12.454 0)
(49.872 12.4444 0)
(49.899 12.4374 0)
(49.9259 12.4328 0)
(49.9526 12.4304 0)
(49.979 12.4299 0)
(50.0048 12.4311 0)
(50.03 12.4338 0)
(50.0545 12.4377 0)
(50.0782 12.4425 0)
(50.1012 12.448 0)
(50.1236 12.454 0)
(50.1453 12.4601 0)
(50.1665 12.4661 0)
(50.1871 12.4718 0)
(50.2082 12.4768 0)
(50.2277 12.4814 0)
(50.2517 12.484 0)
(50.2645 12.4897 0)
(50.3057 12.4789 0)
(49.7394 12.8531 0)
(49.6616 13.1295 0)
(49.66 12.97 0)
(49.6416 13.0044 0)
(49.6539 12.9713 0)
(49.6568 12.9611 0)
(49.6589 12.9392 0)
(49.6561 12.9176 0)
(49.652 12.8929 0)
(49.6473 12.8668 0)
(49.6429 12.8392 0)
(49.6394 12.8102 0)
(49.6373 12.7801 0)
(49.6369 12.7492 0)
(49.6386 12.7178 0)
(49.6427 12.6862 0)
(49.6494 12.6549 0)
(49.6588 12.6242 0)
(49.671 12.5946 0)
(49.6859 12.5664 0)
(49.7033 12.5402 0)
(49.7231 12.516 0)
(49.745 12.4944 0)
(49.7686 12.4753 0)
(49.7936 12.459 0)
(49.8197 12.4455 0)
(49.8465 12.4348 0)
(49.8736 12.4267 0)
(49.9009 12.4211 0)
(49.928 12.4179 0)
(49.9548 12.4167 0)
(49.9811 12.4174 0)
(50.0068 12.4197 0)
(50.0318 12.4234 0)
(50.056 12.4283 0)
(50.0795 12.4339 0)
(50.1022 12.4402 0)
(50.1242 12.4468 0)
(50.1455 12.4535 0)
(50.1664 12.46 0)
(50.1867 12.4661 0)
(50.2074 12.4714 0)
(50.2265 12.4763 0)
(50.2504 12.4791 0)
(50.2629 12.485 0)
(50.3039 12.4742 0)
(49.7348 12.8558 0)
(49.6565 13.1323 0)
(49.6558 12.9713 0)
(49.6384 13.0087 0)
(49.6508 12.9747 0)
(49.6526 12.9653 0)
(49.6537 12.9433 0)
(49.6498 12.922 0)
(49.6446 12.8975 0)
(49.6387 12.8717 0)
(49.6331 12.8442 0)
(49.6284 12.8153 0)
(49.6248 12.7851 0)
(49.623 12.754 0)
(49.6233 12.7223 0)
(49.6259 12.6902 0)
(49.6311 12.6582 0)
(49.6391 12.6267 0)
(49.65 12.5961 0)
(49.6637 12.5668 0)
(49.6801 12.5393 0)
(49.699 12.5138 0)
(49.7201 12.4907 0)
(49.7432 12.4702 0)
(49.7679 12.4525 0)
(49.7939 12.4376 0)
(49.8207 12.4256 0)
(49.848 12.4163 0)
(49.8756 12.4097 0)
(49.9031 12.4055 0)
(49.9303 12.4036 0)
(49.9571 12.4037 0)
(49.9833 12.4056 0)
(50.0088 12.409 0)
(50.0336 12.4136 0)
(50.0575 12.4193 0)
(50.0807 12.4258 0)
(50.1031 12.4328 0)
(50.1247 12.4401 0)
(50.1457 12.4473 0)
(50.1662 12.4542 0)
(50.1862 12.4607 0)
(50.2065 12.4664 0)
(50.2254 12.4715 0)
(50.249 12.4745 0)
(50.2613 12.4806 0)
(50.3021 12.4696 0)
(49.7301 12.8584 0)
(49.6516 13.135 0)
(49.652 12.9728 0)
(49.6355 13.0129 0)
(49.6478 12.9781 0)
(49.6486 12.9695 0)
(49.6487 12.9474 0)
(49.6437 12.9265 0)
(49.6375 12.9022 0)
(49.6305 12.8767 0)
(49.6238 12.8493 0)
(49.6177 12.8205 0)
(49.6129 12.7904 0)
(49.6096 12.7592 0)
(49.6084 12.7271 0)
(49.6095 12.6947 0)
(49.6133 12.6621 0)
(49.6199 12.6298 0)
(49.6293 12.5983 0)
(49.6417 12.5679 0)
(49.657 12.5391 0)
(49.6749 12.5122 0)
(49.6953 12.4877 0)
(49.7178 12.4657 0)
(49.7421 12.4465 0)
(49.7678 12.4302 0)
(49.7946 12.4168 0)
(49.8221 12.4063 0)
(49.8499 12.3985 0)
(49.8778 12.3933 0)
(49.9055 12.3905 0)
(49.9328 12.3899 0)
(49.9595 12.3913 0)
(49.9856 12.3943 0)
(50.0109 12.3987 0)
(50.0354 12.4043 0)
(50.0591 12.4109 0)
(50.082 12.4182 0)
(50.104 12.4258 0)
(50.1253 12.4337 0)
(50.1459 12.4414 0)
(50.1661 12.4488 0)
(50.1857 12.4557 0)
(50.2057 12.4616 0)
(50.2243 12.4669 0)
(50.2477 12.47 0)
(50.2597 12.4764 0)
(50.3004 12.4653 0)
(49.7253 12.8609 0)
(49.647 13.1377 0)
(49.6483 12.9743 0)
(49.6327 13.0171 0)
(49.645 12.9814 0)
(49.6448 12.9737 0)
(49.6439 12.9515 0)
(49.6378 12.931 0)
(49.6307 12.907 0)
(49.6226 12.8817 0)
(49.6148 12.8546 0)
(49.6075 12.8259 0)
(49.6013 12.7958 0)
(49.5967 12.7645 0)
(49.594 12.7323 0)
(49.5937 12.6995 0)
(49.5959 12.6664 0)
(49.601 12.6334 0)
(49.609 12.601 0)
(49.6201 12.5696 0)
(49.6341 12.5396 0)
(49.651 12.5114 0)
(49.6705 12.4854 0)
(49.6923 12.462 0)
(49.7161 12.4412 0)
(49.7416 12.4234 0)
(49.7683 12.4086 0)
(49.7958 12.3967 0)
(49.8239 12.3877 0)
(49.8521 12.3814 0)
(49.8802 12.3777 0)
(49.908 12.3763 0)
(49.9354 12.3769 0)
(49.962 12.3795 0)
(49.9879 12.3836 0)
(50.013 12.389 0)
(50.0373 12.3956 0)
(50.0607 12.4029 0)
(50.0832 12.4109 0)
(50.1049 12.4192 0)
(50.1259 12.4277 0)
(50.1461 12.4359 0)
(50.1659 12.4437 0)
(50.1851 12.4509 0)
(50.2049 12.457 0)
(50.2231 12.4626 0)
(50.2463 12.4658 0)
(50.2581 12.4724 0)
(50.2987 12.4612 0)
(49.7204 12.8633 0)
(49.6427 13.1402 0)
(49.6449 12.9759 0)
(49.6303 13.0212 0)
(49.6424 12.9847 0)
(49.6412 12.9778 0)
(49.6393 12.9555 0)
(49.6323 12.9355 0)
(49.6242 12.9117 0)
(49.6151 12.8868 0)
(49.6062 12.8599 0)
(49.5977 12.8314 0)
(49.5902 12.8014 0)
(49.5842 12.7702 0)
(49.5801 12.7378 0)
(49.5783 12.7047 0)
(49.579 12.6711 0)
(49.5825 12.6375 0)
(49.5891 12.6043 0)
(49.5988 12.5719 0)
(49.6115 12.5407 0)
(49.6272 12.5112 0)
(49.6457 12.4838 0)
(49.6668 12.4589 0)
(49.6901 12.4366 0)
(49.7151 12.4172 0)
(49.7417 12.4009 0)
(49.7693 12.3876 0)
(49.7975 12.3772 0)
(49.8261 12.3698 0)
(49.8546 12.365 0)
(49.8829 12.3627 0)
(49.9108 12.3626 0)
(49.9381 12.3646 0)
(49.9646 12.3682 0)
(49.9903 12.3734 0)
(50.0152 12.3798 0)
(50.0392 12.3872 0)
(50.0623 12.3954 0)
(50.0845 12.4041 0)
(50.1058 12.413 0)
(50.1264 12.422 0)
(50.1463 12.4307 0)
(50.1657 12.4389 0)
(50.1846 12.4463 0)
(50.2041 12.4528 0)
(50.222 12.4586 0)
(50.245 12.4618 0)
(50.2566 12.4686 0)
(50.2971 12.4573 0)
(49.7154 12.8657 0)
(49.6388 13.1426 0)
(49.6417 12.9775 0)
(49.628 13.0252 0)
(49.6398 12.9879 0)
(49.6377 12.9818 0)
(49.635 12.9596 0)
(49.627 12.94 0)
(49.618 12.9165 0)
(49.608 12.8919 0)
(49.598 12.8653 0)
(49.5883 12.837 0)
(49.5796 12.8072 0)
(49.5722 12.776 0)
(49.5667 12.7436 0)
(49.5633 12.7102 0)
(49.5625 12.6763 0)
(49.5646 12.6421 0)
(49.5696 12.6082 0)
(49.5778 12.5748 0)
(49.5892 12.5425 0)
(49.6037 12.5118 0)
(49.6211 12.483 0)
(49.6413 12.4565 0)
(49.6639 12.4327 0)
(49.6885 12.4117 0)
(49.7148 12.3938 0)
(49.7424 12.379 0)
(49.7707 12.3672 0)
(49.7996 12.3585 0)
(49.8286 12.3525 0)
(49.8574 12.3492 0)
(49.8859 12.3484 0)
(49.9137 12.3496 0)
(49.9409 12.3528 0)
(49.9673 12.3576 0)
(49.9928 12.3638 0)
(50.0174 12.3711 0)
(50.0411 12.3793 0)
(50.0639 12.3883 0)
(50.0857 12.3976 0)
(50.1067 12.4072 0)
(50.127 12.4166 0)
(50.1465 12.4258 0)
(50.1656 12.4343 0)
(50.1841 12.4421 0)
(50.2033 12.4487 0)
(50.2209 12.4547 0)
(50.2437 12.458 0)
(50.2551 12.4651 0)
(50.2954 12.4535 0)
(49.7103 12.868 0)
(49.6351 13.1449 0)
(49.6387 12.9792 0)
(49.6259 13.0291 0)
(49.6374 12.9911 0)
(49.6344 12.9858 0)
(49.6308 12.9635 0)
(49.622 12.9445 0)
(49.6122 12.9213 0)
(49.6012 12.8971 0)
(49.5901 12.8707 0)
(49.5793 12.8428 0)
(49.5694 12.8131 0)
(49.5607 12.782 0)
(49.5537 12.7496 0)
(49.5489 12.7161 0)
(49.5466 12.6819 0)
(49.547 12.6472 0)
(49.5505 12.6126 0)
(49.5572 12.5783 0)
(49.5671 12.545 0)
(49.5803 12.513 0)
(49.5966 12.4829 0)
(49.6158 12.4549 0)
(49.6377 12.4295 0)
(49.6618 12.4069 0)
(49.6877 12.3873 0)
(49.7152 12.3709 0)
(49.7436 12.3577 0)
(49.7727 12.3476 0)
(49.8021 12.3404 0)
(49.8314 12.336 0)
(49.8604 12.3342 0)
(49.889 12.3347 0)
(49.9168 12.3373 0)
(49.9438 12.3416 0)
(49.97 12.3475 0)
(49.9953 12.3546 0)
(50.0196 12.3629 0)
(50.043 12.3719 0)
(50.0654 12.3815 0)
(50.087 12.3915 0)
(50.1076 12.4016 0)
(50.1275 12.4116 0)
(50.1466 12.4211 0)
(50.1654 12.43 0)
(50.1836 12.4381 0)
(50.2025 12.4449 0)
(50.2198 12.451 0)
(50.2425 12.4544 0)
(50.2536 12.4616 0)
(50.2939 12.4499 0)
(49.7052 12.8703 0)
(49.6317 13.1472 0)
(49.6359 12.9809 0)
(49.624 13.033 0)
(49.6351 12.9942 0)
(49.6312 12.9898 0)
(49.6269 12.9675 0)
(49.6172 12.9489 0)
(49.6066 12.9261 0)
(49.5947 12.9022 0)
(49.5827 12.8762 0)
(49.5708 12.8486 0)
(49.5596 12.8192 0)
(49.5496 12.7882 0)
(49.5413 12.7558 0)
(49.535 12.7223 0)
(49.5311 12.6878 0)
(49.53 12.6527 0)
(49.5319 12.6175 0)
(49.537 12.5825 0)
(49.5455 12.5482 0)
(49.5573 12.515 0)
(49.5723 12.4835 0)
(49.5905 12.454 0)
(49.6114 12.427 0)
(49.6349 12.4028 0)
(49.6604 12.3816 0)
(49.6877 12.3635 0)
(49.7161 12.3487 0)
(49.7454 12.3371 0)
(49.7752 12.3286 0)
(49.805 12.3231 0)
(49.8346 12.3202 0)
(49.8637 12.3198 0)
(49.8922 12.3217 0)
(49.9199 12.3255 0)
(49.9468 12.331 0)
(49.9728 12.3379 0)
(49.9978 12.346 0)
(50.0218 12.355 0)
(50.0449 12.3649 0)
(50.067 12.3752 0)
(50.0882 12.3858 0)
(50.1085 12.3964 0)
(50.128 12.4068 0)
(50.1468 12.4168 0)
(50.1652 12.426 0)
(50.1831 12.4343 0)
(50.2017 12.4412 0)
(50.2187 12.4475 0)
(50.2412 12.451 0)
(50.2521 12.4584 0)
(50.2923 12.4464 0)
(49.7 12.8724 0)
(49.6286 13.1493 0)
(49.6332 12.9827 0)
(49.6223 13.0367 0)
(49.6329 12.9972 0)
(49.6282 12.9936 0)
(49.6231 12.9714 0)
(49.6127 12.9533 0)
(49.6013 12.9308 0)
(49.5885 12.9074 0)
(49.5755 12.8817 0)
(49.5626 12.8544 0)
(49.5503 12.8253 0)
(49.539 12.7945 0)
(49.5293 12.7622 0)
(49.5216 12.7287 0)
(49.5162 12.694 0)
(49.5134 12.6586 0)
(49.5137 12.6229 0)
(49.5173 12.5872 0)
(49.5242 12.5519 0)
(49.5345 12.5176 0)
(49.5482 12.4848 0)
(49.5652 12.4539 0)
(49.5852 12.4253 0)
(49.6079 12.3994 0)
(49.633 12.3765 0)
(49.6599 12.3568 0)
(49.6883 12.3403 0)
(49.7177 12.3272 0)
(49.7477 12.3172 0)
(49.778 12.3104 0)
(49.8082 12.3064 0)
(49.838 12.3051 0)
(49.8672 12.3062 0)
(49.8956 12.3093 0)
(49.9232 12.3143 0)
(49.9499 12.3209 0)
(49.9756 12.3288 0)
(50.0003 12.3378 0)
(50.0241 12.3477 0)
(50.0468 12.3582 0)
(50.0686 12.3692 0)
(50.0894 12.3804 0)
(50.1093 12.3915 0)
(50.1285 12.4024 0)
(50.1469 12.4127 0)
(50.165 12.4221 0)
(50.1825 12.4307 0)
(50.2009 12.4378 0)