/*--------------------------------*- C++ -*----------------------------------*\
  =========                 |
  \\      /  F ield         | OpenFOAM: The Open Source CFD Toolbox
   \\    /   O peration     | Website:  https://openfoam.org
    \\  /    A nd           | Version:  7
     \\/     M anipulation  |
\*---------------------------------------------------------------------------*/
FoamFile
{
    version     2.0;
    format      ascii;
    class       volScalarField;
    location    "1400";
    object      yPlus;
}
// * * * * * * * * * * * * * * * * * * * * * * * * * * * * * * * * * * * * * //

dimensions      [0 0 0 0 0 0 0];

internalField   uniform 0;

boundaryField
{
    inlet-l
    {
        type            calculated;
        value           uniform 0;
    }
    airfoil-l1
    {
        type            calculated;
        value           nonuniform 0();
    }
    empty-1
    {
        type            empty;
    }
    empty-2
    {
        type            empty;
    }
    wall-l1
    {
        type            calculated;
        value           nonuniform List<scalar> 
67
(
135.349
135.204
134.856
134.56
134.318
134.085
133.84
133.598
133.36
133.13
132.903
132.68
132.467
132.257
132.045
131.837
131.641
131.446
131.249
131.057
130.875
130.695
130.511
130.338
130.169
130.002
129.84
129.673
129.518
129.366
129.214
129.071
128.926
128.788
128.644
128.512
128.383
128.254
128.131
128.011
127.893
127.778
127.666
127.557
127.452
127.347
127.245
127.147
127.051
126.958
126.868
126.778
126.694
126.61
126.529
126.451
126.375
126.301
126.232
126.156
126.09
126.026
125.963
125.906
125.846
125.792
125.74
)
;
    }
    airfoil-l2
    {
        type            calculated;
        value           nonuniform List<scalar> 
66
(
21.6354
21.9081
22.1375
22.3327
22.5007
22.6454
22.7757
22.8919
22.9926
23.0817
23.1597
23.2294
23.2954
23.3524
23.4036
23.4497
23.4912
23.5286
23.5638
23.5956
23.6219
23.6492
23.6717
23.6931
23.7136
23.7296
23.7439
23.7578
23.7699
23.7781
23.7887
23.7956
23.801
23.8053
23.81
23.8163
23.818
23.8137
23.8131
23.8163
23.8132
23.8114
23.8085
23.8019
23.7944
23.7885
23.7812
23.7703
23.7581
23.7449
23.7323
23.7206
23.7047
23.6843
23.6617
23.6368
23.6087
23.5773
23.5432
23.5047
23.4596
23.4048
23.3458
23.2567
23.2085
22.8667
)
;
    }
    empty-3
    {
        type            empty;
    }
    empty-4
    {
        type            empty;
    }
    wall-l2
    {
        type            calculated;
        value           nonuniform List<scalar> 
74
(
125.626
125.539
125.475
125.399
125.33
125.282
125.253
125.241
125.246
125.269
125.311
125.372
125.453
125.553
125.673
125.813
125.973
126.154
126.355
126.576
126.817
127.077
127.357
127.655
127.971
128.304
128.653
129.017
129.394
129.784
130.185
130.595
131.012
131.434
131.859
132.285
132.708
133.127
133.538
133.939
134.325
134.694
135.041
135.363
135.656
135.915
136.135
136.313
136.441
136.516
136.532
136.481
136.358
136.156
135.866
135.482
134.993
134.391
133.665
132.802
131.789
130.611
129.252
127.691
125.905
123.867
121.547
118.914
115.933
112.604
108.956
105.344
102.55
102.398
)
;
    }
    outlet-l
    {
        type            calculated;
        value           uniform 0;
    }
    empty-5
    {
        type            empty;
    }
    empty-6
    {
        type            empty;
    }
    outlet-h
    {
        type            calculated;
        value           nonuniform 0();
    }
    wall-h2
    {
        type            calculated;
        value           nonuniform 0();
    }
    empty-7
    {
        type            empty;
    }
    empty-8
    {
        type            empty;
    }
    airfoil-h2
    {
        type            calculated;
        value           nonuniform 0();
    }
    wall-h1
    {
        type            calculated;
        value           nonuniform 0();
    }
    empty-9
    {
        type            empty;
    }
    empty-10
    {
        type            empty;
    }
    inlet-h
    {
        type            calculated;
        value           nonuniform 0();
    }
    airfoil-h1
    {
        type            calculated;
        value           nonuniform 0();
    }
    empty-11
    {
        type            empty;
    }
    empty-12
    {
        type            empty;
    }
    procBoundary1to0
    {
        type            processor;
        value           uniform 0;
    }
    procBoundary1to2
    {
        type            processor;
        value           uniform 0;
    }
}


// ************************************************************************* //
