/*--------------------------------*- C++ -*----------------------------------*\
  =========                 |
  \\      /  F ield         | OpenFOAM: The Open Source CFD Toolbox
   \\    /   O peration     | Website:  https://openfoam.org
    \\  /    A nd           | Version:  7
     \\/     M anipulation  |
\*---------------------------------------------------------------------------*/
FoamFile
{
    version     2.0;
    format      ascii;
    class       volScalarField;
    location    "1600";
    object      nut;
}
// * * * * * * * * * * * * * * * * * * * * * * * * * * * * * * * * * * * * * //

dimensions      [0 2 -1 0 0 0 0];

internalField   nonuniform List<scalar> 
23052
(
5.20708e-06
5.20677e-06
5.20788e-06
5.20675e-06
5.20793e-06
5.20893e-06
5.20681e-06
5.20785e-06
5.20866e-06
5.20893e-06
5.20685e-06
5.2078e-06
5.20846e-06
5.20869e-06
5.20838e-06
5.20793e-06
5.20684e-06
5.20769e-06
5.20825e-06
5.20842e-06
5.20815e-06
5.20781e-06
5.20806e-06
5.20907e-06
5.20681e-06
5.20757e-06
5.20804e-06
5.20818e-06
5.20795e-06
5.20774e-06
5.20813e-06
5.20914e-06
5.21055e-06
5.20678e-06
5.20745e-06
5.20785e-06
5.20797e-06
5.20779e-06
5.20771e-06
5.20823e-06
5.20928e-06
5.21061e-06
5.21205e-06
5.20673e-06
5.20733e-06
5.20768e-06
5.20778e-06
5.20766e-06
5.20772e-06
5.20836e-06
5.20944e-06
5.21073e-06
5.21209e-06
5.21347e-06
5.20669e-06
5.20721e-06
5.20752e-06
5.20762e-06
5.20756e-06
5.20777e-06
5.2085e-06
5.2096e-06
5.21086e-06
5.21218e-06
5.21349e-06
5.21479e-06
5.20665e-06
5.20711e-06
5.20739e-06
5.20748e-06
5.2075e-06
5.20787e-06
5.20866e-06
5.20976e-06
5.21099e-06
5.21227e-06
5.21354e-06
5.2148e-06
5.21604e-06
5.20662e-06
5.20703e-06
5.20728e-06
5.20738e-06
5.2075e-06
5.20798e-06
5.20884e-06
5.20993e-06
5.21112e-06
5.21236e-06
5.21359e-06
5.21482e-06
5.21603e-06
5.21722e-06
5.20661e-06
5.20697e-06
5.20719e-06
5.20732e-06
5.20754e-06
5.20813e-06
5.20902e-06
5.21009e-06
5.21125e-06
5.21245e-06
5.21365e-06
5.21485e-06
5.21604e-06
5.2172e-06
5.21833e-06
5.20661e-06
5.20693e-06
5.20713e-06
5.20729e-06
5.20763e-06
5.20829e-06
5.2092e-06
5.21025e-06
5.21138e-06
5.21254e-06
5.21372e-06
5.21489e-06
5.21605e-06
5.21719e-06
5.21831e-06
5.21938e-06
5.20665e-06
5.20691e-06
5.2071e-06
5.20732e-06
5.20776e-06
5.20847e-06
5.20938e-06
5.21041e-06
5.21151e-06
5.21264e-06
5.21378e-06
5.21492e-06
5.21606e-06
5.21718e-06
5.21828e-06
5.21935e-06
5.22036e-06
5.20669e-06
5.20691e-06
5.20711e-06
5.2074e-06
5.20791e-06
5.20866e-06
5.20956e-06
5.21057e-06
5.21164e-06
5.21274e-06
5.21385e-06
5.21497e-06
5.21608e-06
5.21718e-06
5.21826e-06
5.21931e-06
5.22033e-06
5.22128e-06
5.20673e-06
5.20693e-06
5.20716e-06
5.20752e-06
5.20808e-06
5.20884e-06
5.20973e-06
5.21072e-06
5.21176e-06
5.21283e-06
5.21392e-06
5.21502e-06
5.21611e-06
5.21718e-06
5.21824e-06
5.21927e-06
5.22027e-06
5.22125e-06
5.22215e-06
5.20677e-06
5.20697e-06
5.20724e-06
5.20766e-06
5.20826e-06
5.20902e-06
5.2099e-06
5.21086e-06
5.21188e-06
5.21293e-06
5.214e-06
5.21507e-06
5.21614e-06
5.21719e-06
5.21823e-06
5.21924e-06
5.22023e-06
5.22119e-06
5.22211e-06
5.22297e-06
5.2068e-06
5.20703e-06
5.20736e-06
5.20782e-06
5.20843e-06
5.20919e-06
5.21006e-06
5.211e-06
5.212e-06
5.21303e-06
5.21407e-06
5.21512e-06
5.21617e-06
5.21721e-06
5.21823e-06
5.21922e-06
5.22019e-06
5.22113e-06
5.22204e-06
5.22292e-06
5.22374e-06
5.20682e-06
5.20712e-06
5.20748e-06
5.20797e-06
5.20859e-06
5.20935e-06
5.21021e-06
5.21114e-06
5.21211e-06
5.21312e-06
5.21415e-06
5.21518e-06
5.21621e-06
5.21723e-06
5.21823e-06
5.2192e-06
5.22016e-06
5.22108e-06
5.22198e-06
5.22285e-06
5.22369e-06
5.22446e-06
5.20685e-06
5.2072e-06
5.2076e-06
5.20811e-06
5.20875e-06
5.2095e-06
5.21035e-06
5.21127e-06
5.21223e-06
5.21322e-06
5.21423e-06
5.21524e-06
5.21625e-06
5.21725e-06
5.21823e-06
5.21919e-06
5.22013e-06
5.22104e-06
5.22193e-06
5.22279e-06
5.22362e-06
5.22441e-06
5.22514e-06
5.20687e-06
5.20728e-06
5.20771e-06
5.20824e-06
5.20889e-06
5.20965e-06
5.21049e-06
5.2114e-06
5.21234e-06
5.21332e-06
5.21431e-06
5.2153e-06
5.21629e-06
5.21727e-06
5.21824e-06
5.21919e-06
5.22011e-06
5.22101e-06
5.22188e-06
5.22273e-06
5.22354e-06
5.22433e-06
5.22509e-06
5.22578e-06
5.20689e-06
5.20734e-06
5.20782e-06
5.20837e-06
5.20903e-06
5.20979e-06
5.21063e-06
5.21152e-06
5.21245e-06
5.21341e-06
5.21439e-06
5.21537e-06
5.21634e-06
5.2173e-06
5.21825e-06
5.21918e-06
5.22009e-06
5.22098e-06
5.22184e-06
5.22267e-06
5.22348e-06
5.22426e-06
5.22501e-06
5.22573e-06
5.22638e-06
5.20691e-06
5.20741e-06
5.20791e-06
5.20849e-06
5.20916e-06
5.20992e-06
5.21076e-06
5.21164e-06
5.21256e-06
5.21351e-06
5.21447e-06
5.21543e-06
5.21639e-06
5.21734e-06
5.21827e-06
5.21918e-06
5.22008e-06
5.22095e-06
5.2218e-06
5.22262e-06
5.22342e-06
5.22419e-06
5.22493e-06
5.22564e-06
5.22633e-06
5.22694e-06
5.20693e-06
5.20747e-06
5.20801e-06
5.20861e-06
5.20929e-06
5.21005e-06
5.21088e-06
5.21176e-06
5.21267e-06
5.2136e-06
5.21455e-06
5.21549e-06
5.21644e-06
5.21737e-06
5.21829e-06
5.21919e-06
5.22007e-06
5.22093e-06
5.22177e-06
5.22258e-06
5.22337e-06
5.22413e-06
5.22486e-06
5.22556e-06
5.22624e-06
5.22689e-06
5.22747e-06
5.20695e-06
5.20753e-06
5.20809e-06
5.20871e-06
5.20941e-06
5.21018e-06
5.211e-06
5.21187e-06
5.21277e-06
5.2137e-06
5.21463e-06
5.21556e-06
5.21649e-06
5.21741e-06
5.21831e-06
5.2192e-06
5.22007e-06
5.22092e-06
5.22174e-06
5.22254e-06
5.22332e-06
5.22407e-06
5.2248e-06
5.22549e-06
5.22616e-06
5.2268e-06
5.22742e-06
5.22797e-06
5.20697e-06
5.20758e-06
5.20817e-06
5.20882e-06
5.20952e-06
5.21029e-06
5.21112e-06
5.21198e-06
5.21288e-06
5.21379e-06
5.21471e-06
5.21563e-06
5.21654e-06
5.21745e-06
5.21834e-06
5.21921e-06
5.22007e-06
5.22091e-06
5.22172e-06
5.22251e-06
5.22328e-06
5.22402e-06
5.22473e-06
5.22542e-06
5.22608e-06
5.22672e-06
5.22733e-06
5.22792e-06
5.22844e-06
5.20698e-06
5.20763e-06
5.20825e-06
5.20891e-06
5.20963e-06
5.21041e-06
5.21123e-06
5.21209e-06
5.21298e-06
5.21388e-06
5.21479e-06
5.21569e-06
5.21659e-06
5.21749e-06
5.21836e-06
5.21923e-06
5.22007e-06
5.2209e-06
5.2217e-06
5.22248e-06
5.22324e-06
5.22397e-06
5.22468e-06
5.22536e-06
5.22601e-06
5.22664e-06
5.22725e-06
5.22783e-06
5.22839e-06
5.22888e-06
5.20699e-06
5.20767e-06
5.20832e-06
5.20901e-06
5.20974e-06
5.21052e-06
5.21134e-06
5.2122e-06
5.21308e-06
5.21397e-06
5.21486e-06
5.21576e-06
5.21665e-06
5.21753e-06
5.21839e-06
5.21925e-06
5.22008e-06
5.22089e-06
5.22169e-06
5.22246e-06
5.22321e-06
5.22393e-06
5.22463e-06
5.2253e-06
5.22595e-06
5.22657e-06
5.22717e-06
5.22775e-06
5.2283e-06
5.22883e-06
5.2293e-06
5.20701e-06
5.20772e-06
5.20839e-06
5.20909e-06
5.20983e-06
5.21062e-06
5.21145e-06
5.2123e-06
5.21317e-06
5.21405e-06
5.21494e-06
5.21582e-06
5.2167e-06
5.21757e-06
5.21843e-06
5.21927e-06
5.22009e-06
5.22089e-06
5.22168e-06
5.22244e-06
5.22318e-06
5.22389e-06
5.22458e-06
5.22525e-06
5.22589e-06
5.22651e-06
5.2271e-06
5.22767e-06
5.22822e-06
5.22874e-06
5.22924e-06
5.22969e-06
5.20702e-06
5.20776e-06
5.20846e-06
5.20918e-06
5.20993e-06
5.21072e-06
5.21155e-06
5.2124e-06
5.21326e-06
5.21414e-06
5.21502e-06
5.21589e-06
5.21676e-06
5.21762e-06
5.21846e-06
5.21929e-06
5.2201e-06
5.2209e-06
5.22167e-06
5.22242e-06
5.22315e-06
5.22386e-06
5.22454e-06
5.2252e-06
5.22583e-06
5.22644e-06
5.22703e-06
5.2276e-06
5.22814e-06
5.22866e-06
5.22916e-06
5.22964e-06
5.23006e-06
5.20703e-06
5.2078e-06
5.20852e-06
5.20925e-06
5.21002e-06
5.21082e-06
5.21165e-06
5.21249e-06
5.21335e-06
5.21422e-06
5.21509e-06
5.21596e-06
5.21681e-06
5.21766e-06
5.2185e-06
5.21932e-06
5.22012e-06
5.2209e-06
5.22167e-06
5.22241e-06
5.22313e-06
5.22383e-06
5.2245e-06
5.22515e-06
5.22578e-06
5.22639e-06
5.22697e-06
5.22753e-06
5.22807e-06
5.22858e-06
5.22908e-06
5.22955e-06
5.23e-06
5.2304e-06
5.20704e-06
5.20783e-06
5.20858e-06
5.20933e-06
5.21011e-06
5.21091e-06
5.21174e-06
5.21259e-06
5.21344e-06
5.2143e-06
5.21516e-06
5.21602e-06
5.21687e-06
5.21771e-06
5.21853e-06
5.21934e-06
5.22014e-06
5.22091e-06
5.22167e-06
5.2224e-06
5.22311e-06
5.2238e-06
5.22447e-06
5.22511e-06
5.22573e-06
5.22633e-06
5.22691e-06
5.22747e-06
5.228e-06
5.22851e-06
5.229e-06
5.22947e-06
5.22992e-06
5.23035e-06
5.23073e-06
5.20705e-06
5.20787e-06
5.20863e-06
5.2094e-06
5.21019e-06
5.211e-06
5.21183e-06
5.21268e-06
5.21353e-06
5.21438e-06
5.21524e-06
5.21608e-06
5.21693e-06
5.21775e-06
5.21857e-06
5.21937e-06
5.22016e-06
5.22092e-06
5.22167e-06
5.22239e-06
5.2231e-06
5.22378e-06
5.22444e-06
5.22508e-06
5.22569e-06
5.22628e-06
5.22686e-06
5.22741e-06
5.22793e-06
5.22844e-06
5.22893e-06
5.2294e-06
5.22984e-06
5.23027e-06
5.23068e-06
5.23104e-06
5.20706e-06
5.2079e-06
5.20868e-06
5.20947e-06
5.21027e-06
5.21108e-06
5.21192e-06
5.21276e-06
5.21361e-06
5.21446e-06
5.21531e-06
5.21615e-06
5.21698e-06
5.2178e-06
5.21861e-06
5.2194e-06
5.22018e-06
5.22094e-06
5.22167e-06
5.22239e-06
5.22309e-06
5.22376e-06
5.22441e-06
5.22504e-06
5.22565e-06
5.22624e-06
5.22681e-06
5.22735e-06
5.22787e-06
5.22838e-06
5.22886e-06
5.22932e-06
5.22977e-06
5.23019e-06
5.2306e-06
5.23099e-06
5.23133e-06
5.20707e-06
5.20793e-06
5.20873e-06
5.20953e-06
5.21034e-06
5.21117e-06
5.212e-06
5.21285e-06
5.21369e-06
5.21454e-06
5.21538e-06
5.21621e-06
5.21704e-06
5.21785e-06
5.21865e-06
5.21944e-06
5.2202e-06
5.22095e-06
5.22168e-06
5.22239e-06
5.22308e-06
5.22374e-06
5.22439e-06
5.22501e-06
5.22562e-06
5.2262e-06
5.22676e-06
5.2273e-06
5.22782e-06
5.22832e-06
5.2288e-06
5.22926e-06
5.2297e-06
5.23012e-06
5.23053e-06
5.23091e-06
5.23128e-06
5.2316e-06
5.20708e-06
5.20796e-06
5.20878e-06
5.2096e-06
5.21042e-06
5.21125e-06
5.21208e-06
5.21293e-06
5.21377e-06
5.21461e-06
5.21545e-06
5.21628e-06
5.21709e-06
5.2179e-06
5.21869e-06
5.21947e-06
5.22023e-06
5.22097e-06
5.22169e-06
5.22239e-06
5.22307e-06
5.22373e-06
5.22437e-06
5.22499e-06
5.22558e-06
5.22616e-06
5.22672e-06
5.22725e-06
5.22777e-06
5.22826e-06
5.22874e-06
5.22919e-06
5.22963e-06
5.23005e-06
5.23045e-06
5.23084e-06
5.23121e-06
5.23156e-06
5.23186e-06
5.20708e-06
5.20799e-06
5.20883e-06
5.20966e-06
5.21048e-06
5.21132e-06
5.21216e-06
5.213e-06
5.21385e-06
5.21468e-06
5.21552e-06
5.21634e-06
5.21715e-06
5.21795e-06
5.21874e-06
5.2195e-06
5.22026e-06
5.22099e-06
5.2217e-06
5.22239e-06
5.22307e-06
5.22372e-06
5.22435e-06
5.22496e-06
5.22555e-06
5.22613e-06
5.22668e-06
5.22721e-06
5.22772e-06
5.22821e-06
5.22868e-06
5.22913e-06
5.22957e-06
5.22998e-06
5.23038e-06
5.23077e-06
5.23113e-06
5.23148e-06
5.23181e-06
5.2321e-06
5.20709e-06
5.20801e-06
5.20887e-06
5.20971e-06
5.21055e-06
5.21139e-06
5.21224e-06
5.21308e-06
5.21392e-06
5.21476e-06
5.21558e-06
5.2164e-06
5.21721e-06
5.218e-06
5.21878e-06
5.21954e-06
5.22028e-06
5.22101e-06
5.22171e-06
5.2224e-06
5.22307e-06
5.22371e-06
5.22434e-06
5.22494e-06
5.22553e-06
5.22609e-06
5.22664e-06
5.22717e-06
5.22767e-06
5.22816e-06
5.22863e-06
5.22908e-06
5.22951e-06
5.22992e-06
5.23032e-06
5.2307e-06
5.23106e-06
5.23141e-06
5.23174e-06
5.23206e-06
5.23233e-06
5.2071e-06
5.20804e-06
5.20891e-06
5.20977e-06
5.21061e-06
5.21146e-06
5.21231e-06
5.21315e-06
5.21399e-06
5.21483e-06
5.21565e-06
5.21646e-06
5.21726e-06
5.21805e-06
5.21882e-06
5.21958e-06
5.22031e-06
5.22103e-06
5.22173e-06
5.22241e-06
5.22307e-06
5.22371e-06
5.22433e-06
5.22493e-06
5.22551e-06
5.22607e-06
5.22661e-06
5.22713e-06
5.22763e-06
5.22811e-06
5.22858e-06
5.22902e-06
5.22945e-06
5.22986e-06
5.23026e-06
5.23064e-06
5.231e-06
5.23134e-06
5.23167e-06
5.23199e-06
5.23228e-06
5.23254e-06
5.2071e-06
5.20806e-06
5.20895e-06
5.20982e-06
5.21067e-06
5.21153e-06
5.21238e-06
5.21323e-06
5.21406e-06
5.2149e-06
5.21572e-06
5.21653e-06
5.21732e-06
5.2181e-06
5.21887e-06
5.21961e-06
5.22034e-06
5.22105e-06
5.22174e-06
5.22242e-06
5.22307e-06
5.2237e-06
5.22432e-06
5.22491e-06
5.22549e-06
5.22604e-06
5.22658e-06
5.22709e-06
5.22759e-06
5.22807e-06
5.22853e-06
5.22897e-06
5.2294e-06
5.22981e-06
5.2302e-06
5.23057e-06
5.23093e-06
5.23128e-06
5.2316e-06
5.23192e-06
5.23221e-06
5.2325e-06
5.23274e-06
5.20711e-06
5.20808e-06
5.20899e-06
5.20987e-06
5.21073e-06
5.21159e-06
5.21245e-06
5.2133e-06
5.21413e-06
5.21496e-06
5.21578e-06
5.21659e-06
5.21738e-06
5.21815e-06
5.21891e-06
5.21965e-06
5.22037e-06
5.22108e-06
5.22176e-06
5.22243e-06
5.22308e-06
5.2237e-06
5.22431e-06
5.2249e-06
5.22547e-06
5.22602e-06
5.22655e-06
5.22706e-06
5.22755e-06
5.22803e-06
5.22849e-06
5.22893e-06
5.22935e-06
5.22975e-06
5.23014e-06
5.23052e-06
5.23087e-06
5.23121e-06
5.23154e-06
5.23185e-06
5.23215e-06
5.23243e-06
5.2327e-06
5.23293e-06
5.20711e-06
5.2081e-06
5.20902e-06
5.20991e-06
5.21079e-06
5.21166e-06
5.21251e-06
5.21336e-06
5.2142e-06
5.21503e-06
5.21585e-06
5.21665e-06
5.21743e-06
5.2182e-06
5.21895e-06
5.21969e-06
5.2204e-06
5.2211e-06
5.22178e-06
5.22244e-06
5.22308e-06
5.2237e-06
5.22431e-06
5.22489e-06
5.22546e-06
5.226e-06
5.22653e-06
5.22703e-06
5.22752e-06
5.22799e-06
5.22845e-06
5.22888e-06
5.2293e-06
5.2297e-06
5.23009e-06
5.23046e-06
5.23082e-06
5.23116e-06
5.23148e-06
5.23179e-06
5.23208e-06
5.23237e-06
5.23264e-06
5.23289e-06
5.23311e-06
5.20712e-06
5.20812e-06
5.20905e-06
5.20996e-06
5.21084e-06
5.21172e-06
5.21258e-06
5.21343e-06
5.21427e-06
5.2151e-06
5.21591e-06
5.21671e-06
5.21749e-06
5.21825e-06
5.219e-06
5.21973e-06
5.22044e-06
5.22113e-06
5.2218e-06
5.22246e-06
5.22309e-06
5.22371e-06
5.22431e-06
5.22488e-06
5.22544e-06
5.22598e-06
5.2265e-06
5.22701e-06
5.22749e-06
5.22796e-06
5.22841e-06
5.22884e-06
5.22926e-06
5.22966e-06
5.23004e-06
5.23041e-06
5.23076e-06
5.2311e-06
5.23142e-06
5.23173e-06
5.23202e-06
5.2323e-06
5.23257e-06
5.23283e-06
5.23307e-06
5.23328e-06
5.20712e-06
5.20814e-06
5.20909e-06
5.21e-06
5.2109e-06
5.21178e-06
5.21264e-06
5.2135e-06
5.21434e-06
5.21516e-06
5.21597e-06
5.21676e-06
5.21754e-06
5.2183e-06
5.21904e-06
5.21977e-06
5.22047e-06
5.22116e-06
5.22182e-06
5.22247e-06
5.2231e-06
5.22371e-06
5.22431e-06
5.22488e-06
5.22543e-06
5.22597e-06
5.22648e-06
5.22698e-06
5.22746e-06
5.22793e-06
5.22837e-06
5.2288e-06
5.22922e-06
5.22961e-06
5.23e-06
5.23036e-06
5.23071e-06
5.23104e-06
5.23136e-06
5.23167e-06
5.23196e-06
5.23224e-06
5.23251e-06
5.23277e-06
5.23301e-06
5.23324e-06
5.23344e-06
5.20713e-06
5.20816e-06
5.20912e-06
5.21004e-06
5.21095e-06
5.21183e-06
5.2127e-06
5.21356e-06
5.2144e-06
5.21522e-06
5.21603e-06
5.21682e-06
5.21759e-06
5.21835e-06
5.21909e-06
5.2198e-06
5.2205e-06
5.22119e-06
5.22185e-06
5.22249e-06
5.22312e-06
5.22372e-06
5.22431e-06
5.22488e-06
5.22543e-06
5.22596e-06
5.22647e-06
5.22696e-06
5.22744e-06
5.2279e-06
5.22834e-06
5.22877e-06
5.22918e-06
5.22957e-06
5.22995e-06
5.23031e-06
5.23066e-06
5.23099e-06
5.23131e-06
5.23162e-06
5.23191e-06
5.23219e-06
5.23245e-06
5.23271e-06
5.23295e-06
5.23319e-06
5.23341e-06
5.2336e-06
5.20713e-06
5.20818e-06
5.20915e-06
5.21009e-06
5.211e-06
5.21189e-06
5.21276e-06
5.21362e-06
5.21446e-06
5.21528e-06
5.21609e-06
5.21688e-06
5.21765e-06
5.2184e-06
5.21913e-06
5.21984e-06
5.22054e-06
5.22122e-06
5.22187e-06
5.22251e-06
5.22313e-06
5.22373e-06
5.22431e-06
5.22488e-06
5.22542e-06
5.22595e-06
5.22645e-06
5.22694e-06
5.22742e-06
5.22787e-06
5.22831e-06
5.22874e-06
5.22914e-06
5.22953e-06
5.22991e-06
5.23027e-06
5.23062e-06
5.23095e-06
5.23126e-06
5.23156e-06
5.23185e-06
5.23213e-06
5.2324e-06
5.23265e-06
5.23289e-06
5.23313e-06
5.23335e-06
5.23356e-06
5.23374e-06
5.20714e-06
5.20819e-06
5.20918e-06
5.21013e-06
5.21104e-06
5.21194e-06
5.21282e-06
5.21368e-06
5.21452e-06
5.21534e-06
5.21615e-06
5.21693e-06
5.2177e-06
5.21845e-06
5.21917e-06
5.21988e-06
5.22057e-06
5.22125e-06
5.2219e-06
5.22253e-06
5.22315e-06
5.22374e-06
5.22432e-06
5.22488e-06
5.22542e-06
5.22594e-06
5.22644e-06
5.22693e-06
5.2274e-06
5.22785e-06
5.22829e-06
5.22871e-06
5.22911e-06
5.2295e-06
5.22987e-06
5.23023e-06
5.23057e-06
5.2309e-06
5.23121e-06
5.23151e-06
5.2318e-06
5.23208e-06
5.23234e-06
5.2326e-06
5.23284e-06
5.23307e-06
5.23329e-06
5.2335e-06
5.2337e-06
5.23388e-06
5.20714e-06
5.20821e-06
5.20921e-06
5.21016e-06
5.21109e-06
5.21199e-06
5.21288e-06
5.21374e-06
5.21458e-06
5.2154e-06
5.2162e-06
5.21699e-06
5.21775e-06
5.21849e-06
5.21922e-06
5.21992e-06
5.22061e-06
5.22128e-06
5.22193e-06
5.22255e-06
5.22316e-06
5.22375e-06
5.22433e-06
5.22488e-06
5.22541e-06
5.22593e-06
5.22643e-06
5.22692e-06
5.22738e-06
5.22783e-06
5.22826e-06
5.22868e-06
5.22908e-06
5.22947e-06
5.22984e-06
5.23019e-06
5.23053e-06
5.23086e-06
5.23117e-06
5.23147e-06
5.23176e-06
5.23203e-06
5.23229e-06
5.23255e-06
5.23279e-06
5.23302e-06
5.23324e-06
5.23345e-06
5.23365e-06
5.23384e-06
5.234e-06
5.20715e-06
5.20823e-06
5.20923e-06
5.2102e-06
5.21114e-06
5.21204e-06
5.21293e-06
5.21379e-06
5.21464e-06
5.21546e-06
5.21626e-06
5.21704e-06
5.2178e-06
5.21854e-06
5.21926e-06
5.21997e-06
5.22065e-06
5.22131e-06
5.22195e-06
5.22258e-06
5.22318e-06
5.22377e-06
5.22434e-06
5.22488e-06
5.22542e-06
5.22593e-06
5.22642e-06
5.2269e-06
5.22737e-06
5.22781e-06
5.22824e-06
5.22865e-06
5.22905e-06
5.22943e-06
5.2298e-06
5.23015e-06
5.23049e-06
5.23081e-06
5.23113e-06
5.23142e-06
5.23171e-06
5.23198e-06
5.23225e-06
5.2325e-06
5.23274e-06
5.23297e-06
5.23319e-06
5.2334e-06
5.2336e-06
5.23379e-06
5.23397e-06
5.23412e-06
5.20715e-06
5.20824e-06
5.20926e-06
5.21024e-06
5.21118e-06
5.21209e-06
5.21298e-06
5.21385e-06
5.21469e-06
5.21551e-06
5.21631e-06
5.21709e-06
5.21785e-06
5.21859e-06
5.21931e-06
5.22001e-06
5.22069e-06
5.22134e-06
5.22198e-06
5.2226e-06
5.2232e-06
5.22378e-06
5.22435e-06
5.22489e-06
5.22542e-06
5.22593e-06
5.22642e-06
5.22689e-06
5.22735e-06
5.2278e-06
5.22822e-06
5.22863e-06
5.22903e-06
5.22941e-06
5.22977e-06
5.23012e-06
5.23045e-06
5.23078e-06
5.23109e-06
5.23138e-06
5.23167e-06
5.23194e-06
5.2322e-06
5.23245e-06
5.23269e-06
5.23292e-06
5.23314e-06
5.23335e-06
5.23355e-06
5.23374e-06
5.23392e-06
5.23409e-06
5.23423e-06
5.20716e-06
5.20826e-06
5.20928e-06
5.21027e-06
5.21122e-06
5.21214e-06
5.21303e-06
5.2139e-06
5.21475e-06
5.21557e-06
5.21637e-06
5.21715e-06
5.2179e-06
5.21864e-06
5.21935e-06
5.22005e-06
5.22072e-06
5.22138e-06
5.22201e-06
5.22263e-06
5.22322e-06
5.2238e-06
5.22436e-06
5.2249e-06
5.22542e-06
5.22593e-06
5.22642e-06
5.22689e-06
5.22734e-06
5.22778e-06
5.2282e-06
5.22861e-06
5.229e-06
5.22938e-06
5.22974e-06
5.23009e-06
5.23042e-06
5.23074e-06
5.23105e-06
5.23134e-06
5.23162e-06
5.2319e-06
5.23216e-06
5.2324e-06
5.23264e-06
5.23287e-06
5.23309e-06
5.2333e-06
5.2335e-06
5.23369e-06
5.23387e-06
5.23404e-06
5.2342e-06
5.23434e-06
5.20716e-06
5.20827e-06
5.20931e-06
5.2103e-06
5.21126e-06
5.21218e-06
5.21308e-06
5.21395e-06
5.2148e-06
5.21562e-06
5.21642e-06
5.2172e-06
5.21795e-06
5.21869e-06
5.2194e-06
5.22009e-06
5.22076e-06
5.22141e-06
5.22204e-06
5.22265e-06
5.22324e-06
5.22382e-06
5.22437e-06
5.22491e-06
5.22543e-06
5.22593e-06
5.22641e-06
5.22688e-06
5.22733e-06
5.22777e-06
5.22819e-06
5.22859e-06
5.22898e-06
5.22935e-06
5.22971e-06
5.23006e-06
5.23039e-06
5.23071e-06
5.23101e-06
5.2313e-06
5.23159e-06
5.23186e-06
5.23211e-06
5.23236e-06
5.2326e-06
5.23283e-06
5.23304e-06
5.23325e-06
5.23345e-06
5.23364e-06
5.23382e-06
5.23399e-06
5.23415e-06
5.2343e-06
5.23443e-06
5.20716e-06
5.20828e-06
5.20933e-06
5.21033e-06
5.2113e-06
5.21223e-06
5.21313e-06
5.21401e-06
5.21485e-06
5.21568e-06
5.21648e-06
5.21725e-06
5.218e-06
5.21873e-06
5.21944e-06
5.22013e-06
5.2208e-06
5.22144e-06
5.22207e-06
5.22268e-06
5.22327e-06
5.22383e-06
5.22439e-06
5.22492e-06
5.22543e-06
5.22593e-06
5.22641e-06
5.22688e-06
5.22733e-06
5.22776e-06
5.22817e-06
5.22858e-06
5.22896e-06
5.22933e-06
5.22969e-06
5.23003e-06
5.23036e-06
5.23067e-06
5.23098e-06
5.23127e-06
5.23155e-06
5.23182e-06
5.23207e-06
5.23232e-06
5.23256e-06
5.23278e-06
5.233e-06
5.23321e-06
5.23341e-06
5.23359e-06
5.23377e-06
5.23394e-06
5.2341e-06
5.23426e-06
5.2344e-06
5.23453e-06
5.20717e-06
5.2083e-06
5.20935e-06
5.21036e-06
5.21134e-06
5.21227e-06
5.21318e-06
5.21406e-06
5.21491e-06
5.21573e-06
5.21653e-06
5.2173e-06
5.21805e-06
5.21878e-06
5.21949e-06
5.22017e-06
5.22084e-06
5.22148e-06
5.2221e-06
5.2227e-06
5.22329e-06
5.22385e-06
5.2244e-06
5.22493e-06
5.22544e-06
5.22594e-06
5.22642e-06
5.22688e-06
5.22732e-06
5.22775e-06
5.22816e-06
5.22856e-06
5.22894e-06
5.22931e-06
5.22966e-06
5.23e-06
5.23033e-06
5.23064e-06
5.23095e-06
5.23124e-06
5.23151e-06
5.23178e-06
5.23204e-06
5.23228e-06
5.23252e-06
5.23274e-06
5.23296e-06
5.23317e-06
5.23336e-06
5.23355e-06
5.23373e-06
5.2339e-06
5.23406e-06
5.23421e-06
5.23436e-06
5.23449e-06
5.23461e-06
5.20717e-06
5.20831e-06
5.20938e-06
5.2104e-06
5.21137e-06
5.21232e-06
5.21323e-06
5.21411e-06
5.21496e-06
5.21578e-06
5.21658e-06
5.21735e-06
5.2181e-06
5.21883e-06
5.21953e-06
5.22021e-06
5.22087e-06
5.22151e-06
5.22213e-06
5.22273e-06
5.22331e-06
5.22388e-06
5.22442e-06
5.22495e-06
5.22545e-06
5.22594e-06
5.22642e-06
5.22688e-06
5.22732e-06
5.22774e-06
5.22815e-06
5.22855e-06
5.22893e-06
5.22929e-06
5.22964e-06
5.22998e-06
5.2303e-06
5.23062e-06
5.23092e-06
5.2312e-06
5.23148e-06
5.23175e-06
5.232e-06
5.23225e-06
5.23248e-06
5.23271e-06
5.23292e-06
5.23313e-06
5.23332e-06
5.23351e-06
5.23369e-06
5.23385e-06
5.23402e-06
5.23417e-06
5.23431e-06
5.23445e-06
5.23458e-06
5.23469e-06
5.20717e-06
5.20832e-06
5.2094e-06
5.21043e-06
5.21141e-06
5.21236e-06
5.21327e-06
5.21415e-06
5.21501e-06
5.21583e-06
5.21663e-06
5.2174e-06
5.21815e-06
5.21887e-06
5.21957e-06
5.22025e-06
5.22091e-06
5.22155e-06
5.22216e-06
5.22276e-06
5.22334e-06
5.2239e-06
5.22444e-06
5.22496e-06
5.22546e-06
5.22595e-06
5.22642e-06
5.22688e-06
5.22732e-06
5.22774e-06
5.22814e-06
5.22853e-06
5.22891e-06
5.22927e-06
5.22962e-06
5.22996e-06
5.23028e-06
5.23059e-06
5.23089e-06
5.23117e-06
5.23145e-06
5.23171e-06
5.23197e-06
5.23221e-06
5.23245e-06
5.23267e-06
5.23288e-06
5.23309e-06
5.23328e-06
5.23347e-06
5.23364e-06
5.23381e-06
5.23397e-06
5.23413e-06
5.23427e-06
5.23441e-06
5.23454e-06
5.23467e-06
5.23477e-06
5.20718e-06
5.20833e-06
5.20942e-06
5.21045e-06
5.21144e-06
5.2124e-06
5.21331e-06
5.2142e-06
5.21505e-06
5.21588e-06
5.21668e-06
5.21745e-06
5.2182e-06
5.21892e-06
5.21962e-06
5.22029e-06
5.22095e-06
5.22158e-06
5.2222e-06
5.22279e-06
5.22337e-06
5.22392e-06
5.22446e-06
5.22498e-06
5.22548e-06
5.22596e-06
5.22643e-06
5.22688e-06
5.22731e-06
5.22773e-06
5.22814e-06
5.22852e-06
5.2289e-06
5.22926e-06
5.2296e-06
5.22994e-06
5.23026e-06
5.23057e-06
5.23086e-06
5.23115e-06
5.23142e-06
5.23168e-06
5.23194e-06
5.23218e-06
5.23241e-06
5.23263e-06
5.23285e-06
5.23305e-06
5.23324e-06
5.23343e-06
5.23361e-06
5.23377e-06
5.23393e-06
5.23409e-06
5.23423e-06
5.23437e-06
5.2345e-06
5.23463e-06
5.23474e-06
5.23484e-06
5.20718e-06
5.20834e-06
5.20944e-06
5.21048e-06
5.21148e-06
5.21244e-06
5.21336e-06
5.21425e-06
5.2151e-06
5.21593e-06
5.21673e-06
5.2175e-06
5.21824e-06
5.21896e-06
5.21966e-06
5.22034e-06
5.22099e-06
5.22162e-06
5.22223e-06
5.22282e-06
5.22339e-06
5.22394e-06
5.22448e-06
5.22499e-06
5.22549e-06
5.22597e-06
5.22644e-06
5.22688e-06
5.22731e-06
5.22773e-06
5.22813e-06
5.22852e-06
5.22889e-06
5.22924e-06
5.22959e-06
5.22992e-06
5.23024e-06
5.23054e-06
5.23084e-06
5.23112e-06
5.23139e-06
5.23166e-06
5.23191e-06
5.23215e-06
5.23238e-06
5.2326e-06
5.23281e-06
5.23301e-06
5.23321e-06
5.23339e-06
5.23357e-06
5.23373e-06
5.23389e-06
5.23405e-06
5.23419e-06
5.23433e-06
5.23446e-06
5.23459e-06
5.23471e-06
5.23482e-06
5.23491e-06
5.20718e-06
5.20836e-06
5.20946e-06
5.21051e-06
5.21151e-06
5.21247e-06
5.2134e-06
5.21429e-06
5.21515e-06
5.21598e-06
5.21677e-06
5.21755e-06
5.21829e-06
5.21901e-06
5.21971e-06
5.22038e-06
5.22103e-06
5.22166e-06
5.22226e-06
5.22285e-06
5.22342e-06
5.22397e-06
5.2245e-06
5.22501e-06
5.22551e-06
5.22598e-06
5.22644e-06
5.22689e-06
5.22732e-06
5.22773e-06
5.22813e-06
5.22851e-06
5.22888e-06
5.22923e-06
5.22957e-06
5.2299e-06
5.23022e-06
5.23052e-06
5.23082e-06
5.2311e-06
5.23137e-06
5.23163e-06
5.23188e-06
5.23212e-06
5.23235e-06
5.23257e-06
5.23278e-06
5.23298e-06
5.23317e-06
5.23336e-06
5.23353e-06
5.2337e-06
5.23386e-06
5.23401e-06
5.23415e-06
5.23429e-06
5.23442e-06
5.23455e-06
5.23467e-06
5.23478e-06
5.23489e-06
5.23498e-06
5.20718e-06
5.20837e-06
5.20948e-06
5.21053e-06
5.21154e-06
5.21251e-06
5.21344e-06
5.21433e-06
5.21519e-06
5.21602e-06
5.21682e-06
5.21759e-06
5.21834e-06
5.21906e-06
5.21975e-06
5.22042e-06
5.22107e-06
5.22169e-06
5.2223e-06
5.22288e-06
5.22345e-06
5.22399e-06
5.22452e-06
5.22503e-06
5.22552e-06
5.226e-06
5.22645e-06
5.22689e-06
5.22732e-06
5.22773e-06
5.22812e-06
5.2285e-06
5.22887e-06
5.22922e-06
5.22956e-06
5.22989e-06
5.2302e-06
5.23051e-06
5.2308e-06
5.23108e-06
5.23135e-06
5.2316e-06
5.23185e-06
5.23209e-06
5.23232e-06
5.23254e-06
5.23275e-06
5.23295e-06
5.23314e-06
5.23332e-06
5.2335e-06
5.23366e-06
5.23382e-06
5.23397e-06
5.23412e-06
5.23426e-06
5.23439e-06
5.23451e-06
5.23463e-06
5.23474e-06
5.23485e-06
5.23495e-06
5.23504e-06
5.20719e-06
5.20838e-06
5.2095e-06
5.21056e-06
5.21157e-06
5.21255e-06
5.21348e-06
5.21438e-06
5.21524e-06
5.21607e-06
5.21687e-06
5.21764e-06
5.21838e-06
5.2191e-06
5.21979e-06
5.22046e-06
5.22111e-06
5.22173e-06
5.22233e-06
5.22292e-06
5.22348e-06
5.22402e-06
5.22454e-06
5.22505e-06
5.22554e-06
5.22601e-06
5.22646e-06
5.2269e-06
5.22732e-06
5.22773e-06
5.22812e-06
5.2285e-06
5.22886e-06
5.22921e-06
5.22955e-06
5.22987e-06
5.23019e-06
5.23049e-06
5.23078e-06
5.23106e-06
5.23132e-06
5.23158e-06
5.23183e-06
5.23207e-06
5.23229e-06
5.23251e-06
5.23272e-06
5.23292e-06
5.23311e-06
5.23329e-06
5.23346e-06
5.23363e-06
5.23379e-06
5.23394e-06
5.23408e-06
5.23422e-06
5.23435e-06
5.23448e-06
5.2346e-06
5.23471e-06
5.23482e-06
5.23492e-06
5.23501e-06
5.2351e-06
5.20719e-06
5.20839e-06
5.20952e-06
5.21059e-06
5.21161e-06
5.21258e-06
5.21352e-06
5.21442e-06
5.21528e-06
5.21612e-06
5.21692e-06
5.21769e-06
5.21843e-06
5.21915e-06
5.21984e-06
5.2205e-06
5.22115e-06
5.22177e-06
5.22237e-06
5.22295e-06
5.22351e-06
5.22405e-06
5.22457e-06
5.22507e-06
5.22555e-06
5.22602e-06
5.22647e-06
5.22691e-06
5.22733e-06
5.22773e-06
5.22812e-06
5.2285e-06
5.22886e-06
5.22921e-06
5.22954e-06
5.22986e-06
5.23017e-06
5.23047e-06
5.23076e-06
5.23104e-06
5.2313e-06
5.23156e-06
5.23181e-06
5.23204e-06
5.23227e-06
5.23248e-06
5.23269e-06
5.23289e-06
5.23308e-06
5.23326e-06
5.23343e-06
5.2336e-06
5.23375e-06
5.2339e-06
5.23405e-06
5.23419e-06
5.23432e-06
5.23444e-06
5.23456e-06
5.23467e-06
5.23478e-06
5.23488e-06
5.23498e-06
5.23507e-06
5.23515e-06
5.20719e-06
5.2084e-06
5.20953e-06
5.21061e-06
5.21164e-06
5.21262e-06
5.21356e-06
5.21446e-06
5.21533e-06
5.21616e-06
5.21696e-06
5.21773e-06
5.21848e-06
5.21919e-06
5.21988e-06
5.22055e-06
5.22119e-06
5.22181e-06
5.2224e-06
5.22298e-06
5.22354e-06
5.22407e-06
5.22459e-06
5.22509e-06
5.22557e-06
5.22604e-06
5.22648e-06
5.22692e-06
5.22733e-06
5.22773e-06
5.22812e-06
5.22849e-06
5.22885e-06
5.2292e-06
5.22953e-06
5.22985e-06
5.23016e-06
5.23046e-06
5.23075e-06
5.23102e-06
5.23129e-06
5.23154e-06
5.23178e-06
5.23202e-06
5.23224e-06
5.23246e-06
5.23266e-06
5.23286e-06
5.23305e-06
5.23323e-06
5.2334e-06
5.23357e-06
5.23372e-06
5.23387e-06
5.23402e-06
5.23415e-06
5.23428e-06
5.23441e-06
5.23453e-06
5.23464e-06
5.23475e-06
5.23485e-06
5.23495e-06
5.23504e-06
5.23513e-06
5.2352e-06
5.2072e-06
5.20841e-06
5.20955e-06
5.21063e-06
5.21167e-06
5.21265e-06
5.2136e-06
5.2145e-06
5.21537e-06
5.21621e-06
5.21701e-06
5.21778e-06
5.21852e-06
5.21923e-06
5.21992e-06
5.22059e-06
5.22123e-06
5.22184e-06
5.22244e-06
5.22301e-06
5.22356e-06
5.2241e-06
5.22461e-06
5.22511e-06
5.22559e-06
5.22605e-06
5.2265e-06
5.22693e-06
5.22734e-06
5.22774e-06
5.22812e-06
5.22849e-06
5.22885e-06
5.2292e-06
5.22953e-06
5.22985e-06
5.23015e-06
5.23045e-06
5.23073e-06
5.23101e-06
5.23127e-06
5.23152e-06
5.23176e-06
5.232e-06
5.23222e-06
5.23243e-06
5.23264e-06
5.23283e-06
5.23302e-06
5.2332e-06
5.23337e-06
5.23354e-06
5.23369e-06
5.23384e-06
5.23399e-06
5.23412e-06
5.23425e-06
5.23438e-06
5.2345e-06
5.23461e-06
5.23472e-06
5.23482e-06
5.23492e-06
5.23501e-06
5.2351e-06
5.23518e-06
5.23525e-06
5.2072e-06
5.20842e-06
5.20957e-06
5.21066e-06
5.21169e-06
5.21269e-06
5.21363e-06
5.21454e-06
5.21541e-06
5.21625e-06
5.21705e-06
5.21782e-06
5.21856e-06
5.21928e-06
5.21997e-06
5.22063e-06
5.22126e-06
5.22188e-06
5.22247e-06
5.22304e-06
5.22359e-06
5.22413e-06
5.22464e-06
5.22513e-06
5.22561e-06
5.22607e-06
5.22651e-06
5.22694e-06
5.22735e-06
5.22774e-06
5.22813e-06
5.2285e-06
5.22885e-06
5.22919e-06
5.22952e-06
5.22984e-06
5.23014e-06
5.23044e-06
5.23072e-06
5.23099e-06
5.23125e-06
5.2315e-06
5.23175e-06
5.23198e-06
5.2322e-06
5.23241e-06
5.23261e-06
5.23281e-06
5.23299e-06
5.23317e-06
5.23334e-06
5.23351e-06
5.23366e-06
5.23381e-06
5.23396e-06
5.23409e-06
5.23422e-06
5.23435e-06
5.23447e-06
5.23458e-06
5.23469e-06
5.23479e-06
5.23489e-06
5.23498e-06
5.23507e-06
5.23515e-06
5.23522e-06
5.23529e-06
5.2072e-06
5.20843e-06
5.20958e-06
5.21068e-06
5.21172e-06
5.21272e-06
5.21367e-06
5.21458e-06
5.21545e-06
5.21629e-06
5.21709e-06
5.21787e-06
5.21861e-06
5.21932e-06
5.22001e-06
5.22067e-06
5.2213e-06
5.22192e-06
5.22251e-06
5.22307e-06
5.22362e-06
5.22415e-06
5.22466e-06
5.22515e-06
5.22563e-06
5.22608e-06
5.22652e-06
5.22695e-06
5.22736e-06
5.22775e-06
5.22813e-06
5.2285e-06
5.22885e-06
5.22919e-06
5.22952e-06
5.22983e-06
5.23014e-06
5.23043e-06
5.23071e-06
5.23098e-06
5.23124e-06
5.23149e-06
5.23173e-06
5.23196e-06
5.23218e-06
5.23239e-06
5.23259e-06
5.23278e-06
5.23297e-06
5.23315e-06
5.23332e-06
5.23348e-06
5.23364e-06
5.23378e-06
5.23393e-06
5.23406e-06
5.23419e-06
5.23432e-06
5.23444e-06
5.23455e-06
5.23466e-06
5.23476e-06
5.23486e-06
5.23495e-06
5.23504e-06
5.23512e-06
5.2352e-06
5.23527e-06
5.23533e-06
5.2072e-06
5.20844e-06
5.2096e-06
5.2107e-06
5.21175e-06
5.21275e-06
5.21371e-06
5.21462e-06
5.21549e-06
5.21633e-06
5.21714e-06
5.21791e-06
5.21865e-06
5.21936e-06
5.22005e-06
5.22071e-06
5.22134e-06
5.22195e-06
5.22254e-06
5.22311e-06
5.22365e-06
5.22418e-06
5.22469e-06
5.22518e-06
5.22565e-06
5.2261e-06
5.22654e-06
5.22696e-06
5.22737e-06
5.22776e-06
5.22814e-06
5.2285e-06
5.22885e-06
5.22919e-06
5.22952e-06
5.22983e-06
5.23013e-06
5.23042e-06
5.2307e-06
5.23097e-06
5.23123e-06
5.23147e-06
5.23171e-06
5.23194e-06
5.23216e-06
5.23237e-06
5.23257e-06
5.23276e-06
5.23295e-06
5.23312e-06
5.23329e-06
5.23345e-06
5.23361e-06
5.23376e-06
5.2339e-06
5.23404e-06
5.23417e-06
5.23429e-06
5.23441e-06
5.23452e-06
5.23463e-06
5.23473e-06