/*--------------------------------*- C++ -*----------------------------------*\
  =========                 |
  \\      /  F ield         | OpenFOAM: The Open Source CFD Toolbox
   \\    /   O peration     | Website:  https://openfoam.org
    \\  /    A nd           | Version:  7
     \\/     M anipulation  |
\*---------------------------------------------------------------------------*/
FoamFile
{
    version     2.0;
    format      ascii;
    class       volScalarField;
    location    "1600";
    object      p;
}
// * * * * * * * * * * * * * * * * * * * * * * * * * * * * * * * * * * * * * //

dimensions      [0 2 -2 0 0 0 0];

internalField   nonuniform List<scalar> 
23052
(
41.6527
38.9137
26.3109
37.0919
27.5078
30.2313
35.7814
27.986
29.3654
30.7967
34.8222
28.1532
28.8717
30.8823
31.6036
32.3914
34.0845
28.1769
28.5451
30.7894
31.4505
32.3979
33.6357
34.5755
33.4951
28.1449
28.3014
30.63
31.3352
32.335
33.5237
34.5819
35.8225
33.005
28.0968
28.102
30.4475
31.2232
32.2354
33.4219
34.5312
35.7807
36.9854
32.5854
28.0484
27.9304
30.2605
31.1044
32.1186
33.3147
34.4557
35.6907
36.9619
38.2825
32.2121
28.0049
27.7781
30.076
30.9779
31.9911
33.1981
34.36
35.5951
36.8819
38.2443
39.6114
31.8708
27.9658
27.6412
29.8962
30.845
31.8557
33.0712
34.2495
35.488
36.7873
38.1493
39.5735
41.021
31.5545
27.929
27.5156
29.721
30.7069
31.7139
32.9346
34.1264
35.3694
36.677
38.0442
39.4736
40.9759
42.4886
31.2507
27.8922
27.3993
29.5496
30.5647
31.5666
32.7891
33.9917
35.2395
36.5535
37.9255
39.3617
40.8656
42.4396
44.0268
30.9587
27.8519
27.2899
29.381
30.419
31.4143
32.6359
33.8466
35.0986
36.4175
37.7944
39.2352
40.7444
42.3211
43.9721
45.6315
30.6728
27.8061
27.1846
29.2141
30.2698
31.257
32.4753
33.692
34.9471
36.2699
37.651
39.096
40.6088
42.191
43.8438
45.5718
47.3068
30.3884
27.7525
27.0816
29.0476
30.1169
31.0953
32.3077
33.5284
34.7856
36.1111
37.4958
38.9441
40.4605
42.0463
43.7041
45.434
47.2415
49.0532
30.1062
27.6896
26.9788
28.8803
29.9598
30.929
32.1336
33.3562
34.6146
35.9416
37.329
38.7801
40.2995
41.8887
43.5497
45.2847
47.0939
48.9825
50.8732
29.8248
27.6165
26.8747
28.7115
29.7982
30.7577
31.953
33.1759
34.434
35.7619
37.1512
38.6044
40.1262
41.7181
43.3823
45.1204
46.9347
48.825
50.7968
52.7685
29.5406
27.5319
26.7675
28.54
29.6316
30.5813
31.7659
32.9876
34.2447
35.5721
36.9626
38.4173
39.9409
41.535
43.2017
44.943
46.7603
48.6556
50.6292
52.6863
54.7412
29.2524
27.4348
26.6562
28.3651
29.4595
30.3995
31.5726
32.7915
34.0468
35.3729
36.7636
38.2191
39.7439
41.3398
43.0086
44.7522
46.5726
48.4711
50.4497
52.5086
54.6531
56.7935
28.9628
27.325
26.5392
28.186
29.2813
30.2121
31.3725
32.5878
33.8402
35.1643
36.5545
38.0101
39.5356
41.1326
42.8029
44.5486
46.3713
48.2728
50.2546
52.3186
54.4651
56.6994
58.9277
28.6694
27.2027
26.4161
28.002
29.0968
30.0188
31.1663
32.3765
33.6255
34.9466
36.3355
37.7907
39.3161
40.9137
42.5851
44.3323
46.157
48.0609
50.0457
52.113
54.2647
56.501
58.8274
61.1463
28.3705
27.0673
26.2862
27.8127
28.9055
29.819
30.9533
32.1579
33.4025
34.7201
36.107
37.561
39.0859
40.6835
42.3554
44.1036
45.9298
47.8357
49.8229
51.8933
54.0483
56.2901
58.6186
61.0398
63.4517
28.0672
26.9186
26.1483
27.6175
28.7071
29.6128
30.7336
31.9316
33.1716
34.4849
35.8691
37.3213
38.8451
40.4422
42.1141
43.8628
45.6899
47.5973
49.5866
51.6594
53.8177
56.0628
58.397
60.8204
63.3388
65.8465
27.7609
26.7567
26.0022
27.4161
28.5014
29.3999
30.5071
31.698
32.9325
34.2411
35.6219
37.0719
38.594
40.19
41.8614
43.6101
45.4378
47.3461
49.3369
51.4118
53.5726
55.821
58.1587
60.5878
63.1087
65.7271
68.3335
27.4488
26.5821
25.8477
27.2081
28.2882
29.1799
30.2737
31.4569
32.6857
33.9889
35.3658
36.8128
38.3327
39.9272
41.5976
43.3458
45.1735
47.0823
49.0741
51.1505
53.3134
55.5645
57.9057
60.3385
62.8652
65.4862
68.2074
70.9154
27.1326
26.3947
25.6842
26.9934
28.0674
28.9527
30.0333
31.2083
32.431
33.7284
35.1009
36.5445
38.0616
39.654
41.3229
43.0701
44.8973
46.8061
48.7985
50.876
53.0405
55.2938
57.6376
60.0741
62.6046
65.2317
67.9556
70.7825
73.5952
26.8118
26.1949
25.5117
26.7715
27.8388
28.7183
29.7857
30.9523
32.1685
33.4597
34.8272
36.2669
37.7807
39.3706
41.0375
42.7832
44.6094
46.5179
48.5102
50.5883
52.7539
55.0088
57.3551
59.7943
62.3286
64.9596
67.6899
70.5197
73.4551
76.3755
26.4862
25.9831
25.3299
26.5428
27.6024
28.4765
29.5311
30.6889
31.8982
33.1829
34.5451
35.9803
37.4904
39.0772
40.7416
42.4854
44.3101
46.2176
48.2096
50.2877
52.454
54.7101
57.058
59.4997
62.037
64.672
67.4063
70.2426
73.1812
76.2284
79.2596
26.1567
25.7596
25.1388
26.3068
27.3581
28.2272
29.2694
30.418
31.6203
32.8981
34.2545
35.6849
37.1908
38.7739
40.4354
42.1768
43.9996
45.9057
47.8967
49.9745
52.1409
54.3977
56.7469
59.1904
61.7303
64.3683
67.1068
69.9473
72.8926
75.9431
79.1052
82.2506
25.8222
25.5246
24.9384
26.0635
27.106
27.9703
29.0004
30.1398
31.3348
32.6055
33.9556
35.3807
36.882
38.4611
40.1192
41.8576
43.6781
45.5823
47.5719
49.6488
51.8148
54.0719
56.4219
58.8667
61.4085
64.0493
66.7909
69.6358
72.5856
75.643
78.8085
82.0886
85.3517
25.4842
25.2785
24.7287
25.813
26.846
27.7061
28.7243
29.8543
31.0419
32.3051
33.6486
35.068
36.5642
38.1389
39.7931
41.5281
43.3457
45.2475
47.2354
49.3109
51.476
53.7328
56.083
58.5287
61.0719
63.7148
66.4593
69.3076
72.2619
75.324
78.4967
81.7804
85.1819
88.5661
25.1418
25.0218
24.5097
25.5553
26.5785
27.4344
28.4411
29.5615
30.7414
31.9971
33.3337
34.747
36.2377
37.8074
39.4572
41.1885
43.0027
44.9018
46.8872
48.9609
51.1247
53.3807
55.7307
58.1767
60.7209
63.3653
66.112
68.9633
71.9212
74.988
78.1656
81.4569
84.8622
88.3882
91.8969
24.7954
24.755
24.2815
25.2904
26.3032
27.1552
28.1508
29.2616
30.4336
31.6815
33.0108
34.4177
35.9024
37.4669
39.1119
40.8388
42.6494
44.545
46.5276
48.5991
50.7612
53.0157
55.365
57.8108
60.3554
63.0009
65.7493
68.6029
71.564
74.6346
77.8171
81.1135
84.5266
88.0568
91.7108
95.3476
24.445
24.4783
24.0444
25.0185
26.0205
26.8687
27.8535
28.9545
30.1186
31.3584
32.6802
34.0803
35.5588
37.1174
38.7572
40.4795
42.2857
44.1776
46.157
48.2255
50.3853
52.6382
54.9861
57.4313
59.9759
62.6218
65.3713
68.2268
71.1904
74.2643
77.4508
80.7523
84.1708
87.709
91.3677
95.1532
98.9217
24.0914
24.1921
23.7984
24.7395
25.7305
26.575
27.5493
28.6405
29.7964
31.028
32.342
33.7349
35.2068
36.7593
38.3934
40.1104
41.912
43.7997
45.7752
47.8406
49.9975
52.2481
54.5943
57.0383
59.5823
62.2282
64.9784
67.8351
70.8006
73.8772
77.0672
80.373
83.7969
87.3408
91.0077
94.7981
98.7187
102.623
23.7343
23.897
23.5436
24.4537
25.4332
26.2741
27.2383
28.3196
29.4671
30.6904
31.9964
33.3818
34.8467
36.3926
38.0206
39.7321
41.5284
43.4114
45.3827
47.4442
49.598
51.8458
54.1897
56.632
59.1748
61.8202
64.5705
67.428
70.395
73.4737
76.6666
79.976
83.4043
86.9539
90.6268
94.4259
98.3516
102.411
106.453
23.374
23.5932
23.2804
24.1612
25.129
25.9663
26.9205
27.9919
29.131
30.3458
31.6434
33.0211
34.4786
36.0176
37.6391
39.3444
41.1351
43.0129
44.9795
47.0368
49.1867
51.4313
53.7725
56.2126
58.7537
61.3981
64.148
67.0056
69.9734
73.0538
76.249
79.5616
82.9938
86.5481
90.2268
94.0323
97.9669
102.031
106.233
110.418
23.0102
23.2813
23.009
23.8621
24.8179
25.6516
26.5962
27.6576
28.7882
29.9942
31.2833
32.6529
34.1027
35.6343
37.2489
38.9477
40.7324
42.6045
44.5659
46.6185
48.7641
51.0049
53.3428
55.7802
58.3192
60.962
63.7109
66.5682
69.5363
72.6176
75.8147
79.1297
82.5652
86.1237
89.8074
93.6188
97.5604
101.634
105.841
110.188
114.52
22.6435
22.9617
22.7294
23.5566
24.5002
25.3302
26.2654
27.3169
28.4387
29.6359
30.9162
32.2773
33.7191
35.243
36.8503
38.5422
40.3203
42.1863
44.142
46.1894
48.3302
50.5667
52.901
55.335
57.8713
60.512
63.2593
66.1158
69.0837
72.1655
75.3637
78.6806
82.1188
85.6809
89.369
93.1858
97.1336
101.215
105.432
109.784
114.281
118.763
22.2741
22.6346
22.442
23.2448
24.176
25.0024
25.9283
26.9698
28.0827
29.271
30.5422
31.8947
33.328
34.8439
36.4434
38.1279
39.8991
41.7585
43.7081
45.7497
47.8853
50.117
52.4469
54.8773
57.4104
60.0483
62.7936
65.6486
68.6158
71.6975
74.8962
78.2145
81.6549
85.2198
88.9118
92.7334
96.6868
100.775
104.999
109.362
113.865
118.513
123.149
21.9025
22.3005
22.147
22.927
23.8457
24.6681
25.5851
26.6165
27.7205
28.8996
30.1616
31.5051
32.9297
34.4371
36.0285
37.7052
39.4689
41.3212
43.2642
45.2996
47.4294
49.6558
51.9809
54.407
56.9363
59.5711
62.3139
65.1669
68.1327
71.2137
74.4125
77.7315
81.1734
84.7407
88.4359
92.2616
96.22
100.314
104.545
108.916
113.43
118.085
122.89
127.684
21.5276
21.9598
21.8448
22.6033
23.5093
24.3278
25.2359
26.2572
27.3521
28.5218
29.7744
31.1086
32.5243
34.0228
35.6057
37.2742
39.03
40.8748
42.8106
44.8393
46.9628
49.1834
51.5031
53.9244
56.4493
59.0805
61.82
64.6706
67.6345
70.7144
73.9125
77.2318
80.6747
84.2437
87.9414
91.7705
95.7335
99.8326
104.07
108.449
112.97
117.638
122.45
127.415
132.37
21.1504
21.613
21.5354
22.2739
23.1672
23.9815
24.8809
25.8922
26.9777
28.138
29.3809
30.7056
32.1118
33.6012
35.1751
36.835
38.5824
40.4193
42.3475
44.3689
46.4856
48.6998
51.0138
53.4297
55.9498
58.5766
61.3125
64.1599
67.1214
70.1994
73.3965
76.7155
80.1587
83.7289
87.4287
91.2605
95.227
99.331
103.574
107.96
112.49
117.165
121.99
126.963
132.09
137.21
20.7712
21.2603
21.2193
21.939
22.8195
23.6295
24.5204
25.5214
26.5976
27.7482
28.9812
30.2961
31.6926
33.1725
34.7371
36.3879
38.1265
39.9549
41.875
43.8886
45.9981
48.2054
50.5129
52.9229
55.4376
58.0596
60.7912
63.635
66.5934
69.6691
72.8646
76.1825
79.6255
83.1964
86.8975
90.7317
94.7013
98.8092
103.058
107.449
111.986
116.671
121.504
126.49
131.626
136.92
142.209
20.3904
20.9021
20.8967
21.5989
22.4664
23.2719
24.1544
25.1453
26.2118
27.3527
28.5755
29.8803
31.2669
32.7368
34.2917
35.9329
37.6624
39.4818
41.3933
43.3987
45.5003
47.7002
50.0008
52.4043
54.9131
57.5297
60.2564
63.096
66.0509
69.1236
72.3168
75.6333
79.0755
82.6462
86.3481
90.184
94.1562
98.2676
102.521
106.918
111.461
116.153
120.996
125.991
131.141
136.444
141.908
147.368
20.0073
20.5388
20.5678
21.2537
22.1083
22.9091
23.7832
24.7638
25.8206
26.9516
28.1641
29.4585
30.8347
32.2944
33.8391
35.4705
37.1903
39.0003
40.9026
42.8993
44.9925
47.1845
49.4775
51.874
54.3763
56.9869
59.7084
62.543
65.4937
68.5629
71.7534
75.0676
78.5085
82.0786
85.7807
89.6175
93.5917
97.7059
101.963
106.365
110.914
115.613
120.464
125.469
130.629
135.947
141.421
147.058
152.693
19.6222
20.1707
20.233
20.9037
21.7453
22.5412
23.407
24.3773
25.4242
26.545
27.747
29.0307
30.3963
31.8454
33.3797
35.0007
36.7103
38.5104
40.4032
42.3906
44.4749
46.6584
48.9434
51.3323
53.8275
56.4314
59.147
61.9762
64.9222
67.9873
71.1742
74.4857
77.9246
81.4936
85.1953
89.0325
93.008
97.1244
101.384
105.79
110.345
115.05
119.909
124.923
130.094
135.423
140.911
146.559
152.372
158.185
19.236
19.7982
19.8925
20.5491
21.3777
22.1684
23.026
23.986
25.0228
26.1333
27.3244
28.5973
29.9519
31.39
32.9134
34.5236
36.2227
38.0124
39.8951
41.8727
43.9476
46.1221
48.3984
50.7791
53.2667
55.8635
58.5724
61.3957
64.3362
67.3966
70.5794
73.8878
77.324
80.8911
84.5919
88.429
92.4051
96.5231
100.786
105.195
109.755
114.466
119.331
124.353
129.534
134.874
140.375
146.038
151.862
157.854
163.849
18.848
19.4215
19.5466
20.19
21.0057
21.791
22.6403
23.59
24.6165
25.7165
26.8967
28.1583
29.5017
30.9285
32.4406
34.0396
35.7276
37.5065
39.3786
41.3459
43.4108
45.5756
47.8428
50.2148
52.694
55.2832
57.9849
60.8016
63.736
66.7912
69.9694
73.2737
76.7068
80.2715
83.9705
87.8069
91.783
95.9021
100.167
104.579
109.142
113.859
118.731
123.76
128.949
134.299
139.812
145.489
151.33
157.334
163.506
169.686
18.4585
19.0412
19.1956
19.8268
20.6296
21.4091
22.2503
23.1895
24.2057
25.295
26.4639
27.7141
29.0459
30.461
31.9614
33.5488
35.2253
36.9929
38.8539
40.8104
42.8647
45.0194
47.2768
49.6395
52.1099
54.6906
57.3844
60.1941
63.1219
66.171
69.344
72.6436
76.0729
79.6345
83.3313
87.1661
91.1418
95.2612
99.5271
103.942
108.508
113.229
118.107
123.143
128.34
133.7
139.224
144.913
150.768
156.79
162.977
169.333
175.701
18.068
18.6573
18.8397
19.4595
20.2495
21.0231
21.856
22.7847
23.7904
24.8688
26.0262
27.2647
28.5846
29.9877
31.476
33.0514
34.7159
36.4718
38.3211
40.2663
42.3096
44.4535
46.7005
49.0532
51.5142
54.086
56.7714
59.5731
62.4937
65.5362
68.7034
71.9979
75.4226
78.9804
82.6744
86.5071
90.4816
94.6007
98.8672
103.284
107.853
112.578
117.46
122.503
127.707
133.076
138.61
144.311
150.18
156.217
162.423
168.795
175.338
181.895
17.6763
18.2703
18.4792
19.0885
19.8657
20.6332
21.4578
22.3759
23.3708
24.4382
25.584
26.8104
28.1181
29.5088
30.9847
32.5477
34.1998
35.9434
37.7805
39.7138
41.7455
43.8781
46.1142
48.4564
50.9073
53.4695
56.1458
58.9391
61.8518
64.887
68.0475
71.3362
74.7558
78.3095
81.9997
85.8298
89.8025
93.9207
98.1872
102.605
107.176
111.904
116.791
121.839
127.05
132.427
137.971
143.683
149.565
155.617
161.839
168.231
174.791
181.522
188.271
17.2835
17.8805
18.1144
18.714
19.4785
20.2395
21.0558
21.9632
22.9473
24.0033
25.1373
26.3514
27.6466
29.0246
30.4876
32.0377
33.677
35.4078
37.2323
39.1532
41.1727
43.2934
45.518
47.8491
50.2892
52.8412
55.5079
58.2918
61.1962
64.2235
67.3766
70.6588
74.0726
77.6211
81.3075
85.134
89.1044
93.221
97.4868
101.905
106.478
111.208
116.098
121.151
126.369
131.753
137.306
143.029
148.923
154.989
161.227
167.637
174.218
180.968
187.889
194.831
16.8899
17.488
17.7456
18.3361
19.088
19.8423
20.6502
21.547
22.5199
23.5645
24.6863
25.8879
27.1702
28.5352
29.985
31.5218
33.1477
34.8653
36.6768
38.5846
40.5914
42.6997
44.9121
47.2314
49.6602
52.2013
54.8576
57.6319
60.5269
63.5456
66.6909
69.9659
73.3732
76.9161
80.5975
84.42
88.387
92.5016
96.7661
101.184
105.757
110.49
115.383
120.44
125.663
131.055
136.616
142.348
148.254
154.333
160.586
167.013
173.613
180.386
187.328
194.44
201.578
16.4957
17.0932
17.373
17.955
18.6945
19.4419
20.2413
21.1273
22.089
23.1219
24.2313
25.4201
26.6893
28.0408
29.477
31.0001
32.6123
34.3161
36.1139
38.0083
40.0017
42.097
44.2967
46.6036
49.0205
51.55
54.1954
56.959
59.8442
62.8537
65.9905
69.2574
72.6577
76.194
79.8699
83.6877
87.651
91.7625
96.0252
100.442
105.016
109.749
114.645
119.705
124.934
130.331
135.9
141.642
147.558
153.65
159.917
166.361
172.98
179.773
186.739
193.874
201.18
208.514
16.1008
16.6964
16.997
17.5711
18.2982
19.0383
19.8293
20.7043
21.6546
22.6757
23.7725
24.9482
26.2039
27.5417
28.9639
30.4728
32.0709
33.7604
35.5441
37.4244
39.404
41.4856
43.672
45.9659
48.3701
50.8876
53.5211
56.2737
59.1482
62.1477
65.2753
68.5335
71.9259
75.4552
79.1248
82.9372
86.896
91.0038
95.2639
99.6791
104.252
108.986
113.884
118.947
124.179
129.582
135.158
140.908
146.835
152.938
159.22
165.679
172.316
179.129
186.118
193.28
200.609
208.109
215.641
15.7053
16.2978
16.6177
17.1844
17.8993
18.632
19.4143
20.2784
21.2171
22.2261
23.3101
24.4724
25.7143
27.038
28.4458
29.9402
31.5236
33.1985
34.9674
36.8332
38.7984
40.8657
43.0382
45.3185
47.7094
50.214
52.8352
55.5759
58.4392
61.4278
64.5454
67.7945
71.178
74.6998
78.3622
82.1685
86.1221
90.2256
94.4823
98.8953
103.467
108.201
113.099
118.165
123.401
128.809
134.391
140.149
146.085
152.2
158.494
164.968
171.622
178.455
185.466
192.652
200.01
207.535
215.229
222.961
15.3094
15.8976
16.2354
16.7952
17.4981
18.2231
18.9966
19.8496
20.7766
21.7733
22.8443
23.9929
25.2208
26.53
27.923
29.4025
30.9707
32.6304
34.3842
36.2349
38.1851
40.2376
42.3955
44.6614
47.0384
49.5295
52.1377
54.8658
57.7171
60.6945
63.8011
67.0402
70.4145
73.9275
77.5823
81.3818
85.3293
89.4278
93.6804
98.0903
102.66
107.393
112.292
117.359
122.598
128.01
133.598
139.363
145.308
151.433
157.74
164.228
170.898
177.75
184.782
191.992
199.377
206.933
214.656
222.544
230.473
14.9132
15.4962
15.8505
16.4037
17.0947
17.8117
18.5764
19.4183
20.3333
21.3175
22.3752
23.51
24.7234
26.0178
27.3958
28.8598
30.4125
32.0566
33.7946
35.6296
37.5642
39.6014
41.744
43.9951
46.3575
48.8344
51.4287
54.1437
56.9822
59.9474
63.0425
66.2707
69.635
73.1387
76.7849
80.5768
84.5176
88.6103
92.8582
97.2642
101.831
106.563
111.461
116.53
121.77
127.186
132.778
138.55
144.503
150.638
156.956
163.458
170.145
177.014
184.067
191.299
198.711
206.296
214.052
221.971
230.053
238.179
14.5169
15.0937
15.463
16.0102
16.6894
17.3982
18.1539
18.9845
19.8874
20.8589
21.9032
23.0237
24.2225
25.5018
26.8642
28.3125
29.8492
31.4771
33.1989
35.0177
36.9362
38.9574
41.0842
43.3197
45.6668
48.1288
50.7085
53.4095
56.2345
59.1868
62.2697
65.4864
68.8398
72.3334
75.9704
79.7539
83.687
87.7734
92.0156
96.4171
100.981
105.71
110.608
115.676
120.918
126.336
131.933
137.711
143.671
149.815
156.144
162.659
169.36
176.247
183.32
190.575
198.01
205.625
213.411
221.367
229.483
237.757
246.082
14.1205
14.6904
15.0733
15.6149
16.2823
16.9827
17.7293
18.5486
19.4392
20.3978
21.4283
22.5344
23.7182
24.982
26.3286
27.7606
29.2809
30.8921
32.5973
34.3994
36.3011
38.3057
40.416
42.6352
44.9665
47.4128
49.9775
52.6635
55.4744
58.4131
61.483
64.6872
68.029
71.5116
75.1386
78.9128
82.8378
86.9167
91.1526
95.5487
100.109
104.835
109.73
114.798
120.041
125.461
131.062
136.844
142.811
148.963
155.303
161.83
168.546
175.449
182.54
189.817
197.277
204.918
212.737
220.726
228.881
237.194
245.66
254.18
13.7241
14.2864
14.6817
15.2177
15.8738
16.5655
17.3028
18.1107
18.9888
19.9343
20.9508
22.0422
23.2107
24.4587
25.789
27.2045
28.7079
30.302
31.99
33.7747
35.6592
37.6466
39.7398
41.9421
44.2567
46.6867
49.2356
51.9062
54.702
57.6262
60.6824
63.8734
67.2027
70.6737
74.2898
78.0539
81.9697
86.0407
90.2692
94.6595
99.2141
103.936
108.829
113.896
119.139
124.56
130.163
135.951
141.923
148.083
154.432
160.971
167.7
174.619
181.729
189.026
196.51
204.178
212.026
220.049
228.242
236.597
245.104
253.761
262.474
13.3277
13.8821
14.2884
14.8191
15.4639
16.1467
16.8746
17.6709
18.5364
19.4686
20.471
21.5474
22.7003
23.9322
25.2459
26.6443
28.1304
29.707
31.3772
33.1441
35.0107
36.9803
39.0557
41.2405
43.5379
45.9509
48.4829
51.1374
53.9174
56.8264
59.8678
63.0448
66.3611
69.8194
73.4239
77.1773
81.083
85.1448
89.3657
93.749
98.2979
103.015
107.905
112.969
118.211
123.634
129.239
135.029
141.007
147.174
153.533
160.082
166.824
173.758
180.885
188.203
195.71
203.403
211.281
219.336
227.565
235.96
244.514
253.215
262.061
270.964
12.9316
13.4776
13.8935
14.4192
15.0528
15.7266
16.4449
17.2296
18.0823
19.0009
19.9889
21.0502
22.1872
23.4025
24.6993
26.0803
27.5486
29.1072
30.7592
32.5077
34.3559
36.307
38.3641
40.5307
42.81
45.2053
47.72
50.3574
53.121
56.014
59.0398
62.202
65.5042
68.9493
72.541
76.2827
80.1778
84.2298
88.4417
92.817
97.3596
102.072
106.957
112.018
117.258
122.681
128.287
134.081
140.063
146.237
152.602
159.162
165.916
172.865
180.008
187.346
194.875
202.594
210.498
218.587
226.851
235.286
243.883
252.635
261.528
270.559
279.65
12.5358
13.073
13.4973
14.0182
14.6408
15.3053
16.0139
16.7868
17.6266
18.5315
19.5049
20.5506
21.6714
22.87
24.1494
25.5126
26.9627
28.5029
30.1361
31.8657
33.6949
35.627
37.6652
39.8129
42.0735
44.4504
46.9469
49.5665
52.3126
55.1888
58.1986
61.3451
64.632
68.063
71.6415
75.3705
79.2539
83.2951
87.4975
91.8641
96.3989
101.105
105.985
111.042
116.28
121.702
127.309
133.104
139.09
145.269
151.642
158.211
164.977
171.94
179.099
186.455
194.006
201.749
209.682
217.8
226.099
234.573
243.213
252.013
260.96
270.044
279.255
288.53
12.1403
12.6687
13.1002
13.6163
14.228
14.883
15.5818
16.3429
17.1695
18.0605
19.019
20.049
21.1534
22.3349
23.5966
24.9416
26.3731
27.8943
29.5083
31.2185
33.0281
34.9405
36.9591
39.0873
41.3285
43.6861
46.1638
48.7649
51.4929
54.3514
57.344
60.4741
63.7451
67.1611
70.7251
74.4408
78.3114
82.3409
86.5328
90.8901
95.4163
100.115
104.989
110.042
115.277
120.696
126.303
132.1
138.089
144.272
150.652
157.23
164.006
170.981
178.156
185.53
193.101
200.868
208.828
216.976
225.31
233.821
242.505
251.35
260.35
269.491
278.761
288.149
297.601
11.7454
12.2647
12.7022
13.2136
13.8147
14.4601
15.1488
15.8979
16.7112
17.5881
18.5316
19.5456
20.6332
21.7973
23.0409
24.3674
25.7798
27.2816
28.8759
30.5661
32.3556
34.2478
36.2461
38.3541
40.5752
42.9129
45.3709
47.9527
50.6619
53.5018
56.4764
59.5891
62.8436
66.2433
69.7921
73.4933
77.3508
81.3677
85.548
89.8946
94.4118
99.102
103.97
109.017
114.247
119.664
125.269
131.067
137.058
143.246
149.631
156.217
163.003
169.991
177.18
184.571
192.162
199.951
207.937
216.116
224.482
233.031
241.755
250.647
259.697
268.895
278.227
287.679
297.24
306.864
11.3511
11.8612
12.3036
12.8103
13.4009
14.0365
14.715
15.452
16.252
17.1145
18.0427
19.0405
20.1111
21.2574
22.4827
23.7902
25.1832
26.6651
28.2391
29.9089
31.6777
33.5491
35.5265
37.6136
39.814
42.1311
44.5686
47.1302
49.8196
52.6404
55.5961
58.6905
61.9273
65.3101
68.8428
72.5286
76.3717
80.3752
84.5429
88.8783
93.3851
98.0665
102.926
107.967
113.192
118.605
124.209
130.005
135.998
142.189
148.579
155.172
161.967
168.966
176.169
183.577
191.187
198.999
207.01
215.217
223.616
232.201
240.965
249.903
259.003
268.256
277.649
287.169
296.798
306.527
316.315
10.9575
11.4584
11.9046
12.4067
12.9868
13.6125
14.2807
15.0055
15.7919
16.6399
17.5526
18.534
19.5873
20.7156
21.9221
23.2103
24.5834
26.045
27.5983
29.2471
30.9946
32.8446
34.8005
36.866
39.0449
41.3407
43.757
46.2977
48.9665
51.7671
54.7032
57.7784
60.9967
64.3618
67.8773
71.5469
75.3745
79.3633
83.5177
87.8407
92.3363
97.0074
101.858
106.892
112.111
117.52
123.12
128.916
134.909
141.101
147.496
154.095
160.898
167.908
175.124
182.548
190.176
198.009
206.045
214.28
222.71
231.331
240.136
249.117
258.266
267.574
277.027
286.612
296.315
306.117
316.007
325.95
10.5646
11.0566
11.5055
12.0029
12.5727
13.1884
13.846
14.5585
15.3312
16.1645
17.0615
18.0262
19.0619
20.1719
21.3593
22.6278
23.9807
25.4215
26.9537
28.5809
30.3066
32.1346
34.0684
36.1117
38.2684
40.5421
42.9365
45.4555
48.1029
50.8823
53.798
56.8531
60.0519
63.398
66.8954
70.5478
74.3589
78.3326
82.4724
86.7821
91.2653
95.9258
100.767
105.792
111.004
116.407
122.004
127.797
133.789
139.983
146.381
152.985
159.796
166.816
174.044
181.482
189.128
196.982
205.042
213.304
221.764
230.42
239.264
248.289
257.486
266.847
276.36
286.01
295.784
305.666
315.634
325.678
335.768
10.1726
10.6557
11.1064
11.5991
12.1588
12.7642
13.4111
14.1112
14.87
15.6885
16.5696
17.5173
18.5352
19.6265
20.7946
22.043
23.3753
24.7948
26.3054
27.9106
29.614
31.4193
33.3304
35.3508
37.4846
39.7354
42.1071
44.6036
47.2287
49.9863
52.8804
55.9148
59.093
62.4195
65.8978
69.5318
73.3256
77.2827
81.4071
85.7024
90.1723
94.8208
99.6509
104.667
109.871
115.267
120.859
126.649
132.64
138.835
145.235
151.843
158.661
165.689
172.929
180.381
188.044
195.917
203.999
212.289
220.779
229.469
238.351
247.418
256.663
266.076
275.647
285.362
295.206
305.164
315.219
325.348
335.537
345.763
9.78152
10.256
10.7075
11.1954
11.7451
12.3401
12.9763
13.6638
14.4086
15.212
16.077
17.0076
18.0074
19.0798
20.2281
21.4562
22.7673
24.1653
25.6538
27.2364
28.9168
30.6991
32.5867
34.5837
36.6938
38.9211
41.2693
43.7425
46.3445
49.0794
51.951
54.9635
58.1205
61.4263
64.8845
68.4993
72.2745
76.2142
80.3221
84.6019
89.0576
93.6928
98.5109
103.516
108.711
114.1
119.687
125.472
131.461
137.654
144.056
150.668
157.491
164.528
171.778
179.242
186.922
194.815
202.918
211.232
219.753
228.475
237.395
246.504
255.796
265.261
274.888
284.666
294.58
304.615
314.752
324.973
335.254
345.58
355.931
9.39154
9.8576
10.3091
10.792
11.3318
11.9164
12.5415
13.2164
13.947
14.7352
15.5839
16.4971
17.4786
18.5318
19.6602
20.8674
22.1571
23.5331
24.999
26.5585
28.2155
29.974
31.8377
33.8105
35.8964
38.0993
40.4233
42.8724
45.4505
48.1617
51.01
53.9996
57.1344
60.4185
63.8555
67.4501
71.2058
75.1271
79.2171
83.4805
87.9206
92.5417
97.3468
102.34
107.526
112.906
118.485
124.266
130.251
136.443
142.845
149.459
156.287
163.331
170.591
178.067
185.761
193.672
201.798
210.136
218.685
227.44
236.395
245.546
254.883
264.399
274.084
283.924
293.906
304.016
314.235
324.546
334.925
345.35
355.803
366.266
9.00268
9.46063
9.91118
10.3891
10.9191
11.493
12.107
12.7692
13.4855
14.2583
15.0905
15.9862
16.9491
17.9828
19.0908
20.277
21.5449
22.8984
24.3412
25.8773
27.5104
29.2445
31.0835
33.0315
35.0924
37.2704
39.5693
41.9935
44.5468
47.2336
50.0577
53.0234
56.1348
59.3961
62.8113
66.3845
70.1197
74.0212
78.0926
82.3382
86.762
91.3674
96.1591
101.14
106.314
111.685
117.255
123.029
129.01
135.199
141.601
148.217
155.048
162.098
169.367
176.855
184.563
192.49
200.637
208.999
217.575
226.361
235.352
244.544
253.925
263.492
273.231
283.133
293.183
303.367
313.668
324.067
334.542
345.073
355.633
366.202
376.761
8.61505
9.06523
9.51409
9.98681
10.5072
11.0704
11.6731
12.3223
13.0242
13.7815
14.597
15.4749
16.419
17.433
18.5204
19.6851
20.9308
22.2614
23.6808
25.1928
26.8015
28.5107
30.3246
32.2471
34.2823
36.4345
38.7077
41.1061
43.6338
46.2952
49.0941
52.0351
55.1224
58.3599
61.7519
65.3026
69.0161
72.8969
76.9485
81.1752
85.5813
90.1705
94.9469
99.9139
105.076
110.435
115.997
121.763
127.738
133.924
140.324
146.94
153.774
160.829
168.105
175.604
183.325
191.269
199.434
207.82
216.422
225.239
234.265
243.495
252.923
262.537
272.332
282.294
292.411
302.668
313.049
323.535
334.106
344.74
355.412
366.096
376.77
387.41
8.22877
8.67152
9.11799
9.58526
10.096
10.6485
11.2397
11.876
12.5634
13.3049
14.1036
14.9635
15.8886
16.8825
17.949
19.0919
20.3151
21.6225
23.018
24.5055
26.0891
27.773
29.561
31.4573
33.4663
35.592
37.8386
40.2105
42.7118
45.3468
48.1199
51.0351
54.097
57.3098
60.6778
64.205
67.8958
71.7543
75.785
79.9919
84.3793
88.9507
93.7106
98.6627
103.811
109.159
114.71
120.468
126.435
132.616
139.013
145.628
152.465
159.523
166.806
174.314
182.047
190.007
198.191
206.598
215.226
224.072
233.132
242.4
251.871
261.535
271.383
281.405
291.587
301.917
312.377
322.95
333.616
344.352
355.135
365.94
376.736
387.501
398.204
7.84384
8.2796
8.723
9.18469
9.68596
10.2275
10.8072
11.4303
12.1031
12.8287
13.6103
14.4521
15.3579
16.3315
17.3768
18.4977
19.698
20.9818
22.3529
23.8155
25.3736
27.0314
28.7931
30.6627
32.6446
34.7432
36.9625
39.307
41.781
44.3888
47.135
50.0238
53.0591
56.2461
59.5889
63.0915
66.7585
70.5941
74.6027
78.7884
83.1554
87.7083
92.4504
97.3862
102.519
107.854
113.394
119.141
125.102
131.276
137.669
144.283
151.119
158.18
165.469
172.985
180.73
188.703
196.905
205.333
213.987
222.861
231.954
241.259
250.771
260.483
270.384
280.465
290.713
301.114
311.653
322.311
333.07
343.908
354.802
365.724
376.649
387.545
398.389
409.135
7.46049
7.88963
8.32929
8.78518
9.27702
9.8077
10.3755
10.9855
11.6435
12.353
13.1175
13.9409
14.8272
15.7804
16.8042
17.9027
19.0798
20.3395
21.6859
23.1231
24.6552
26.2865
28.0212
29.8635
31.8177
33.8883
36.0796
38.396
40.8418
43.4216
46.1398
49.0009
52.0093
55.1693
58.4857
61.9624
65.6046
69.4161
73.4013
77.5647
81.9103
86.4431
91.1664
96.0846
101.202
106.522
112.049
117.785
123.736
129.904
136.291
142.901
149.738
156.801
164.093
171.616
179.371
187.358
195.575
204.024
212.701
221.604
230.728
240.071
249.625
259.382
269.335
279.474
289.786
300.257
310.873
321.617
332.469
343.408
354.41
365.45
376.502
387.535
398.518
409.424
420.194
7.07874
7.50166
7.93708
8.38688
8.86932
9.38906
9.94503
10.5416
11.1847
11.8781
12.6252
13.43
14.2967
15.2291
16.2312
17.307
18.4605
19.6959
21.0171
22.4284
23.9341
25.5383
27.2454
29.0598
30.9857
33.0278
35.1902
37.4776
39.8944
42.4453
45.1347
47.9672
50.9473
54.0793
57.3684
60.8185
64.4343
68.2203
72.1811
76.3209
80.6441
85.1553
89.8585
94.758
99.858
105.162
110.675
116.399
122.339
128.498
134.879
141.485
148.319
155.383
162.679
170.208
177.971
185.97
194.203
202.671
211.37
220.3
229.456
238.833
248.427
258.231
268.235
278.43
288.805
299.347
310.04
320.867
331.811
342.849
353.96
365.117
376.294
387.462
398.59
409.645
420.598
431.369
6.69871
7.11585
7.54643
7.98997
8.46306
8.97175
9.51573
10.0988
10.727
11.4041
12.1336
12.9197
13.7665
14.678
15.6581
16.7109
17.8405
19.0511
20.3468
21.7319
23.2106
24.7873
26.4662
28.252
30.149
32.1617
34.2946
36.5522
38.9393
41.4603
44.12
46.9229
49.8737
52.9769
56.2372
59.6594
63.2481
67.0074
70.9424
75.0572
79.3569
83.8453
88.5271
93.4066
98.4876
103.774
109.272
114.982
120.91
127.06
133.432
140.033
146.864
153.927
161.224
168.758
176.53
184.539
192.787
201.272
209.993
218.948
228.134
237.547
247.18
257.028
267.082
277.333
287.77
298.381
309.149
320.06
331.094
342.232
353.449
364.723
376.025
387.328
398.599
409.808
420.918
431.902
442.649
6.3205
6.73229
7.15758
7.59456
8.05833
8.55594
9.08773
9.65736
10.2704
10.931
11.6429
12.4101
13.2368
14.1271
15.085
16.1145
17.22
18.4055
19.6753
21.0336
22.4849
24.0334
25.6838
27.4404
29.3077
31.2904
33.3929
35.6202
37.9766
40.4669
43.0959
45.8682
48.7888
51.862
55.0929
58.4858
62.0457
65.7775
69.6856
73.7742
78.0486
82.5132
87.1722
92.03
97.0913
102.36
107.84
113.535
119.45
125.588
131.952
138.545
145.372
152.432
159.73
167.268
175.046
183.065
191.326
199.827
208.568
217.549
226.763
236.209
245.881
255.772
265.875
276.182
286.68
297.358
308.202
319.195
330.319
341.554
352.878
364.267
375.694
387.13
398.545
409.906
421.179
432.329
443.324
454.02
5.94421
6.35105
6.77059
7.20077
7.65526
8.14172
8.66128
9.21723
9.81504
10.4591
11.1532
11.9014
12.7078
13.5767
14.5121
15.5181
16.5991
17.7591
19.0026
20.3339
21.7572
23.2772
24.8985
26.6252
28.4623
30.4143
32.4858
34.6818
37.0067
39.4654
42.0628
44.8037
47.6928
50.735
53.9352
57.2978
60.8281
64.5308
68.4105
72.472
76.7198
81.1591
85.7938
90.6288
95.6683
100.917
106.379
112.057
117.957
124.083
130.436
137.021
143.841
150.899
158.197
165.736
173.519
181.546
189.819
198.336
207.096
216.099
225.342
234.82
244.529
254.463
264.614
274.975
285.533
296.278
307.196
318.27
329.483
340.816
352.245
363.749
375.299
386.867
398.425
409.938
421.373
432.694
443.865
454.852
465.471
5.57003
5.97219
6.38563
6.80875
7.25392
7.72932
8.23647
8.77866
9.36116
9.98856
10.6647
11.3937
12.1797
13.0269
13.9396
14.9219
15.978
17.1123
18.3292
19.6329
21.028
22.5189
24.1104
25.8069
27.613
29.5336
31.5735
33.7372
36.03
38.4562
41.0211
43.7296
46.5861
49.5963
52.7647
56.096
59.5952
63.2677
67.1177
71.1505
75.3707
79.7833
84.3922
89.2032
94.2195
99.447
104.889
110.55
116.433
122.544
128.886
135.461
142.274
149.326
156.622
164.162
171.949
179.983
188.266
196.797
205.576
214.601
223.869
233.379
243.124
253.099
263.298
273.711
284.329
295.139
306.13
317.284
328.586
340.014
351.549
363.166
374.839