/*--------------------------------*- C++ -*----------------------------------*\
  =========                 |
  \\      /  F ield         | OpenFOAM: The Open Source CFD Toolbox
   \\    /   O peration     | Website:  https://openfoam.org
    \\  /    A nd           | Version:  7
     \\/     M anipulation  |
\*---------------------------------------------------------------------------*/
FoamFile
{
    version     2.0;
    format      ascii;
    class       surfaceScalarField;
    location    "1600";
    object      phi;
}
// * * * * * * * * * * * * * * * * * * * * * * * * * * * * * * * * * * * * * //

dimensions      [0 3 -1 0 0 0 0];

internalField   nonuniform List<scalar> 
45794
(
-0.295097
0.0426595
-0.29347
0.0451794
-0.283558
0.0409431
-0.291727
0.0477204
-0.281829
0.0434507
-0.271978
0.0394917
-0.289848
0.0501668
-0.280041
0.0459322
-0.270393
0.0418652
-0.261003
0.0379492
-0.287802
0.0525602
-0.278122
0.0482483
-0.268648
0.0441872
-0.259436
0.0402982
-0.250454
0.0364952
-0.241645
0.0329121
-0.285697
0.054944
-0.276165
0.0506026
-0.266852
0.0464528
-0.257783
0.0425344
-0.248952
0.0387958
-0.240285
0.0351354
-0.231837
0.0316594
-0.223584
0.00208129
-0.283392
0.0571189
-0.274064
0.0528438
-0.264959
0.0487088
-0.25604
0.0447095
-0.247306
0.0408889
-0.238787
0.0372972
-0.230538
0.0338368
-0.222428
0.030504
-0.214502
0.00208072
-0.281091
0.0593826
-0.271922
0.0549769
-0.262922
0.0508074
-0.254156
0.046825
-0.245618
0.0430217
-0.237296
0.0393984
-0.229097
0.0358557
-0.221132
0.0325403
-0.213354
0.0293552
-0.205774
0.00209989
-0.278598
0.0614367
-0.269637
0.0570971
-0.260842
0.0528967
-0.25223
0.0488814
-0.243839
0.0450456
-0.235615
0.0413406
-0.227563
0.0378646
-0.219793
0.0345166
-0.212111
0.0312977
-0.20464
0.0282212
-0.197354
0.00210912
-0.276062
0.0635278
-0.267309
0.0591088
-0.258622
0.054877
-0.250211
0.0508775
-0.241968
0.0470102
-0.233942
0.0433725
-0.226036
0.0398141
-0.218362
0.0364335
-0.210775
0.0331809
-0.203447
0.0301051
-0.196285
0.0271517
-0.189289
0.00211844
-0.273487
0.0655096
-0.264841
0.0610603
-0.256409
0.0568956
-0.248151
0.052817
-0.240057
0.0489665
-0.232128
0.0451965
-0.224369
0.0417049
-0.21679
0.0382418
-0.209397
0.0350548
-0.202192
0.0319252
-0.195136
0.0289568
-0.188251
0.026114
-0.181543
0.00212761
-0.270725
0.0673835
-0.262286
0.062954
-0.254058
0.0587094
-0.245901
0.0546461
-0.238005
0.0507656
-0.230224
0.0470625
-0.222661
0.0434885
-0.215176
0.0400913
-0.207975
0.0368205
-0.200838
0.0337014
-0.193919
0.0307081
-0.18715
0.0278551
-0.180551
0.0251216
-0.174112
0.00213662
-0.267976
0.069246
-0.259691
0.0647887
-0.251616
0.0605117
-0.243661
0.0564692
-0.235914
0.052555
-0.228278
0.0488197
-0.22081
0.0452124
-0.213519
0.0418318
-0.206413
0.0385286
-0.199427
0.0354097
-0.192629
0.0324114
-0.185984
0.0295427
-0.179494
0.0267983
-0.173158
0.0241675
-0.166972
0.00214082
-0.265092
0.0710022
-0.25701
0.0665644
-0.249136
0.0623088
-0.241382
0.0582326
-0.233732
0.0542874
-0.226293
0.0505697
-0.218971
0.04698
-0.211822
0.0435155
-0.204808
0.0402272
-0.197974
0.037075
-0.191281
0.0340618
-0.184746
0.0311728
-0.178363
0.0284122
-0.172135
0.0257747
-0.166055
0.0232499
-0.160129
0.00214993
-0.26217
0.0727474
-0.25429
0.0682823
-0.246568
0.0639963
-0.238964
0.0598907
-0.231463
0.055963
-0.224169
0.0521637
-0.21699
0.0485891
-0.209985
0.0451425
-0.203163
0.0418708
-0.19643
0.0386835
-0.189861
0.0356548
-0.183439
0.0327553
-0.177174
0.0299835
-0.171052
0.0273295
-0.165072
0.0247925
-0.159246
0.022367
-0.153556
0.00215411
-0.259167
0.0743394
-0.251437
0.0698943
-0.243863
0.0655781
-0.236458
0.0614902
-0.229154
0.0575816
-0.222005
0.0537987
-0.215019
0.0501923
-0.208157
0.046761
-0.201426
0.0434056
-0.194798
0.0402387
-0.188374
0.0371964
-0.182075
0.0342904
-0.175922
0.031503
-0.169906
0.0288372
-0.164031
0.026288
-0.158303
0.0238498
-0.152707
0.0215171
-0.147251
0.00216321
-0.256076
0.0759206
-0.248546
0.0714486
-0.241171
0.0672017
-0.233915
0.0630353
-0.226757
0.0590936
-0.219801
0.0553781
-0.21296
0.0517401
-0.206191
0.0482263
-0.1996
0.0449344
-0.193131
0.0417384
-0.18683
0.0386949
-0.180648
0.0357696
-0.174607
0.0329754
-0.168701
0.0302981
-0.16293
0.0277367
-0.157301
0.0252858
-0.151797
0.02294
-0.146433
0.0206988
-0.141192
0.00216738
-0.252904
0.0774482
-0.245572
0.0729468
-0.238394
0.0686714
-0.231286
0.0645727
-0.224321
0.0605995
-0.217511
0.0568028
-0.210762
0.0531801
-0.204182
0.0497312
-0.197732
0.0463584
-0.191394
0.0431975
-0.185224
0.0401322
-0.179159
0.0372061
-0.173234
0.0343965
-0.167438
0.0317123
-0.161771
0.0291389
-0.15624
0.0266755
-0.150832
0.0243214
-0.145559
0.0220665
-0.140409
0.0199152
-0.135391
0.00217632
-0.249698
0.0789195
-0.242562
0.0744384
-0.235531
0.0700837
-0.228618
0.0660034
-0.221798
0.0620497
-0.215181
0.0582698
-0.208574
0.0546142
-0.202136
0.0511338
-0.195776
0.047775
-0.189624
0.0445887
-0.183552
0.0415254
-0.177615
0.0385886
-0.171799
0.0357714
-0.166117
0.0330758
-0.160554
0.030495
-0.155124
0.0280237
-0.149818
0.0256615
-0.144631
0.0233931
-0.13957
0.0212277
-0.134635
0.01916
-0.129816
0.00218049
-0.246459
0.080285
-0.23942
0.0757773
-0.232633
0.0715406
-0.225915
0.0673809
-0.219239
0.0634441
-0.212714
0.0595832
-0.206299
0.0559954
-0.200001
0.0524796
-0.193829
0.0491871
-0.187795
0.0459457
-0.181831
0.0428681
-0.176013
0.0399231
-0.170311
0.037101
-0.164744
0.0343983
-0.159288
0.0318103
-0.153956
0.0293262
-0.148746
0.026951
-0.143653
0.0246836
-0.138681
0.0225042
-0.13383
0.020422
-0.129088
0.0184317
-0.124468
0.00218955
-0.243088
0.0815972
-0.236293
0.0771582
-0.22965
0.0727941
-0.223077
0.0687025
-0.216594
0.0647359
-0.210211
0.0609402
-0.203985
0.0572688
-0.197826
0.0538208
-0.191793
0.0504435
-0.185851
0.0472436
-0.180053
0.0441677
-0.174355
0.0412098
-0.168774
0.0383858
-0.163314
0.0356709
-0.157965
0.0330754
-0.152734
0.0305883
-0.147624
0.0282046
-0.142621
0.0259189
-0.137738
0.0237402
-0.132969
0.0216435
-0.128309
0.0196432
-0.123765
0.017729
-0.119332
0.00218881
-0.239635
0.0828534
-0.233082
0.0783865
-0.226584
0.0740922
-0.220253
0.0699697
-0.213912
0.0660202
-0.207719
0.0622443
-0.201634
0.0585898
-0.195615
0.0550569
-0.189682
0.0517101
-0.183903
0.0484947
-0.178221
0.0454109
-0.172642
0.0424547
-0.167183
0.0396188
-0.161831
0.0369033
-0.156589
0.0342943
-0.151459
0.0318003
-0.146444
0.0294083
-0.14154
0.0271236
-0.136745
0.0249259
-0.132058
0.0228296
-0.12749
0.0208243
-0.123022
0.0188997
-0.118663
0.0170604
-0.114413
0.00219772
-0.236199
0.084106
-0.229839
0.0796098
-0.223532
0.0753345
-0.217344
0.0711837
-0.211144
0.0672019
-0.205092
0.0633935
-0.199145
0.0597548
-0.193313
0.0562884
-0.187549
0.0529239
-0.181895
0.049703
-0.176337
0.046611
-0.170882
0.0436506
-0.165538
0.0408091
-0.160298
0.0380854
-0.155166
0.0354806
-0.150142
0.0329777
-0.145226
0.030582
-0.140415
0.0282835
-0.135708
0.0260865
-0.131113
0.0239805
-0.12662
0.0219603
-0.122228
0.0200304
-0.117944
0.0181803
-0.113767
0.0164147
-0.109686
0.00220187
-0.232732
0.0852558
-0.226514
0.0807814
-0.220399
0.0764767
-0.214352
0.072342
-0.208339
0.0683789
-0.202478
0.0645877
-0.196719
0.0609673
-0.190975
0.0574163
-0.185337
0.054076
-0.179827
0.0508559
-0.1744
0.047766
-0.169069
0.0447987
-0.163841
0.041954
-0.158717
0.0392283
-0.153691
0.0366104
-0.14877
0.0341089
-0.143954
0.0317056
-0.139236
0.0294036
-0.134622
0.0271974
-0.130108
0.0250819
-0.125696
0.0230567
-0.121389
0.0211213
-0.117184
0.0192703
-0.113076
0.0174888
-0.109062
0.0157909
-0.10515
0.002201
-0.229134
0.0863524
-0.223156
0.0818971
-0.217179
0.0775618
-0.211322
0.0734473
-0.205501
0.0695042
-0.199828
0.0657289
-0.194156
0.0620253
-0.18855
0.0585422
-0.183112
0.0551915
-0.177712
0.051961
-0.172412
0.0488679
-0.167208
0.045905
-0.162102
0.0430598
-0.15709
0.0403272
-0.152175
0.0377124
-0.147359
0.035199
-0.142635
0.0327908
-0.13801
0.0304791
-0.133487
0.0282691
-0.129065
0.0261538
-0.124738
0.0241233
-0.12051
0.0221776
-0.116379
0.020316
-0.112338
0.0185331
-0.108402
0.0168287
-0.104557
0.0151974
-0.100801
0.00220514
-0.225552
0.0873959
-0.219716
0.0829128
-0.213929
0.0786474
-0.208262
0.0745021
-0.202628
0.0705738
-0.197091
0.0667676
-0.191558
0.0631307
-0.186155
0.0596311
-0.180822
0.0562529
-0.175553
0.0530318
-0.170386
0.0499346
-0.165305
0.0469649
-0.160315
0.0441178
-0.155413
0.0413821
-0.150607
0.0387591
-0.145894
0.0362474
-0.141274
0.0338372
-0.136746
0.0315272
-0.132319
0.0293114
-0.127982
0.0271863
-0.123735
0.0251509
-0.119586
0.0231995
-0.115533
0.0213321
-0.111566
0.0195431
-0.107696
0.0178273
-0.103917
0.0161891
-0.100227
0.0146234
-0.096629
0.002214
-0.221892
0.0883878
-0.216244
0.0839237
-0.210644
0.0796278
-0.205165
0.0755497
-0.199719
0.0715932
-0.194271
0.0677534
-0.188922
0.0641311
-0.183655
0.0606302
-0.178466
0.057275
-0.17335
0.0540499
-0.168311
0.0509572
-0.163356
0.0479857
-0.158482
0.0451319
-0.153694
0.0423992
-0.149003
0.0397779
-0.144393
0.0372581
-0.13987
0.0348433
-0.135438
0.0325287
-0.131102
0.0303097
-0.126851
0.0281801
-0.122688
0.0261395
-0.118623
0.0241876
-0.114643
0.0223094
-0.110753
0.020519
-0.106949
0.0187966
-0.103242
0.0171517
-0.0996122
0.015574
-0.0960735
0.014068
-0.0926233
0.00221812
-0.2182
0.089328
-0.21274
0.0848844
-0.207328
0.0806074
-0.201987
0.0764503
-0.196678
0.0725087
-0.191414
0.0687359
-0.18625
0.0650814
-0.181129
0.0616049
-0.176078
0.0582421
-0.171094
0.0550189
-0.166186
0.0519245
-0.161357
0.0489575
-0.156603
0.0461068
-0.151934
0.0433723
-0.147347
0.0407429
-0.14284
0.0382248
-0.138423
0.0358117
-0.134088
0.0334938
-0.129843
0.0312698
-0.125676
0.029135
-0.121602
0.0270942
-0.117615
0.0251318
-0.113713
0.0232574
-0.109899
0.0214561
-0.106167
0.019737
-0.102525
0.0180804
-0.0989608
0.0165003
-0.0954865
0.014987
-0.0920903
0.0135349
-0.0887791
0.00221724
-0.214427
0.0901657
-0.209155
0.0857424
-0.20393
0.0814858
-0.198774
0.0773946
-0.193699
0.0734718
-0.18857
0.0696655
-0.183542
0.0660283
-0.178574
0.0625268
-0.173647
0.0591737
-0.168804
0.0559528
-0.164028
0.0528615
-0.15932
0.0498879
-0.154686
0.0470403
-0.150135
0.0443076
-0.145656
0.0416813
-0.141257
0.03916
-0.136936
0.0367375
-0.132697
0.03442
-0.128545
0.0321963
-0.124468
0.0300615
-0.120483
0.0280156
-0.116573
0.0260525
-0.112748
0.0241672
-0.109006
0.0223644
-0.105345
0.0206339
-0.101768
0.0189801
-0.0982735
0.017393
-0.0948583
0.0158722
-0.0915205
0.0144172
-0.0882722
0.013028
-0.0850913
0.00222133
-0.210624
0.0910524
-0.205587
0.0865985
-0.200547
0.0823596
-0.195576
0.0782873
-0.190588
0.0742828
-0.185643
0.0705449
-0.180781
0.066904
-0.175954
0.0634085
-0.171179
0.0600587
-0.166472
0.0568411
-0.161826
0.0537509
-0.157244
0.0507854
-0.152732
0.0479347
-0.148292
0.0451966
-0.143919
0.0425708
-0.139631
0.0400549
-0.135411
0.0376355
-0.131273
0.0353135
-0.127211
0.0330852
-0.123222
0.0309507
-0.11932
0.0288984
-0.115493
0.0269349
-0.111744
0.0250486
-0.108079
0.0232396
-0.104488
0.0215073
-0.100981
0.0198467
-0.0975505
0.0182571
-0.0941941
0.0167288
-0.0909194
0.0152711
-0.0877239
0.013869
-0.0845999
0.0125367
-0.0815547
0.00222528
-0.20684
0.0918392
-0.201939
0.0874043
-0.197083
0.0831349
-0.192248
0.0790319
-0.187445
0.0751442
-0.182683
0.071322
-0.177966
0.0677305
-0.173301
0.064251
-0.168673
0.0609023
-0.164104
0.0576907
-0.159583
0.0545975
-0.155128
0.0516352
-0.150736
0.0487891
-0.146412
0.0460552
-0.142156
0.0434338
-0.13797
0.0409099
-0.133846
0.0384896
-0.129805
0.036168
-0.125839
0.0339414
-0.121938
0.0318011
-0.118118
0.0297495
-0.114374
0.0277798
-0.110706
0.0258969
-0.107111
0.0240814
-0.103596
0.0223473
-0.100158
0.0206846
-0.096787
0.0190832
-0.0934989
0.017562
-0.090287
0.0160964
-0.087144
0.0146912
-0.0840768
0.0133459
-0.081083
0.012065
-0.0781643
0.00222934
-0.202975
0.0925732
-0.19826
0.08816
-0.193589
0.0839096
-0.188936
0.079823
-0.184315
0.0759019
-0.179686
0.072148
-0.175167
0.068523
-0.170614
0.0650434
-0.166127
0.0617057
-0.161691
0.0584899
-0.157304
0.0554125
-0.152979
0.0524486
-0.148704
0.049603
-0.144492
0.0468687
-0.140349
0.0442479
-0.136262
0.0417258
-0.132248
0.0393122
-0.128302
0.0369861
-0.124429
0.0347587
-0.120615
0.0326188
-0.116884
0.0305663
-0.113226
0.0286011
-0.109634
0.0267073
-0.10611
0.0248954
-0.102669
0.0231547
-0.099296
0.0214848
-0.0959931
0.0198908
-0.0927731
0.0183573
-0.089614
0.0168889
-0.0865328
0.0154853
-0.0835221
0.0141365
-0.0805793
0.0128422
-0.0777064
0.0116071
-0.0749052
0.00223324
-0.199032
0.0932101
-0.1945
0.0888133
-0.190059
0.0846302
-0.185591
0.0805638
-0.181152
0.0766603
-0.176706
0.0729213
-0.172287
0.0692678
-0.167886
0.0657944
-0.163543
0.0624588
-0.159241
0.0592552
-0.154989
0.0561749
-0.150786
0.0532192
-0.146634
0.0503783
-0.142538
0.0476495
-0.138506
0.0450256
-0.134528
0.0425139
-0.130614
0.040091
-0.126767
0.0377779
-0.122987
0.0355433
-0.119265
0.0334087
-0.115617
0.0313517
-0.112039
0.0293794
-0.108524
0.0274907
-0.105079
0.0256766
-0.101713
0.023939
-0.0984084
0.0222671
-0.0951739
0.0206656
-0.0920116
0.0191293
-0.0889147
0.017658
-0.0858903
0.0162464
-0.0829311
0.0148943
-0.080044
0.0136012
-0.0772214
0.0123572
-0.0744652
0.011167
-0.0717774
0.00223244
-0.195107
0.0938935
-0.190807
0.089517
-0.1865
0.085255
-0.182164
0.0812036
-0.177906
0.0773177
-0.173596
0.0735503
-0.169338
0.0699724
-0.165126
0.0665088
-0.160928
0.0631793
-0.156766
0.0599841
-0.152641
0.0569072
-0.148565
0.0539535
-0.144529
0.0511145
-0.140555
0.0483952
-0.136632
0.0457755
-0.132759
0.0432571
-0.128944
0.0408446
-0.125196
0.0385195
-0.121502
0.036293
-0.11788
0.0341575
-0.114316
0.032108
-0.110818
0.0301312
-0.107385
0.0282404
-0.104014
0.0264253
-0.100717
0.0246808
-0.0974812
0.0230118
-0.0943147
0.0214079
-0.0912151
0.019869
-0.0881801
0.0183948
-0.0852122
0.0169799
-0.082309
0.0156243
-0.0794772
0.0143274
-0.0767047
0.0130845
-0.0740029
0.011895
-0.0713594
0.010749
-0.0687805
0.0022363
-0.191152
0.0944798
-0.187036
0.0901223
-0.182908
0.0859249
-0.178802
0.0818925
-0.174677
0.0779746
-0.170511
0.0742333
-0.166424
0.0706356
-0.162336
0.0671817
-0.158281
0.063862
-0.154252
0.0606653
-0.150259
0.0576016
-0.14631
0.0546526
-0.142396
0.0518206
-0.138538
0.049097
-0.134718
0.0464819
-0.130956
0.0439726
-0.127249
0.0415619
-0.123594
0.0392422
-0.120002
0.0370198
-0.116462
0.034875
-0.112983
0.0328247
-0.109567
0.0308567
-0.106212
0.0289588
-0.10292
0.0271467
-0.0996969
0.0254053
-0.0965295
0.0237291
-0.0934257
0.0221228
-0.090393
0.0205859
-0.0874196
0.0191085
-0.084508
0.0176906
-0.0816653
0.0163362
-0.0788839
0.015031
-0.0761613
0.013784
-0.073504
0.0125855
-0.0709093
0.0114448
-0.0683787
0.0103473
-0.0659093
0.00224014
-0.187168
0.0950658
-0.183232
0.0906762
-0.179285
0.0864992
-0.17531
0.0824334
-0.171339
0.0785552
-0.167382
0.074845
-0.163449
0.0712586
-0.159515
0.0678145
-0.155599
0.0644996
-0.151707
0.0613163
-0.147851
0.0582574
-0.144024
0.0553154
-0.140229
0.0524853
-0.136484
0.0497673
-0.132779
0.0471578
-0.129125
0.0446504
-0.125517
0.0422403
-0.121959
0.0399274
-0.118459
0.0376993
-0.115009
0.035567
-0.11162
0.0335122
-0.108286
0.0315434
-0.10501
0.0296544
-0.101798
0.0278365
-0.0986436
0.0260934
-0.0955433
0.0244191
-0.0925117
0.0228151
-0.0895409
0.0212706
-0.0866241
0.0197903
-0.0837732
0.0183737
-0.0809859
0.0170111
-0.0782548
0.0157071
-0.0755913
0.014461
-0.0729831
0.0132631
-0.070437
0.0121133
-0.0679498
0.0110159
-0.0655185
0.00995645
-0.0631446
0.00223927
-0.183151
0.0955507
-0.179347
0.0911801
-0.175629
0.0870207
-0.171834
0.0830235
-0.168043
0.0791368
-0.164245
0.075418
-0.16045
0.0718464
-0.156663
0.0684073
-0.152885
0.0651008
-0.149134
0.0619273
-0.145405
0.0588704
-0.141702
0.0559354
-0.138032
0.0531186
-0.134408
0.0504089
-0.130813
0.0478013
-0.127262
0.0452946
-0.123756
0.04289
-0.120299
0.0405799
-0.11689
0.0383585
-0.113531
0.0362219
-0.110229
0.0341761
-0.106977
0.0322038
-0.10378
0.0303138
-0.100642
0.0284986
-0.097559
0.0267519
-0.0945317
0.0250817
-0.091568
0.0234754
-0.0886588
0.021933
-0.0858079
0.0204544
-0.0830176
0.0190347
-0.0802856
0.0176734
-0.077609
0.0163654
-0.0749948
0.0151106
-0.0724308
0.0139087
-0.069933
0.0127592
-0.067489
0.0116525
-0.0651004
0.0105979
-0.0627736
0.00958547
-0.0604957
0.00223826
-0.179058
0.0959895
-0.175482
0.0916862
-0.171944
0.0874948
-0.168326
0.0835126
-0.164683
0.0796634
-0.161064
0.0759559
-0.157421
0.0723892
-0.153782
0.0689649
-0.15015
0.0656719
-0.146535
0.0625018
-0.142936
0.0594583
-0.139358
0.0565267
-0.135809
0.053712
-0.132298
0.0510092
-0.12881
0.0484059
-0.125371
0.0459109
-0.121967
0.0435056
-0.118606
0.0411975
-0.115289
0.0389789
-0.112025
0.0368526
-0.108807
0.0347998
-0.105635
0.0328342
-0.102523
0.030947
-0.0994577
0.0291296
-0.0964472
0.0273869
-0.0934937
0.0257139
-0.0905953
0.0241089
-0.0877471
0.0225637
-0.0849569
0.021082
-0.0822269
0.0196637
-0.0795497
0.0182988
-0.0769275
0.0169919
-0.0743673
0.0157378
-0.0718567
0.0145366
-0.0694023
0.013378
-0.0670061
0.0122762
-0.06466
0.011212
-0.0623752
0.0101994
-0.060139
0.00922879
-0.0579622
0.00224678
-0.174983
0.0964281
-0.171636
0.0921437
-0.168227
0.0879686
-0.164801
0.0839693
-0.161316
0.0801462
-0.157854
0.0764536
-0.154367
0.0729018
-0.150875
0.0694824
-0.147384
0.0661993
-0.143905
0.0630412
-0.140436
0.0600012
-0.136986
0.0570866
-0.133561
0.0542788
-0.130163
0.0515768
-0.126787
0.0489866
-0.123451
0.0464861
-0.120149
0.0440926
-0.116889
0.0417886
-0.113667
0.0395756
-0.110494
0.0374472
-0.107359
0.0354047
-0.104276
0.0334406
-0.101237
0.0315476
-0.0982485
0.0297378
-0.0953168
0.0279991
-0.0924294
0.0263226
-0.0895974
0.0247161
-0.0868106
0.0231724
-0.0840856
0.0216924
-0.0814156
0.0202708
-0.0787931
0.0189071
-0.0762251
0.0175964
-0.0737137
0.0163383
-0.0712516
0.0151327
-0.068845
0.0139792
-0.0664964
0.0128683
-0.0641974
0.0118136
-0.0619545
0.0107913
-0.0597549
0.00981533
-0.0576144
0.00888097
-0.0555201
0.00224582
-0.170878
0.096818
-0.16771
0.0925015
-0.164475
0.0883923
-0.161248
0.0844156
-0.157935
0.0805876
-0.154619
0.0769113
-0.151284
0.0733707
-0.147943
0.0699698
-0.144597
0.0666952
-0.141252
0.0635469
-0.137912
0.0605176
-0.134588
0.0576028
-0.13128
0.0548057
-0.127995
0.0521107
-0.124737
0.0495262
-0.121507
0.0470424
-0.118311
0.0446482
-0.115142
0.0423449
-0.112015
0.0401361
-0.10893
0.0380118
-0.105884
0.0359721
-0.10288
0.0340086
-0.099923
0.0321268
-0.0970171
0.0303162
-0.094153
0.028574
-0.0913367
0.0269064
-0.0885708
0.0252961
-0.0858539
0.0237594
-0.0831895
0.0222763
-0.0805743
0.0208511
-0.0780109
0.0194886
-0.0754969
0.0181789
-0.073039
0.0169217
-0.0706299
0.0157166
-0.0682711
0.0145587
-0.065965
0.0134478
-0.0637079
0.0123788
-0.0615019
0.0113611
-0.0593484
0.0103848
-0.0572441
0.00944498
-0.0551902
0.00855104
-0.0531836
0.00224947
-0.166786
0.0972089
-0.163802
0.09291
-0.160764
0.08879
-0.15767
0.0848146
-0.154522
0.0810029
-0.151367
0.0773352
-0.148181
0.0738082
-0.14499
0.0704172
-0.141778
0.067151
-0.138573
0.0640163
-0.135362
0.0609968
-0.132166
0.0580962
-0.12898
0.0553026
-0.125812
0.052623
-0.122665
0.0500393
-0.119537
0.0475562
-0.116436
0.0451676
-0.113372
0.0428784
-0.110344
0.0406737
-0.107349
0.038555
-0.104387
0.0365146
-0.101467
0.0345587
-0.0985906
0.0326762
-0.0957537
0.0308634
-0.0929656
0.0291289
-0.0902191
0.0274564
-0.0875194
0.025855
-0.0848678
0.0243099
-0.0822637
0.0228336
-0.0797128
0.0214147
-0.0772034
0.0200437
-0.0747431
0.0187348
-0.0723384
0.0174784
-0.0699772
0.016269
-0.0676659
0.0151114
-0.065407
0.0140007
-0.0631965
0.0129364
-0.0610369
0.0119138
-0.0589196
0.0109323
-0.0568512
0.00999196
-0.054833
0.00908775
-0.0528614
0.00822893
-0.0509427
0.00224832
-0.162635
0.0974545
-0.159815
0.0932215
-0.156966
0.0891128
-0.154048
0.0851673
-0.151084
0.0813768
-0.148089
0.0777254
-0.145059
0.0742133
-0.142012
0.0708308
-0.138945
0.0675844
-0.135873
0.0644505
-0.13279
0.0614444
-0.129721
0.058551
-0.126653
0.0557694
-0.123602
0.0530919
-0.120561
0.0505188
-0.117543
0.0480449
-0.114547
0.0456669
-0.111581
0.043377
-0.108643
0.0411779
-0.105737
0.039062
-0.102863
0.0370307
-0.100025
0.0350727
-0.0972262
0.0331943
-0.0944717
0.0313942
-0.0917583
0.0296561
-0.0890794
0.0279891
-0.0864494
0.0263864
-0.0838625
0.0248497
-0.0813227
0.023369
-0.0788263
0.0219472
-0.0763709
0.0205821
-0.0739736
0.0192741
-0.071617
0.0180134
-0.0693034
0.0168046
-0.0670443
0.0156474
-0.0648321
0.0145366
-0.0626634
0.0134676
-0.0605403
0.0124398
-0.0584639
0.0114581
-0.056436
0.0105171
-0.054458
0.00961694
-0.0525263
0.00875261
-0.0506326
0.00791888
-0.0487878
0.00225199
-0.158482
0.0977481
-0.155855
0.0934944
-0.153167
0.0894218
-0.150427
0.0854926
-0.147629
0.081712
-0.144788
0.0780755
-0.141914
0.0745796
-0.13901
0.0712107
-0.136086
0.0679715
-0.133146
0.0648574
-0.130202
0.061862
-0.127253
0.0589771
-0.124308
0.0562061
-0.121372
0.0535393
-0.118441
0.0509718
-0.115529
0.048505
-0.112637
0.0461348
-0.109766
0.0438519
-0.106923
0.041657
-0.104103
0.039544
-0.101318
0.0375169
-0.0985656
0.0355716
-0.0958495
0.033696
-0.0931662
0.0318889
-0.0905191
0.0301549
-0.0879148
0.0284916
-0.0853497
0.0268894
-0.0828289
0.0253528
-0.0803476
0.0238746
-0.0779154
0.0224581
-0.0755178
0.0210941
-0.0731737
0.0197823
-0.0708699
0.018527
-0.0686086
0.0173186
-0.0663967
0.016157
-0.0642263
0.0150416
-0.062104
0.0139772
-0.0600267
0.012954
-0.0579958
0.0119717
-0.0560035
0.0110255
-0.0540606
0.0101197
-0.0521637
0.00925436
-0.0503045
0.00842449
-0.048494
0.00762511
-0.0467235
0.00225075
-0.154304
0.0979436
-0.15186
0.0937534
-0.149361
0.0896885
-0.146786
0.0857805
-0.144156
0.0820198
-0.141475
0.0783996
-0.138748
0.0749096
-0.13599
0.0715605
-0.13321
0.0683349
-0.130403
0.0652292
-0.12759
0.062246
-0.124764
0.0593731
-0.121939
0.0566079
-0.119112
0.0539468
-0.116293
0.0513913
-0.113491
0.0489338
-0.110702
0.0465706
-0.107927
0.0442955
-0.10518
0.0421085
-0.102452
0.040006
-0.0997554
0.0379817
-0.0970795
0.0360308
-0.0944409
0.034163
-0.0918373
0.0323671
-0.0892711
0.0306408
-0.0867366
0.0289767
-0.0842376
0.0273795
-0.0817803
0.0258407
-0.0793637
0.0243688
-0.0769841
0.0229433
-0.0746449
0.0215852
-0.0723584
0.0202789
-0.0701071
0.0190195
-0.067893
0.0178115
-0.0657328
0.0166547
-0.0636087
0.0155394
-0.0615277
0.0144653
-0.0594913
0.0134418
-0.0574961
0.0124543
-0.0555488
0.011517
-0.0536457
0.0106106
-0.0517835
0.00973954
-0.049954
0.00890388
-0.0481775
0.00810796
-0.0464407
0.00734232
-0.0447448
0.00224945
-0.150138
0.0981892
-0.147886
0.0939701
-0.145534
0.0899264
-0.143132
0.0860347
-0.140666
0.0822903
-0.138138
0.0786823
-0.135567
0.0752185
-0.132959
0.071878
-0.130314
0.0686645
-0.127643
0.0655746
-0.124961
0.0625999
-0.122256
0.0597377
-0.119552
0.0569859
-0.116846
0.0543418
-0.114137
0.0517907
-0.111437
0.0493375
-0.108747
0.0469786
-0.106069
0.0447127
-0.103416
0.0425313
-0.100777
0.0404331
-0.0981612
0.0384118
-0.0955762
0.0364784
-0.0930187
0.0346086
-0.0904911
0.0328169
-0.0879899
0.0310859
-0.0855251
0.0294294
-0.0830959
0.027835
-0.0807069
0.0263061
-0.0783536
0.0248307
-0.0760326
0.0234173
-0.0737565
0.0220549
-0.0715178
0.0207445
-0.069314
0.0194857
-0.0671566
0.0182831
-0.065043
0.0171216
-0.0629652
0.0160112
-0.0609301
0.0149418
-0.0589391
0.0139132
-0.0569843
0.0129299
-0.0550769
0.0119824
-0.0532039
0.0110752
-0.0513763
0.0102034
-0.0495858
0.00937129
-0.0478478
0.0085742
-0.0461398
0.00780707
-0.0444725
0.00706999
-0.0428467
0.00225281
-0.14594
0.0983259
-0.143848
0.0941509
-0.141696
0.090132
-0.13946
0.0862538
-0.137156
0.0825244
-0.134789
0.0789412
-0.132367
0.0754824
-0.129901
0.0721604
-0.127397
0.0689604
-0.124863
0.0658841
-0.122306
0.0629201
-0.119733
0.0600763
-0.117146
0.0573326
-0.11455
0.0546893
-0.111949
0.0521538
-0.109358
0.0497112
-0.106773
0.0473629
-0.104193
0.0451027
-0.101631
0.0429279
-0.099083
0.0408375
-0.0965583
0.0388302
-0.0940558
0.0368913
-0.0915695
0.0350292
-0.0891216
0.033239
-0.0866951
0.031522
-0.084305
0.0298657
-0.0819392
0.0282728
-0.079615
0.0267431
-0.0773203
0.0252727
-0.0750612
0.0238593
-0.0728381
0.0224989
-0.0706574
0.0211944
-0.0685103
0.0199409
-0.0664044
0.0187335
-0.0643323
0.0175724
-0.0623054
0.0164618
-0.0603111
0.0153922
-0.0583654
0.014368
-0.0564508
0.0133797
-0.0545784
0.0124314
-0.0527497
0.0115282
-0.0509564
0.0106554
-0.0492047
0.00982226
-0.047491
0.00901442
-0.0458117
0.00824606
-0.0441775
0.0075121
-0.0425845
0.00680773
-0.0410197
0.00225152
-0.14173
0.0984607
-0.139822
0.0943002
-0.137839
0.090294
-0.135776
0.0864483
-0.133639
0.0827374
-0.131423
0.0791592
-0.129153
0.0757275
-0.126836
0.0724177
-0.124474
0.0692376
-0.122076
0.0661734
-0.119645
0.0632229
-0.117195
0.0603822
-0.114723
0.0576532
-0.112241
0.0550243
-0.109754
0.0524945
-0.107267
0.0500626
-0.104784
0.0477223
-0.1023
0.04547
-0.0998302
0.0433022
-0.0973698
0.0412147
-0.0949312
0.0392104
-0.0925098
0.0372842
-0.0901067
0.0354286
-0.0877336
0.0336412
-0.0853831
0.0319271
-0.0830566
0.0302736
-0.0807654
0.0286919
-0.0785033
0.027161
-0.0762706
0.0256934
-0.0740713
0.0242828
-0.0719066
0.0229279
-0.0697813
0.0216228
-0.067686
0.0203701
-0.0656268
0.0191633
-0.0636057
0.018007
-0.0616246
0.0168915
-0.0596757
0.0158265
-0.0577703
0.0147971
-0.0558957
0.0138129
-0.0540676
0.0128689
-0.0522735
0.0119552
-0.0505144
0.0110862
-0.0488014
0.010252
-0.0471165
0.00944779
-0.0454752
0.00867796
-0.0438739
0.00794249
-0.0423042
0.00723184
-0.0407671
0.00655513
-0.0392776
0.00225472
-0.137488
0.0985607
-0.135774
0.0944123
-0.133977
0.0904385
-0.13208
0.0865978
-0.130099
0.0829082
-0.128044
0.0793585
-0.125929
0.0759354
-0.123754
0.0726454
-0.121526
0.0694698
-0.119257
0.0664191
-0.116961
0.0634894
-0.114634
0.0606622
-0.112284
0.0579426
-0.109914
0.0553257
-0.10754
0.0528102
-0.10516
0.0503876
-0.102769
0.0480481
-0.100388
0.04581
-0.098009
0.0436487
-0.0956396
0.0415719
-0.0932919
0.0395754
-0.0909502
0.0376508
-0.0886282
0.0358057
-0.0863298
0.0340248
-0.0840527
0.0323108
-0.0817946
0.0306651
-0.0795718
0.02908
-0.0773696
0.0275582
-0.0752003
0.0260908
-0.073063
0.0246851
-0.0709527
0.0233289
-0.0688809
0.0220274
-0.066837
0.0207738
-0.0648335
0.0195768
-0.0628631
0.0184207
-0.0609277
0.0173101
-0.0590242
0.01624
-0.0571587
0.0152149
-0.0553288
0.0142302
-0.0535402
0.0132855
-0.0517804
0.0123758
-0.0500601
0.0115009
-0.048376
0.0106608
-0.0467292
0.00986478
-0.0451211
0.00909365
-0.0435479
0.00835193
-0.0420013
0.00763959
-0.0405011
0.00696587
-0.0390343
0.00631181
-0.0375968
0.00225315
-0.133267
0.0986156
-0.131724
0.0945104
-0.130107
0.0905422
-0.128371
0.0867299
-0.126555
0.0830539
-0.124655
0.0795191
-0.122685
0.0761145
-0.120655
0.0728368
-0.118567
0.069686
-0.116438
0.0666511
-0.114269
0.0637272
-0.112057
0.0609121
-0.10983
0.0582082
-0.107572
0.0556007
-0.105305
0.053091
-0.103029
0.0506791
-0.100744
0.0483624
-0.0984584
0.0461188
-0.096172
0.0439731
-0.0938985
0.0419077
-0.0916306
0.0399106
-0.0893686
0.0379939
-0.0871264
0.036149
-0.0849014
0.0343772
-0.082699
0.0326711
-0.0805155
0.0310318
-0.0783549
0.0294482
-0.076221
0.0279315
-0.0741173
0.0264752
-0.0720371
0.0250649
-0.0699852
0.0237177
-0.0679704
0.0224185
-0.0659815
0.0211719
-0.0640247
0.0199651
-0.0621
0.0188137
-0.06021
0.017703
-0.0583513
0.0166373
-0.0565308
0.0156121
-0.0547404
0.0146265
-0.052991
0.013681
-0.0512701
0.0127752
-0.0495886
0.0119043
-0.047938
0.0110629
-0.0463245
0.0102561
-0.0447447
0.00948834
-0.0431994
0.00874519
-0.04169
0.0080406
-0.0402172
0.00735568
-0.0387681
0.00669971
-0.0373622
0.00607724
-0.0359911
0.00225616
-0.129021
0.0986506
-0.127672
0.0945638
-0.126214
0.0906171
-0.124654
0.0868248
-0.122999
0.0831735
-0.121259
0.0796573
-0.119437
0.0762712
-0.117551
0.0730107
-0.115602
0.0698721
-0.113602
0.0668494
-0.111557
0.063939
-0.109473
0.0611433
-0.107362
0.0584439
-0.105217
0.0558534
-0.103064
0.0533594
-0.100893
0.0509555
-0.0987045
0.0486395
-0.0965112
0.0464151
-0.0943243
0.0442711
-0.0921355
0.04221
-0.0899473
0.0402244
-0.0877749
0.0383169
-0.0856124
0.0364799
-0.083467
0.0347146
-0.0813331
0.0330114
-0.079223
0.0313785
-0.0771294
0.0298062
-0.0750625
0.0282896
-0.0730173
0.0268314
-0.0709942
0.0254323
-0.0690042
0.0240839
-0.0670389
0.0227861
-0.0651021
0.021539
-0.0631952
0.0203424
-0.0613212
0.0191862
-0.0594764
0.0180801
-0.0576626
0.0170142
-0.0558866
0.0159931
-0.0541402
0.0150119
-0.0524253
0.0140608
-0.0507432
0.013154
-0.0490953
0.012282
-0.0474828
0.0114491
-0.0459027
0.010641
-0.0443555
0.00986696
-0.0428381
0.00912702
-0.0413609
0.00841614
-0.0399107
0.00773413
-0.0384933
0.00708091
-0.0371189
0.00645639
-0.035765
0.00585115
-0.0344464
0.00225453
-0.124776
0.098654
-0.123594
0.0945723
-0.122314
0.0906648
-0.12093
0.0868936
-0.119434
0.0832595
-0.117848
0.0797632
-0.116176
0.0763957
-0.114428
0.0731473
-0.112617
0.070026
-0.110755
0.0670253
-0.108837
0.0641294
-0.106875
0.0613409
-0.104877
0.0586585
-0.102851
0.0560775
-0.100802
0.0535915
-0.098732
0.0511983
-0.0966443
0.0488953
-0.0945568
0.0466851
-0.0924595
0.0445504
-0.0903568
0.0424924
-0.0882582
0.0405209
-0.0861718
0.0386213
-0.0840876
0.0367921
-0.0820157
0.0350285
-0.0799538
0.0333352
-0.0779107
0.0316991
-0.0758806
0.0301297
-0.0738806
0.0286244
-0.0718975
0.0271699
-0.0699351
0.0257723
-0.0680008
0.0244289
-0.0660877
0.0231327
-0.0642065
0.0218906
-0.0623502
0.020694
-0.060522
0.0195432
-0.058727
0.0184368
-0.0569578
0.0173753
-0.055226
0.0163536
-0.0535189
0.0153718
-0.0518429
0.0144296
-0.0502042
0.0135218
-0.0485899
0.0126486
-0.0470106
0.0118098
-0.0454633
0.0110098
-0.0439489
0.0102344
-0.042464
0.00949288
-0.0410142
0.00878034
-0.0395912
0.00809663
-0.0382054
0.00744621
-0.036853
0.00681501
-0.0355254
0.00621679
-0.0342329
0.00563766
-0.0329717
0.00225731
-0.12052
0.098619
-0.119527
0.0945875
-0.118427
0.0906851
-0.117198
0.0869324
-0.11586
0.0833196
-0.114428
0.0798391
-0.112903
0.0764901
-0.111298
0.0732666
-0.109631
0.070161
-0.107895
0.0671663
-0.106099
0.0642875
-0.104266
0.061521
-0.102389
0.0588531
-0.100474
0.0562815
-0.0985309
0.0538062
-0.0965679
0.0514274
-0.094581
0.0491351
-0.0925881
0.0469266
-0.0905756
0.0448012
-0.0885674
0.0427609
-0.0865584
0.0407925
-0.0845441
0.0388932
-0.0825382
0.0370719
-0.0805383
0.0353148
-0.078556
0.0336308
-0.0765814
0.0320059
-0.0746232
0.0304417
-0.072684
0.0289331
-0.0707594
0.0274863
-0.068859
0.0260938
-0.0669854
0.0247568
-0.0651279
0.0234691
-0.0633009