/*--------------------------------*- C++ -*----------------------------------*\
  =========                 |
  \\      /  F ield         | OpenFOAM: The Open Source CFD Toolbox
   \\    /   O peration     | Website:  https://openfoam.org
    \\  /    A nd           | Version:  7
     \\/     M anipulation  |
\*---------------------------------------------------------------------------*/
FoamFile
{
    version     2.0;
    format      ascii;
    class       volVectorField;
    location    "1600";
    object      U;
}
// * * * * * * * * * * * * * * * * * * * * * * * * * * * * * * * * * * * * * //

dimensions      [0 1 -1 0 0 0 0];

internalField   nonuniform List<vector> 
23052
(
(49.5463 12.9188 -3.1608e-17)
(49.5813 12.9432 0)
(49.6402 13.1091 1.29447e-17)
(49.6062 12.969 0)
(49.6321 13.1063 5.15187e-17)
(49.6002 13.1053 6.86989e-18)
(49.6211 12.9946 1.34716e-17)
(49.6303 13.1088 5.96793e-19)
(49.612 13.117 -7.28968e-18)
(49.6085 13.0976 2.33236e-17)
(49.6312 13.0191 9.62587e-17)
(49.6326 13.1149 -7.9755e-17)
(49.6198 13.1273 -1.44064e-17)
(49.6077 13.1051 1.54455e-17)
(49.5951 13.1032 8.26733e-18)
(49.584 13.0942 8.96269e-18)
(49.638 13.0418 -2.23471e-18)
(49.636 13.123 0)
(49.6251 13.137 -9.58744e-17)
(49.6087 13.1138 1.5008e-17)
(49.5963 13.1119 2.46272e-17)
(49.5815 13.103 2.64576e-17)
(49.5616 13.0901 -2.28899e-18)
(49.5422 13.0821 0)
(49.6428 13.0629 1.78965e-17)
(49.6393 13.1321 1.29737e-16)
(49.6291 13.1467 1.09373e-16)
(49.6106 13.1232 -6.12957e-17)
(49.5971 13.1206 -1.31283e-16)
(49.5807 13.1123 -7.07055e-17)
(49.5609 13.1001 9.42024e-18)
(49.5411 13.0876 -2.54798e-18)
(49.5158 13.0776 1.53235e-21)
(49.6465 13.0824 -1.31574e-16)
(49.6423 13.1417 -1.29621e-16)
(49.6325 13.1563 -5.51209e-17)
(49.6126 13.133 4.57916e-17)
(49.5978 13.1294 -1.63232e-17)
(49.5803 13.1217 5.31232e-17)
(49.5601 13.11 -9.67305e-18)
(49.5389 13.0978 0)
(49.5149 13.0835 0)
(49.4887 13.0733 0)
(49.6493 13.1004 1.96665e-17)
(49.6448 13.1514 0)
(49.6352 13.1658 2.69253e-17)
(49.6146 13.143 2.92633e-17)
(49.5985 13.1384 -4.85072e-17)
(49.5802 13.1311 -5.25878e-17)
(49.5593 13.1199 -9.42785e-17)
(49.5373 13.1082 -2.03759e-17)
(49.513 13.0946 0)
(49.4876 13.0796 -2.39504e-17)
(49.4585 13.0686 -2.89542e-20)
(49.6516 13.1169 -2.55388e-16)
(49.6468 13.1611 0)
(49.6376 13.1752 0)
(49.6163 13.1529 -1.20129e-16)
(49.5992 13.1476 1.45999e-16)
(49.5802 13.1406 8.74669e-17)
(49.5587 13.1298 7.55172e-17)
(49.536 13.1184 -4.05217e-17)
(49.5114 13.1055 -1.08418e-17)
(49.4852 13.0911 3.60085e-17)
(49.4574 13.0752 -2.91144e-17)
(49.4267 13.0638 2.63381e-20)
(49.6537 13.1322 2.05446e-16)
(49.6485 13.1705 0)
(49.6396 13.1844 -1.84652e-16)
(49.6179 13.1628 8.97925e-17)
(49.5999 13.1568 0)
(49.5803 13.1501 1.21179e-16)
(49.5582 13.1396 -1.84511e-17)
(49.535 13.1287 8.11682e-17)
(49.5099 13.1164 0)
(49.4833 13.1025 5.94456e-17)
(49.455 13.0873 1.30937e-17)
(49.4255 13.0708 6.97809e-18)
(49.3928 13.0589 0)
(49.6555 13.1464 -3.96291e-17)
(49.6499 13.1796 5.52788e-17)
(49.6412 13.1934 -2.65833e-17)
(49.6193 13.1725 -2.87841e-17)
(49.6006 13.166 3.16422e-17)
(49.5805 13.1595 -6.28664e-19)
(49.5579 13.1494 1.48975e-16)
(49.5341 13.1389 -2.05029e-17)
(49.5086 13.1271 -8.70574e-17)
(49.4816 13.1139 -1.50442e-19)
(49.453 13.0994 5.1491e-17)
(49.4229 13.0835 0)
(49.3915 13.0662 -3.69932e-18)
(49.3572 13.054 0)
(49.6573 13.1594 -2.50822e-16)
(49.651 13.1884 0)
(49.6427 13.2021 1.84557e-16)
(49.6206 13.1821 2.8675e-17)
(49.6013 13.1751 0)
(49.5807 13.1688 -2.74721e-16)
(49.5577 13.1592 -1.48966e-16)
(49.5334 13.149 2.04113e-17)
(49.5075 13.1378 1.08322e-16)
(49.4801 13.1252 -7.0945e-17)
(49.4512 13.1113 -1.67507e-19)
(49.4209 13.0961 -6.86165e-17)
(49.389 13.0796 7.6157e-18)
(49.3559 13.0617 2.03579e-17)
(49.3199 13.0491 -3.93081e-20)
(49.6589 13.1716 -4.79548e-17)
(49.652 13.1969 -5.11931e-17)
(49.6439 13.2104 2.73468e-17)
(49.6217 13.1914 5.85805e-17)
(49.6019 13.1842 0)
(49.581 13.1781 6.74073e-19)
(49.5575 13.1688 0)
(49.5328 13.1591 -1.59534e-16)
(49.5066 13.1484 -8.55132e-17)
(49.4788 13.1364 2.37797e-17)
(49.4496 13.1231 -1.39708e-16)
(49.419 13.1086 1.23647e-16)
(49.3869 13.0928 4.42492e-17)
(49.3533 13.0757 -1.5884e-17)
(49.3186 13.0571 -8.77954e-18)
(49.2811 13.0442 4.35703e-20)
(49.6605 13.1829 2.50665e-16)
(49.6529 13.205 2.10952e-16)
(49.645 13.2184 5.33387e-17)
(49.6227 13.2005 -2.84952e-17)
(49.6025 13.1931 -3.12675e-17)
(49.5812 13.1873 1.71314e-16)
(49.5574 13.1784 -3.74609e-17)
(49.5323 13.1691 7.5188e-19)
(49.5058 13.1589 1.08073e-16)
(49.4777 13.1475 6.99494e-17)
(49.4482 13.1348 7.61417e-17)
(49.4173 13.121 -4.12435e-17)
(49.3849 13.1059 -1.17817e-16)
(49.3512 13.0895 7.6111e-18)
(49.316 13.0718 -8.57045e-18)
(49.2798 13.0527 4.65708e-18)
(49.2406 13.0394 -4.58829e-20)
(49.6622 13.1934 -2.07522e-16)
(49.6537 13.2128 -2.08107e-16)
(49.646 13.2261 1.07836e-16)
(49.6236 13.2092 -2.98232e-17)
(49.603 13.2019 2.52386e-16)
(49.5815 13.1963 1.35476e-16)
(49.5574 13.1879 -2.19885e-16)
(49.532 13.179 1.98e-16)
(49.5051 13.1693 -1.7089e-16)
(49.4768 13.1584 -1.39201e-16)
(49.447 13.1464 2.55072e-17)
(49.4158 13.1333 -8.07334e-17)
(49.3832 13.1189 7.39499e-17)
(49.3492 13.1032 -1.56988e-17)
(49.3139 13.0863 2.61759e-17)
(49.2771 13.0679 0)
(49.2393 13.0482 1.52302e-17)
(49.1985 13.0346 5.08601e-20)
(49.6638 13.2032 2.5817e-16)
(49.6545 13.2202 0)
(49.6468 13.2335 5.43972e-17)
(49.6245 13.2177 -2.60529e-16)
(49.6035 13.2104 -2.53983e-16)
(49.5818 13.2052 -1.70187e-16)
(49.5575 13.1972 2.92531e-16)
(49.5317 13.1887 -1.2594e-18)
(49.5046 13.1796 8.66664e-19)
(49.476 13.1693 0)
(49.4459 13.1579 2.45575e-17)
(49.4145 13.1454 8.17254e-17)
(49.3817 13.1317 -4.37095e-17)
(49.3474 13.1168 -6.28333e-17)
(49.3119 13.1006 0)
(49.275 13.0831 -1.01003e-19)
(49.2366 13.0642 -1.00138e-17)
(49.1972 13.0439 5.66647e-18)
(49.155 13.0299 -5.3602e-20)
(49.6654 13.2123 -3.20928e-16)
(49.6553 13.2273 1.5386e-16)
(49.6476 13.2406 0)
(49.6252 13.226 4.1051e-16)
(49.604 13.2188 -3.10089e-17)
(49.5821 13.2139 6.7657e-17)
(49.5576 13.2064 3.50411e-17)
(49.5316 13.1984 0)
(49.5042 13.1898 2.123e-16)
(49.4753 13.18 -1.83263e-16)
(49.4451 13.1693 0)
(49.4134 13.1575 -1.07327e-16)
(49.3803 13.1445 0)
(49.3459 13.1303 9.4945e-17)
(49.3101 13.1148 3.41107e-17)
(49.2729 13.0981 -1.11599e-16)
(49.2345 13.08 7.05581e-17)
(49.1946 13.0606 -2.17458e-17)
(49.1537 13.0396 -2.97981e-17)
(49.1098 13.0253 -2.08485e-21)
(49.667 13.2207 4.5467e-16)
(49.656 13.2341 -2.12232e-16)
(49.6483 13.2473 0)
(49.626 13.2339 5.78376e-17)
(49.6045 13.227 0)
(49.5824 13.2225 -3.42245e-17)
(49.5577 13.2155 -1.44617e-16)
(49.5315 13.2079 1.56424e-16)
(49.5039 13.1998 0)
(49.4748 13.1907 1.83531e-16)
(49.4443 13.1805 0)
(49.4124 13.1694 8.01246e-17)
(49.3792 13.1571 -2.95288e-17)
(49.3445 13.1436 3.20151e-17)
(49.3085 13.1289 -1.53183e-16)
(49.2712 13.113 1.85018e-17)
(49.2325 13.0957 -6.07746e-17)
(49.1925 13.0771 5.47832e-17)
(49.151 13.057 -2.0711e-19)
(49.1085 13.0355 1.95395e-17)
(49.0631 13.0208 1.2304e-19)
(49.6686 13.2286 -3.66955e-16)
(49.6568 13.2405 -4.69206e-16)
(49.649 13.2537 -2.63905e-16)
(49.6267 13.2415 -1.45222e-18)
(49.605 13.235 -2.99902e-17)
(49.5828 13.2308 0)
(49.5579 13.2244 7.25012e-17)
(49.5315 13.2173 -1.95357e-16)
(49.5037 13.2097 0)
(49.4744 13.2012 0)
(49.4437 13.1917 -1.96602e-16)
(49.4117 13.1811 2.71396e-17)
(49.3782 13.1695 -8.6799e-17)
(49.3434 13.1568 6.2642e-17)
(49.3072 13.1428 3.46535e-17)
(49.2696 13.1277 9.25672e-17)
(49.2307 13.1112 0)
(49.1905 13.0935 -2.2182e-17)
(49.1489 13.0743 4.7156e-17)
(49.1059 13.0536 1.26267e-17)
(49.0618 13.0315 -1.37447e-17)
(49.0148 13.0164 6.60593e-21)
(49.6703 13.2361 4.10839e-16)
(49.6576 13.2467 8.89895e-16)
(49.6497 13.2599 3.24101e-19)
(49.6274 13.2488 -2.3308e-16)
(49.6055 13.2427 2.81336e-16)
(49.5831 13.239 2.00094e-16)
(49.5581 13.2331 0)
(49.5316 13.2265 1.1701e-16)
(49.5036 13.2195 0)
(49.4742 13.2115 1.34913e-16)
(49.4433 13.2026 3.92787e-16)
(49.4111 13.1928 0)
(49.3774 13.1819 8.70313e-17)
(49.3424 13.1698 0)
(49.3061 13.1566 -1.67965e-16)
(49.2683 13.1423 0)
(49.2292 13.1266 -1.9551e-17)
(49.1888 13.1097 0)
(49.147 13.0914 -5.90195e-17)
(49.1038 13.0716 -1.30137e-17)
(49.0592 13.0504 0)
(49.0135 13.0275 -7.71132e-18)
(48.9649 13.0121 -7.06028e-20)
(49.6719 13.243 7.81854e-18)
(49.6584 13.2526 -8.39663e-16)
(49.6503 13.2658 1.58018e-16)
(49.6281 13.2559 5.65438e-17)
(49.606 13.2503 -2.5083e-16)
(49.5835 13.247 -3.01489e-16)
(49.5584 13.2416 -2.51778e-16)
(49.5317 13.2356 -3.10912e-16)
(49.5036 13.2291 0)
(49.474 13.2218 -1.81644e-16)
(49.443 13.2135 -3.43203e-16)
(49.4106 13.2043 2.11012e-16)
(49.3768 13.1941 0)
(49.3417 13.1827 1.23719e-16)
(49.3051 13.1703 1.69062e-16)
(49.2672 13.1567 0)
(49.2279 13.1419 7.89544e-17)
(49.1873 13.1258 1.07644e-16)
(49.1453 13.1083 2.37928e-17)
(49.1019 13.0894 1.24728e-17)
(49.0571 13.0691 -5.05538e-19)
(49.0109 13.0472 0)
(48.9636 13.0237 -1.66397e-17)
(48.9133 13.0079 -7.92263e-20)
(49.6736 13.2494 4.46064e-16)
(49.6593 13.2582 4.19071e-16)
(49.651 13.2714 -2.65125e-16)
(49.6288 13.2627 0)
(49.6066 13.2576 6.32157e-17)
(49.5839 13.2548 3.39161e-17)
(49.5588 13.25 2.88578e-16)
(49.532 13.2445 4.25102e-16)
(49.5037 13.2386 0)
(49.474 13.2319 -1.79865e-16)
(49.4429 13.2242 1.95627e-16)
(49.4103 13.2157 -2.81401e-17)
(49.3764 13.2061 0)
(49.3411 13.1955 -1.23905e-16)
(49.3044 13.1838 0)
(49.2663 13.171 -3.5689e-17)
(49.2268 13.157 -5.88991e-17)
(49.186 13.1417 -8.57114e-17)
(49.1438 13.1251 -2.28227e-17)
(49.1002 13.1071 -8.80284e-17)
(49.0552 13.0877 0)
(49.0089 13.0668 1.46707e-17)
(48.961 13.0443 1.62838e-17)
(48.912 13.0201 1.772e-17)
(48.8601 13.0037 -3.11474e-21)
(49.6752 13.2554 4.50331e-17)
(49.6602 13.2636 0)
(49.6516 13.2768 5.26332e-16)
(49.6296 13.2692 5.65278e-17)
(49.6071 13.2647 0)
(49.5844 13.2623 1.65969e-16)
(49.5592 13.2582 -7.17982e-17)
(49.5323 13.2533 -3.10387e-16)
(49.5039 13.248 4.10577e-17)
(49.4741 13.2418 3.598e-16)
(49.4428 13.2348 0)
(49.4101 13.2269 -2.37521e-16)
(49.3761 13.218 -1.98635e-16)
(49.3406 13.2082 0)
(49.3038 13.1972 -3.39411e-17)
(49.2656 13.1852 0)
(49.226 13.1719 0)
(49.185 13.1575 6.39522e-17)
(49.1426 13.1417 9.21715e-17)
(49.0988 13.1246 1.50477e-16)
(49.0536 13.1061 2.73121e-17)
(49.007 13.0862 0)
(48.959 13.0646 -1.64611e-17)
(48.9094 13.0414 -4.40612e-17)
(48.8587 13.0165 -9.40848e-18)
(48.805 12.9997 -3.37156e-21)
(49.6769 13.2611 -8.01027e-16)
(49.6611 13.2688 -5.39275e-17)
(49.6523 13.282 -2.45054e-18)
(49.6303 13.2755 3.45795e-16)
(49.6077 13.2715 0)
(49.5849 13.2697 -2.33391e-16)
(49.5596 13.2662 3.20528e-16)
(49.5326 13.2619 3.45342e-16)
(49.5042 13.2571 0)
(49.4743 13.2516 -1.8002e-16)
(49.4429 13.2452 -2.42308e-16)
(49.4101 13.238 5.32662e-17)
(49.376 13.2298 2.55102e-16)
(49.3404 13.2207 3.12e-17)
(49.3034 13.2105 3.38022e-17)
(49.2651 13.1992 7.20259e-17)
(49.2253 13.1868 1.15884e-16)
(49.1842 13.1731 -2.32249e-16)
(49.1416 13.1582 -1.60461e-16)
(49.0976 13.142 -4.94379e-19)
(49.0522 13.1244 0)
(49.0054 13.1054 4.43844e-17)
(48.9571 13.0848 -8.04213e-17)
(48.9074 13.0626 5.21676e-17)
(48.8562 13.0387 -2.8628e-17)
(48.8037 13.013 -1.56247e-17)
(48.7482 12.9958 1.96816e-19)
(49.6785 13.2663 4.61322e-18)
(49.6621 13.2737 3.66492e-16)
(49.653 13.2869 -8.48711e-16)
(49.6311 13.2816 -2.32064e-16)
(49.6083 13.2782 1.86594e-16)
(49.5854 13.2769 0)
(49.5601 13.274 -3.58367e-16)
(49.5331 13.2703 -2.39575e-18)
(49.5046 13.2662 0)
(49.4746 13.2613 0)
(49.4431 13.2555 2.42954e-16)
(49.4103 13.249 5.13594e-17)
(49.376 13.2415 1.69389e-16)
(49.3403 13.233 3.10842e-17)
(49.3032 13.2236 1.14551e-18)
(49.2647 13.2131 -3.52377e-17)
(49.2249 13.2014 -3.91309e-17)
(49.1836 13.1886 6.38757e-17)
(49.1408 13.1746 6.92681e-17)
(49.0967 13.1592 -1.24048e-16)
(49.0511 13.1425 -8.01904e-17)
(49.0041 13.1244 -5.88228e-17)
(48.9556 13.1048 4.77004e-17)
(48.9056 13.0836 -5.22365e-17)
(48.8542 13.0608 3.78699e-17)
(48.8011 13.0362 1.0309e-17)
(48.7469 13.0097 5.50681e-18)
(48.6895 12.9919 -2.12866e-19)
(49.6801 13.2713 4.04444e-16)
(49.663 13.2783 -4.23721e-16)
(49.6537 13.2916 5.70579e-17)
(49.6318 13.2874 -5.86763e-17)
(49.609 13.2846 -1.86665e-16)
(49.586 13.2839 6.73556e-17)
(49.5607 13.2817 0)
(49.5336 13.2786 -5.37366e-16)
(49.5051 13.275 0)
(49.475 13.2708 -1.32325e-16)
(49.4435 13.2657 -4.89637e-17)
(49.4105 13.2598 -5.11983e-17)
(49.3762 13.253 -4.78513e-16)
(49.3404 13.2453 0)
(49.3032 13.2366 -3.24046e-17)
(49.2646 13.2268 -3.51014e-17)
(49.2246 13.216 -1.55254e-16)
(49.1832 13.204 1.68376e-16)
(49.1403 13.1908 -2.23834e-17)
(49.096 13.1763 2.51944e-17)
(49.0502 13.1605 2.42225e-16)
(49.003 13.1433 5.80229e-17)
(48.9543 13.1247 6.33124e-17)
(48.9041 13.1045 1.72608e-16)
(48.8523 13.0827 -5.58135e-17)
(48.7991 13.0591 0)
(48.7443 13.0338 0)
(48.6882 13.0065 -1.21094e-17)
(48.629 12.9881 -1.17917e-19)
(49.6817 13.2759 3.49393e-16)
(49.6641 13.2828 0)
(49.6544 13.2961 4.26893e-16)
(49.6326 13.293 -5.16349e-16)
(49.6097 13.2909 -1.6473e-18)
(49.5867 13.2907 1.69473e-18)
(49.5613 13.2891 -1.06384e-16)
(49.5342 13.2867 4.1486e-17)
(49.5056 13.2837 -8.2582e-17)
(49.4755 13.2801 5.782e-16)
(49.4439 13.2757 9.51509e-17)
(49.4109 13.2704 5.10459e-17)
(49.3765 13.2644 2.25072e-16)
(49.3406 13.2574 6.07023e-17)
(49.3033 13.2494 0)
(49.2647 13.2404 3.62128e-17)
(49.2245 13.2303 3.92565e-17)
(49.183 13.2192 0)
(49.14 13.2068 0)
(49.0955 13.1932 -1.2324e-16)
(49.0496 13.1783 -2.40092e-16)
(49.0022 13.1621 -2.90448e-16)
(48.9532 13.1444 -1.58205e-16)
(48.9028 13.1252 -3.29726e-19)
(48.8509 13.1044 5.65015e-17)
(48.7974 13.0819 7.51346e-19)
(48.7423 13.0576 0)
(48.6856 13.0315 -2.11264e-19)
(48.6276 13.0034 0)
(48.5664 12.9844 -9.23054e-21)
(49.6833 13.2802 3.8181e-17)
(49.6651 13.2871 -3.67328e-16)
(49.6552 13.3005 5.43054e-17)
(49.6335 13.2983 4.63444e-16)
(49.6105 13.297 3.09797e-16)
(49.5874 13.2974 -1.31056e-16)
(49.562 13.2964 -7.01215e-17)
(49.5349 13.2946 4.03521e-17)
(49.5062 13.2923 -8.23952e-17)
(49.4761 13.2893 -6.6612e-16)
(49.4445 13.2855 -9.74204e-17)
(49.4114 13.281 5.09015e-17)
(49.3769 13.2756 0)
(49.341 13.2693 3.07652e-17)
(49.3037 13.2621 -2.92915e-16)
(49.2649 13.2538 -3.60819e-17)
(49.2247 13.2446 1.54403e-16)
(49.183 13.2342 -2.0689e-16)
(49.1399 13.2227 -2.26059e-16)
(49.0953 13.21 9.83163e-17)
(49.0492 13.196 1.3288e-16)
(49.0016 13.1807 1.15919e-16)
(48.9525 13.1639 1.5681e-16)
(48.9018 13.1457 -1.53955e-16)
(48.8496 13.1259 7.4077e-17)
(48.7959 13.1045 0)
(48.7405 13.0813 4.46825e-17)
(48.6836 13.0563 -5.9971e-17)
(48.625 13.0294 1.28061e-17)
(48.565 13.0004 -1.41796e-17)
(48.5018 12.9808 2.64328e-19)
(49.6849 13.2842 -4.01999e-16)
(49.6662 13.2912 4.24885e-16)
(49.6559 13.3046 -4.24803e-16)
(49.6343 13.3035 -1.15158e-16)
(49.6113 13.3028 -1.86341e-16)
(49.5881 13.3038 2.00299e-16)
(49.5628 13.3035 -7.00234e-17)
(49.5356 13.3023 2.75527e-18)
(49.507 13.3007 3.27101e-16)
(49.4768 13.2983 7.51714e-16)
(49.4452 13.2952 -2.40362e-16)
(49.4121 13.2913 -1.54598e-16)
(49.3775 13.2867 0)
(49.3416 13.2811 -3.06677e-17)
(49.3042 13.2746 2.29769e-16)
(49.2653 13.2671 2.81398e-16)
(49.225 13.2587 -1.15949e-16)
(49.1832 13.2491 2.6224e-18)
(49.14 13.2385 1.80505e-16)
(49.0953 13.2266 4.79692e-17)
(49.049 13.2135 0)
(49.0013 13.1991 1.44044e-16)
(48.952 13.1833 0)
(48.9011 13.1661 6.81136e-17)
(48.8487 13.1473 3.65882e-17)
(48.7947 13.1269 8.01379e-17)
(48.7391 13.1048 -1.53281e-16)
(48.6819 13.0809 2.43067e-17)
(48.623 13.0551 -4.79972e-19)
(48.5624 13.0274 2.85137e-17)
(48.5004 12.9974 -7.83572e-18)
(48.4351 12.9772 0)
(49.6864 13.288 0)
(49.6673 13.295 0)
(49.6567 13.3086 4.28708e-16)
(49.6352 13.3085 0)
(49.6121 13.3085 1.23683e-16)
(49.5889 13.3101 -6.5385e-17)
(49.5636 13.3105 -3.59627e-17)
(49.5364 13.3099 2.84989e-18)
(49.5078 13.3089 -6.14115e-16)
(49.4776 13.3072 -3.21246e-18)
(49.446 13.3048 4.84316e-17)
(49.4129 13.3016 5.24185e-17)
(49.3783 13.2976 -2.21278e-16)
(49.3423 13.2927 -3.05735e-17)
(49.3048 13.287 2.9094e-16)
(49.2659 13.2803 -5.6302e-16)
(49.2255 13.2726 -3.88281e-17)
(49.1836 13.2639 2.0796e-16)
(49.1403 13.2541 1.60462e-18)
(49.0955 13.2431 -2.4766e-17)
(49.0491 13.2309 2.68817e-17)
(49.0012 13.2174 -1.14915e-16)
(48.9517 13.2025 1.13953e-18)
(48.9007 13.1863 -1.69284e-16)
(48.8481 13.1685 -7.36809e-17)
(48.7938 13.1492 -1.79426e-16)
(48.738 13.1282 8.71264e-17)
(48.6804 13.1054 2.32274e-17)
(48.6213 13.0808 1.31185e-17)
(48.5604 13.0542 6.97016e-17)
(48.4978 13.0255 -1.49963e-17)
(48.4336 12.9946 8.1712e-18)
(48.3662 12.9737 0)
(49.6879 13.2915 4.44464e-16)
(49.6684 13.2988 -5.20778e-17)
(49.6575 13.3124 -4.25559e-16)
(49.6361 13.3132 0)
(49.613 13.314 -6.25919e-17)
(49.5897 13.3162 -6.53173e-17)
(49.5644 13.3172 0)
(49.5373 13.3173 3.81752e-16)
(49.5087 13.317 3.12814e-18)
(49.4785 13.3159 -7.48291e-16)
(49.4469 13.3142 0)
(49.4137 13.3117 1.5556e-16)
(49.3792 13.3084 1.66209e-16)
(49.3431 13.3042 0)
(49.3056 13.2992 -5.19524e-16)
(49.2666 13.2933 2.26112e-18)
(49.2262 13.2864 3.86973e-17)
(49.1843 13.2785 2.04561e-16)
(49.1408 13.2695 -4.38849e-17)
(49.0959 13.2594 1.74558e-18)
(49.0494 13.2481 -2.10434e-16)
(49.0013 13.2355 -2.80275e-17)
(48.9517 13.2216 0)
(48.9005 13.2063 -3.22674e-17)
(48.8477 13.1896 -1.09923e-16)
(48.7932 13.1713 4.26761e-19)
(48.7371 13.1513 0)
(48.6793 13.1297 -1.17783e-16)
(48.6199 13.1062 0)
(48.5586 13.0808 -1.3927e-16)
(48.4957 13.0533 1.54582e-17)
(48.431 13.0237 -4.98144e-17)
(48.3647 12.9919 9.17574e-18)
(48.295 12.9702 3.46921e-19)
(49.6894 13.2948 -4.0526e-16)
(49.6695 13.3023 -1.0551e-16)
(49.6583 13.3161 9.10003e-16)
(49.6371 13.3178 -5.84398e-17)
(49.6139 13.3193 -6.25244e-17)
(49.5906 13.3221 3.27665e-16)
(49.5654 13.3238 -3.58465e-17)
(49.5382 13.3246 0)
(49.5096 13.3249 3.29416e-16)
(49.4795 13.3245 3.53393e-16)
(49.4479 13.3234 0)
(49.4148 13.3216 -2.55683e-16)
(49.3802 13.319 0)
(49.3441 13.3156 5.878e-17)
(49.3066 13.3113 2.59562e-16)
(49.2676 13.3062 3.1531e-16)
(49.2271 13.3001 0)
(49.1851 13.293 -2.05127e-16)
(49.1416 13.2848 -1.77268e-16)
(49.0965 13.2755 -1.92284e-16)
(49.0499 13.2651 3.67321e-16)
(49.0017 13.2535 -1.03544e-18)
(48.952 13.2405 0)
(48.9006 13.2262 1.68564e-16)
(48.8476 13.2105 1.46013e-16)
(48.7929 13.1932 7.9337e-17)
(48.7366 13.1743 2.19213e-17)
(48.6785 13.1538 1.87074e-16)
(48.6188 13.1314 2.49922e-17)
(48.5573 13.1072 2.5457e-19)
(48.494 13.081 4.55256e-17)
(48.4289 13.0527 -1.59858e-17)
(48.362 13.0221 1.75619e-17)
(48.2935 12.9892 -9.57008e-18)
(48.2215 12.9667 -3.61564e-19)
(49.6909 13.2979 -9.33027e-17)
(49.6707 13.3057 5.26441e-16)
(49.6592 13.3196 -3.76052e-16)
(49.638 13.3223 4.57951e-16)
(49.6148 13.3245 6.09338e-17)
(49.5916 13.3279 -1.99676e-16)
(49.5664 13.3302 -7.15877e-17)
(49.5393 13.3317 -1.08691e-18)
(49.5107 13.3326 0)
(49.4806 13.3329 -8.78218e-17)
(49.449 13.3325 4.80811e-17)
(49.4159 13.3314 4.60131e-16)
(49.3813 13.3295 5.42543e-17)
(49.3453 13.3268 0)
(49.3077 13.3233 0)
(49.2687 13.3189 0)
(49.2281 13.3136 0)
(49.1861 13.3073 0)
(49.1425 13.3 3.54687e-16)
(49.0974 13.2916 1.93037e-16)
(49.0507 13.282 -2.09373e-16)
(49.0024 13.2713 0)
(48.9525 13.2593 1.5266e-16)
(48.9009 13.2459 -1.33015e-16)
(48.8478 13.2312 -3.56048e-17)
(48.7929 13.215 -4.01401e-17)
(48.7363 13.1972 2.18155e-17)
(48.678 13.1777 -2.0899e-16)
(48.618 13.1565 0)
(48.5562 13.1335 5.51922e-17)
(48.4926 13.1085 5.97822e-17)
(48.4272 13.0814 -8.10642e-17)
(48.3599 13.0522 1.81027e-17)
(48.2907 13.0206 9.85991e-18)
(48.22 12.9866 0)
(48.1456 12.9633 -4.05656e-19)
(49.6923 13.3008 0)
(49.6719 13.3089 -3.72374e-16)
(49.6601 13.3229 3.72144e-16)
(49.639 13.3265 -4.62699e-16)
(49.6158 13.3294 -4.9117e-16)
(49.5926 13.3335 0)
(49.5674 13.3365 7.14955e-17)
(49.5404 13.3386 4.14108e-16)
(49.5118 13.3402 -2.83539e-16)
(49.4818 13.3412 0)
(49.4502 13.3414 -1.4837e-18)
(49.4172 13.341 -2.54782e-16)
(49.3826 13.3398 1.81149e-18)
(49.3465 13.3379 1.76041e-16)
(49.309 13.3351 0)
(49.2699 13.3315 -2.41458e-16)
(49.2294 13.327 2.99812e-16)
(49.1873 13.3215 1.62415e-16)
(49.1436 13.315 -1.77492e-16)
(49.0984 13.3074 0)
(49.0516 13.2988 -5.29644e-17)
(49.0032 13.2889 -1.96006e-16)
(48.9532 13.2779 -9.16549e-17)
(48.9015 13.2655 9.94927e-17)
(48.8482 13.2518 -1.07099e-16)
(48.7931 13.2366 0)
(48.7364 13.2198 -1.28063e-16)
(48.6779 13.2015 1.37898e-18)
(48.6176 13.1814 2.56676e-17)
(48.5555 13.1595 -1.09257e-16)
(48.4915 13.1358 -1.19167e-16)
(48.4258 13.11 6.49914e-17)
(48.3581 13.082 1.7337e-17)
(48.2886 13.0518 -9.55933e-17)
(48.2171 13.0192 -1.02833e-17)
(48.144 12.9841 0)
(48.0672 12.9598 8.61277e-19)
(49.6937 13.3035 -4.44039e-17)
(49.6731 13.312 0)
(49.661 13.3262 -8.03648e-16)
(49.64 13.3306 -4.57324e-16)
(49.6169 13.3343 4.96307e-16)
(49.5936 13.3389 0)
(49.5685 13.3426 0)
(49.5415 13.3454 -3.40082e-16)
(49.5131 13.3476 2.45296e-16)
(49.4831 13.3493 4.43967e-17)
(49.4516 13.3502 0)
(49.4185 13.3505 4.54229e-16)
(49.384 13.35 0)
(49.348 13.3488 -5.92684e-16)
(49.3104 13.3468 6.30491e-17)
(49.2714 13.3439 -3.27159e-17)
(49.2308 13.3402 -3.96241e-17)
(49.1887 13.3355 -4.87134e-16)
(49.145 13.3298 1.75476e-16)
(49.0997 13.3232 1.41598e-16)
(49.0528 13.3154 -5.27881e-17)
(49.0043 13.3065 5.04806e-16)
(48.9542 13.2963 -2.99648e-17)
(48.9024 13.2849 -6.62708e-17)
(48.8489 13.2722 3.6284e-17)
(48.7937 13.258 -3.83604e-17)
(48.7367 13.2423 1.04576e-18)
(48.678 13.2251 1.84407e-16)
(48.6174 13.2061 -2.46169e-17)
(48.5551 13.1854 1.91209e-16)
(48.4908 13.1629 5.94204e-17)
(48.4247 13.1383 -6.4326e-17)
(48.3568 13.1117 0)
(48.2868 13.0828 7.65555e-17)
(48.215 13.0516 0)
(48.1411 13.0179 0)
(48.0655 12.9816 0)
(47.9862 12.9564 -4.64345e-19)
(49.6951 13.306 -3.4685e-16)
(49.6742 13.3149 0)
(49.6619 13.3293 4.86135e-16)
(49.641 13.3346 4.05735e-16)
(49.618 13.3389 -4.27926e-16)
(49.5947 13.3442 6.65332e-17)
(49.5697 13.3486 2.79495e-16)
(49.5428 13.352 0)
(49.5144 13.3549 -3.99803e-17)
(49.4844 13.3572 4.29943e-17)
(49.453 13.3588 2.79762e-16)
(49.42 13.3598 -4.07576e-16)
(49.3855 13.36 -2.17692e-16)
(49.3495 13.3595 -5.77449e-17)
(49.312 13.3583 3.17267e-16)
(49.2729 13.3562 2.42721e-16)
(49.2324 13.3532 -2.6401e-16)
(49.1902 13.3494 3.25764e-16)
(49.1465 13.3445 -1.54046e-18)
(49.1012 13.3387 -1.91268e-16)
(49.0542 13.3318 5.0747e-17)
(49.0057 13.3238 -1.69882e-16)
(48.9554 13.3146 -2.42191e-16)
(48.9035 13.3042 9.78336e-17)
(48.8499 13.2924 -3.17079e-19)
(48.7945 13.2793 -1.55048e-16)
(48.7373 13.2647 1.26464e-16)
(48.6784 13.2485 9.09591e-17)
(48.6176 13.2307 -9.94871e-17)
(48.555 13.2112 -1.08774e-16)
(48.4905 13.1898 0)
(48.4241 13.1665 1.28287e-16)
(48.3557 13.1411 -1.77847e-17)
(48.2854 13.1136 0)
(48.2131 13.0838 0)
(48.1389 13.0515 2.29402e-17)
(48.0625 13.0167 -2.44677e-17)
(47.9844 12.9791 -6.80709e-18)
(47.9025 12.9529 0)
(49.6964 13.3083 3.96845e-16)
(49.6754 13.3177 0)
(49.6628 13.3323 -4.81648e-16)
(49.6421 13.3384 -5.67364e-17)
(49.6191 13.3435 9.85411e-16)
(49.5958 13.3493 -6.49804e-17)
(49.5709 13.3544 -6.30917e-16)
(49.5441 13.3585 2.99493e-16)
(49.5157 13.3621 3.21793e-16)
(49.4859 13.365 -4.42204e-17)
(49.4545 13.3673 -4.2487e-16)
(49.4216 13.369 -3.01066e-16)
(49.3872 13.3699 2.7504e-16)
(49.3512 13.3702 1.77097e-16)
(49.3137 13.3696 -4.4728e-16)
(49.2747 13.3683 0)
(49.2341 13.3661 3.67109e-17)
(49.192 13.3631 0)
(49.1482 13.3591 4.30315e-17)
(49.1029 13.3541 0)
(49.0559 13.3481 0)
(49.0072 13.341 5.69036e-17)
(48.9569 13.3328 2.74135e-16)
(48.9049 13.3233 -4.27476e-16)
(48.8511 13.3125 1.41945e-16)
(48.7955 13.3004 1.54105e-16)
(48.7382 13.2869 4.29025e-17)
(48.6791 13.2718 -1.38547e-16)
(48.6181 13.2551 9.96625e-17)
(48.5552 13.2367 0)
(48.4904 13.2165 2.99193e-17)
(48.4237 13.1945 -1.91302e-16)
(48.355 13.1704 -1.76914e-17)
(48.2844 13.1442 1.13137e-16)
(48.2117 13.1157 -8.20015e-17)
(48.137 13.0849 -6.74333e-17)
(48.0603 13.0515 1.28885e-17)
(47.9814 13.0155 -1.35188e-17)
(47.9007 12.9767 1.44657e-17)
(47.816 12.9494 0)
(49.6977 13.3105 0)
(49.6766 13.3204 -3.67457e-16)
(49.6637 13.3351 4.32517e-16)
(49.6432 13.342 -3.41485e-16)
(49.6202 13.3478 -4.95444e-16)
(49.597 13.3543 -5.87656e-16)
(49.5722 13.36 2.11056e-16)
(49.5454 13.3648 -3.02664e-16)
(49.5172 13.369 -3.25077e-16)
(49.4874 13.3727 0)
(49.4561 13.3757 4.61158e-17)
(49.4233 13.378 8.57003e-16)
(49.3889 13.3797 -5.3624e-17)
(49.353 13.3806 -1.17769e-16)
(49.3156 13.3808 5.71339e-16)
(49.2766 13.3803 3.50228e-17)
(49.236 13.3789 0)
(49.1939 13.3767 0)
(49.1501 13.3735 4.28567e-17)
(49.1047 13.3694 -2.35019e-16)
(49.0577 13.3643 2.04386e-16)
(49.009 13.3581 -5.67306e-17)
(48.9586 13.3508 -5.934e-17)
(48.9065 13.3423 2.30955e-16)
(48.8526 13.3325 3.49416e-17)
(48.7969 13.3214 -1.42774e-18)
(48.7394 13.3089 4.11923e-17)
(48.6801 13.2949 -9.11746e-17)
(48.6189 13.2793 -2.52224e-17)
(48.5557 13.2621 -1.07202e-16)
(48.4907 13.2431 0)
(48.4237 13.2223 1.88614e-18)
(48.3547 13.1995 3.5211e-17)
(48.2837 13.1746 1.80743e-17)
(48.2107 13.1475 6.18572e-17)
(48.1356 13.1181 4.45742e-17)
(48.0583 13.0862 3.61148e-17)
(47.979 13.0517 -6.55482e-17)
(47.8975 13.0144 7.93006e-20)
(47.8142 12.9743 -1.5651e-17)
(47.7268 12.9459 0)
(49.699 13.3125 -3.40339e-16)
(49.6778 13.3229 8.44396e-16)
(49.6647 13.3379 -1.08815e-16)
(49.6443 13.3456 4.62084e-16)
(49.6214 13.3521 -6.07151e-17)
(49.5983 13.3592 1.04806e-15)
(49.5735 13.3655 -2.09062e-16)
(49.5469 13.371 3.60464e-17)
(49.5187 13.3759 -3.61529e-16)
(49.4891 13.3802 0)
(49.4579 13.3839 3.71368e-16)
(49.4251 13.3869 -4.05179e-16)
(49.3908 13.3893 0)
(49.355 13.3909 0)
(49.3176 13.3919 -1.2815e-16)
(49.2787 13.3921 2.73027e-16)
(49.2381 13.3915 -3.32064e-16)
(49.196 13.3901 4.09594e-17)
(49.1522 13.3878 -5.21876e-16)
(49.1068 13.3845 1.43311e-16)
(49.0598 13.3803 -1.86145e-18)
(49.011 13.375 0)
(48.9605 13.3686 2.68277e-16)
(48.9083 13.3611 0)
(48.8543 13.3523 0)
(48.7985 13.3422 3.92295e-17)
(48.7408 13.3308 2.07577e-16)
(48.6813 13.3179 0)
(48.6199 13.3034 7.35479e-17)
(48.5566 13.2873 2.69862e-17)
(48.4913 13.2695 1.1603e-16)
(48.424 13.2499 2.52996e-16)
(48.3548 13.2284 -3.37727e-17)
(48.2834 13.2048 -1.80638e-17)
(48.21 13.1791 0)
(48.1345 13.1511 -2.25429e-17)
(48.0569 13.1206 -7.25529e-17)
(47.9771 13.0877 2.62798e-17)
(47.8951 13.052 4.31083e-17)
(47.8109 13.0134 -3.10869e-17)
(47.7248 12.9719 8.31308e-18)
(47.6346 12.9422 0)
(49.7002 13.3145 4.44231e-16)
(49.679 13.3253 -4.77624e-16)
(49.6657 13.3405 -3.73166e-16)
(49.6454 13.349 -3.98961e-16)
(49.6226 13.3562 0)
(49.5995 13.3639 -5.26981e-16)
(49.5749 13.3709 2.81562e-16)
(49.5484 13.377 -2.97987e-16)
(49.5203 13.3826 3.63852e-16)
(49.4908 13.3875 4.26917e-17)
(49.4597 13.3919 -4.6072e-18)
(49.427 13.3956 0)
(49.3928 13.3987 0)
(49.3571 13.4011 2.32885e-16)
(49.3198 13.4028 2.51753e-16)
(49.2809 13.4038 -3.42686e-16)
(49.2404 13.404 2.97924e-16)
(49.1983 13.4034 -4.08552e-17)
(49.1545 13.4019 3.06605e-16)
(49.1091 13.3995 -2.35381e-16)
(49.062 13.3961 -2.57127e-16)
(49.0132 13.3917 0)
(48.9627 13.3863 -3.27016e-17)
(48.9104 13.3797 3.19983e-17)
(48.8563 13.3719 2.81568e-16)
(48.8004 13.3629 0)
(48.7426 13.3525 -1.65664e-16)
(48.6829 13.3406 0)
(48.6213 13.3273 0)
(48.5578 13.3124 5.36529e-17)
(48.4923 13.2958 -1.16298e-16)
(48.4247 13.2774 -1.58469e-16)
(48.3551 13.2571 1.71416e-16)
(48.2835 13.2349 -2.23061e-16)
(48.2097 13.2105 -1.98741e-17)
(48.1338 13.1839 2.24278e-17)
(48.0558 13.1549 7.14933e-17)
(47.9755 13.1234 5.21309e-17)
(47.8931 13.0893 1.39246e-17)
(47.8084 13.0523 -1.51608e-17)
(47.7214 13.0124 1.65122e-17)
(47.6325 12.9694 -9.137e-18)
(47.5393 12.9385 0)
(49.7014 13.3162 -4.53061e-17)
(49.6802 13.3276 -5.22978e-16)
(49.6666 13.3431 4.33363e-16)
(49.6465 13.3522 3.46946e-16)
(49.6239 13.3602 0)
(49.6009 13.3685 6.6151e-17)
(49.5763 13.3761 0)
(49.5499 13.3829 4.00895e-18)
(49.522 13.3891 0)
(49.4926 13.3947 0)
(49.4616 13.3998 -3.74537e-16)
(49.4291 13.4042 3.47671e-16)
(49.395 13.408 0)
(49.3593 13.4111 -2.35115e-16)
(49.322 13.4136 -5.05198e-16)
(49.2832 13.4153 0)
(49.2428 13.4163 0)
(49.2007 13.4165 3.18372e-16)
(49.157 13.4158 3.43353e-16)
(49.1116 13.4143 3.75677e-16)
(49.0645 13.4118 3.0453e-16)
(49.0157 13.4083 -2.21762e-16)
(48.9651 13.4038 -2.40552e-16)
(48.9127 13.3982 2.90551e-16)
(48.8585 13.3914 -5.63787e-16)
(48.8025 13.3834 0)
(48.7446 13.374 0)
(48.6848 13.3633 -2.23898e-16)
(48.623 13.3511 -1.95085e-16)
(48.5593 13.3373 2.11908e-16)
(48.4935 13.3219 2.83645e-17)
(48.4257 13.3047 -3.19841e-17)
(48.3559 13.2857 -1.03282e-16)
(48.2839 13.2647 2.22886e-18)
(48.2098 13.2417 0)
(48.1335 13.2165 2.23202e-17)
(48.0551 13.1889 -2.33936e-17)
(47.9744 13.1589 -1.03363e-16)
(47.8915 13.1263 -8.3931e-17)
(47.8063 13.091 0)
(47.7188 13.0528 5.03388e-17)
(47.629 13.0115 -1.83031e-17)
(47.5371 12.967 0)
(47.441 12.9347 5.79717e-21)
(49.7026 13.3179 0)
(49.6814 13.3298 3.72225e-16)
(49.6676 13.3455 -3.73207e-16)
(49.6477 13.3554 0)
(49.6252 13.364 5.4751e-16)
(49.6022 13.3729 -6.60733e-17)
(49.5778 13.3812 -1.04345e-16)
(49.5515 13.3886 2.63198e-16)
(49.5238 13.3955 0)
(49.4945 13.4018 -2.98948e-16)
(49.4636 13.4075 0)
(49.4312 13.4126 -4.02921e-16)
(49.3972 13.4171 5.31738e-17)
(49.3616 13.421 0)
(49.3245 13.4242 2.53548e-16)
(49.2857 13.4267 0)
(49.2454 13.4285 0)
(49.2033 13.4294 -3.21067e-16)
(49.1597 13.4296 -3.70325e-18)
(49.1143 13.4289 -1.423e-16)
(49.0672 13.4273 -4.06202e-16)
(49.0183 13.4248 1.67176e-16)
(48.9677 13.4212 1.1953e-16)
(48.9153 13.4165 -2.34808e-18)
(48.861 13.4107 2.45668e-18)
(48.8049 13.4037 0)
(48.7469 13.3954 0)
(48.6869 13.3857 1.80445e-16)
(48.625 13.3746 1.46147e-16)
(48.5611 13.362 -2.12694e-16)
(48.4951 13.3478 -1.14704e-16)
(48.4271 13.3318 -3.18676e-17)
(48.3569 13.3141 1.68764e-16)
(48.2847 13.2944 1.48053e-16)
(48.2102 13.2727 -1.58477e-16)
(48.1336 13.2489 2.22212e-17)
(48.0548 13.2228 -2.32822e-17)
(47.9737 13.1943 7.70695e-17)
(47.8903 13.1632 5.61944e-17)
(47.8046 13.1295 6.08636e-17)
(47.7166 13.0929 3.29823e-17)
(47.6262 13.0533 -1.80586e-17)
(47.5335 13.0105 9.6644e-18)
(47.4386 12.9644 1.09152e-17)
(47.3394 12.9307 0)
(49.7037 13.3194 0)
(49.6826 13.3319 5.2079e-17)
(49.6686 13.3479 4.88157e-16)
(49.6488 13.3584 0)
(49.6265 13.3677 -4.93607e-16)
(49.6036 13.3773 0)
(49.5793 13.3862 -2.07742e-16)
(49.5532 13.3942 7.47205e-17)
(49.5256 13.4018 -1.10817e-18)
(49.4964 13.4087 4.84593e-17)
(49.4657 13.4151 1.40064e-18)
(49.4334 13.4209 0)
(49.3995 13.4261 4.28244e-16)