/*--------------------------------*- C++ -*----------------------------------*\
  =========                 |
  \\      /  F ield         | OpenFOAM: The Open Source CFD Toolbox
   \\    /   O peration     | Website:  https://openfoam.org
    \\  /    A nd           | Version:  7
     \\/     M anipulation  |
\*---------------------------------------------------------------------------*/
FoamFile
{
    version     2.0;
    format      ascii;
    class       volScalarField;
    location    "1600";
    object      yPlus;
}
// * * * * * * * * * * * * * * * * * * * * * * * * * * * * * * * * * * * * * //

dimensions      [0 0 0 0 0 0 0];

internalField   uniform 0;

boundaryField
{
    inlet-l
    {
        type            calculated;
        value           uniform 0;
    }
    airfoil-l1
    {
        type            calculated;
        value           nonuniform List<scalar> 
107
(
32.2767
31.5333
30.5234
29.3203
28.0045
26.6431
25.2886
23.9768
22.7309
21.5605
20.4702
19.4544
18.5015
17.6136
16.7833
15.9946
15.2335
14.5032
13.7998
13.1385
12.5372
11.9809
11.4556
10.9544
10.4748
10.0143
9.5657
9.12882
8.69932
8.27017
7.84506
7.41692
6.97923
6.53408
6.07165
5.58675
5.06899
4.50318
3.86801
3.11812
2.13188
0.760144
2.37256
3.27018
3.97046
4.56437
5.09031
5.56986
6.01399
6.4306
6.82303
7.19978
7.56107
7.90874
8.24752
8.57666
8.89872
9.21766
9.53309
9.84358
10.1528
10.4604
10.7688
11.0775
11.3894
11.707
12.0295
12.3645
12.711
13.0633
13.4218
13.7695
14.1059
14.4254
14.7368
15.0322
15.3153
15.5905
15.8586
16.1188
16.37
16.6175
16.8578
17.0914
17.3231
17.5506
17.768
17.9821
18.1928
18.3964
18.5979
18.7926
18.9827
19.1651
19.3415
19.5177
19.684
19.8457
20.0019
20.1541
20.2966
20.4339
20.5653
20.6909
20.8099
20.917
21.0221
)
;
    }
    empty-1
    {
        type            empty;
    }
    empty-2
    {
        type            empty;
    }
    wall-l1
    {
        type            calculated;
        value           nonuniform 0();
    }
    airfoil-l2
    {
        type            calculated;
        value           uniform 21.2636;
    }
    empty-3
    {
        type            empty;
    }
    empty-4
    {
        type            empty;
    }
    wall-l2
    {
        type            calculated;
        value           nonuniform 0();
    }
    outlet-l
    {
        type            calculated;
        value           nonuniform 0();
    }
    empty-5
    {
        type            empty;
    }
    empty-6
    {
        type            empty;
    }
    outlet-h
    {
        type            calculated;
        value           nonuniform 0();
    }
    wall-h2
    {
        type            calculated;
        value           nonuniform 0();
    }
    empty-7
    {
        type            empty;
    }
    empty-8
    {
        type            empty;
    }
    airfoil-h2
    {
        type            calculated;
        value           nonuniform 0();
    }
    wall-h1
    {
        type            calculated;
        value           nonuniform 0();
    }
    empty-9
    {
        type            empty;
    }
    empty-10
    {
        type            empty;
    }
    inlet-h
    {
        type            calculated;
        value           uniform 0;
    }
    airfoil-h1
    {
        type            calculated;
        value           nonuniform List<scalar> 
16
(
32.7506
33.0355
33.1043
32.8798
32.4306
31.8547
31.2323
30.6114
30.0078
29.4328
28.9055
28.4242
27.9792
27.5745
27.2078
26.8761
)
;
    }
    empty-11
    {
        type            empty;
    }
    empty-12
    {
        type            empty;
    }
    procBoundary0to1
    {
        type            processor;
        value           uniform 0;
    }
    procBoundary0to3
    {
        type            processor;
        value           uniform 0;
    }
}


// ************************************************************************* //
