# Force coefficient bins
# bins        : 31
# start       : 4.047185e-04
# delta       : 3.205286e-02
# direction   : (1.000000e+00 0.000000e+00 0.000000e+00)
# x co-ords  :	3.245758e-02	6.451044e-02	9.656330e-02	1.286162e-01	1.606690e-01	1.927219e-01	2.247747e-01	2.568276e-01	2.888805e-01	3.209333e-01	3.529862e-01	3.850390e-01	4.170919e-01	4.491447e-01	4.811976e-01	5.132505e-01	5.453033e-01	5.773562e-01	6.094090e-01	6.414619e-01	6.735148e-01	7.055676e-01	7.376205e-01	7.696733e-01	8.017262e-01	8.337791e-01	8.658319e-01	8.978848e-01	9.299376e-01	9.619905e-01	9.940434e-01
# y co-ords  :	0.000000e+00	0.000000e+00	0.000000e+00	0.000000e+00	0.000000e+00	0.000000e+00	0.000000e+00	0.000000e+00	0.000000e+00	0.000000e+00	0.000000e+00	0.000000e+00	0.000000e+00	0.000000e+00	0.000000e+00	0.000000e+00	0.000000e+00	0.000000e+00	0.000000e+00	0.000000e+00	0.000000e+00	0.000000e+00	0.000000e+00	0.000000e+00	0.000000e+00	0.000000e+00	0.000000e+00	0.000000e+00	0.000000e+00	0.000000e+00	0.000000e+00
# z co-ords  :	0.000000e+00	0.000000e+00	0.000000e+00	0.000000e+00	0.000000e+00	0.000000e+00	0.000000e+00	0.000000e+00	0.000000e+00	0.000000e+00	0.000000e+00	0.000000e+00	0.000000e+00	0.000000e+00	0.000000e+00	0.000000e+00	0.000000e+00	0.000000e+00	0.000000e+00	0.000000e+00	0.000000e+00	0.000000e+00	0.000000e+00	0.000000e+00	0.000000e+00	0.000000e+00	0.000000e+00	0.000000e+00	0.000000e+00	0.000000e+00	0.000000e+00
# Time        	Cm(0)         	Cd(0)         	Cl(0)         	Cm(1)         	Cd(1)         	Cl(1)         	Cm(2)         	Cd(2)         	Cl(2)         	Cm(3)         	Cd(3)         	Cl(3)         	Cm(4)         	Cd(4)         	Cl(4)         	Cm(5)         	Cd(5)         	Cl(5)         	Cm(6)         	Cd(6)         	Cl(6)         	Cm(7)         	Cd(7)         	Cl(7)         	Cm(8)         	Cd(8)         	Cl(8)         	Cm(9)         	Cd(9)         	Cl(9)         	Cm(10)        	Cd(10)        	Cl(10)        	Cm(11)        	Cd(11)        	Cl(11)        	Cm(12)        	Cd(12)        	Cl(12)        	Cm(13)        	Cd(13)        	Cl(13)        	Cm(14)        	Cd(14)        	Cl(14)        	Cm(15)        	Cd(15)        	Cl(15)        	Cm(16)        	Cd(16)        	Cl(16)        	Cm(17)        	Cd(17)        	Cl(17)        	Cm(18)        	Cd(18)        	Cl(18)        	Cm(19)        	Cd(19)        	Cl(19)        	Cm(20)        	Cd(20)        	Cl(20)        	Cm(21)        	Cd(21)        	Cl(21)        	Cm(22)        	Cd(22)        	Cl(22)        	Cm(23)        	Cd(23)        	Cl(23)        	Cm(24)        	Cd(24)        	Cl(24)        	Cm(25)        	Cd(25)        	Cl(25)        	Cm(26)        	Cd(26)        	Cl(26)        	Cm(27)        	Cd(27)        	Cl(27)        	Cm(28)        	Cd(28)        	Cl(28)        	Cm(29)        	Cd(29)        	Cl(29)        	Cm(30)        	Cd(30)        	Cl(30)        
0             	-5.265311e-05	3.326279e-01	1.012315e-04	-9.608516e-05	5.459649e-01	1.223026e-04	-2.263703e-04	7.539993e-01	4.502266e-05	-2.603902e-04	9.591344e-01	1.955241e-04	-2.553991e-04	1.124036e+00	3.352137e-04	-2.683902e-04	1.294762e+00	4.409293e-04	-2.509550e-04	1.492337e+00	5.421699e-04	-2.328330e-04	1.706502e+00	6.072792e-04	-2.212250e-04	1.811867e+00	6.248017e-04	-1.128916e-04	2.020730e+00	6.340911e-04	-8.376021e-06	2.226739e+00	6.103570e-04	4.098381e-05	2.328879e+00	5.891595e-04	1.544895e-05	2.529390e+00	5.598391e-04	-5.058837e-05	2.725257e+00	5.363296e-04	-5.212007e-05	2.914621e+00	4.915892e-04	-2.477967e-05	3.008529e+00	4.567563e-04	-3.242333e-05	3.193554e+00	4.176276e-04	-1.216879e-04	3.375557e+00	4.306711e-04	-6.973275e-05	3.553951e+00	3.541211e-04	-6.483148e-05	3.728788e+00	3.176866e-04	-4.627807e-05	3.900768e+00	2.684283e-04	-8.503299e-05	4.068171e+00	2.984211e-04	-7.591956e-05	4.232243e+00	2.584938e-04	-9.407699e-05	4.471153e+00	2.812457e-04	-1.068536e-04	4.627165e+00	3.258425e-04	-1.126835e-04	4.779538e+00	3.525432e-04	-1.154083e-04	4.928349e+00	3.609042e-04	-1.183645e-04	5.148953e+00	3.753037e-04	-1.146680e-04	5.291506e+00	3.897112e-04	-1.024907e-04	5.498950e+00	4.160908e-04	-7.853389e-05	5.700087e+00	4.517474e-04
1             	6.511317e-04	5.606858e+00	-7.332206e-03	5.645781e-04	6.465413e+00	-6.049295e-03	-1.112864e-03	6.998898e+00	5.490768e-03	-2.977524e-03	7.356593e+00	2.156628e-02	-4.150902e-03	7.562990e+00	3.479461e-02	-4.902149e-03	7.723497e+00	4.655664e-02	-5.212220e-03	7.865413e+00	5.601295e-02	-5.190917e-03	7.992200e+00	6.236535e-02	-5.122460e-03	8.048431e+00	6.443265e-02	-4.936461e-03	8.152998e+00	6.700474e-02	-4.816889e-03	8.253425e+00	6.788909e-02	-4.813892e-03	8.303566e+00	6.774217e-02	-5.037511e-03	8.405154e+00	6.627681e-02	-5.517060e-03	8.510361e+00	6.373705e-02	-6.203913e-03	8.620300e+00	6.052865e-02	-6.601689e-03	8.678021e+00	5.881449e-02	-7.557545e-03	8.798841e+00	5.520693e-02	-8.611682e-03	8.927301e+00	5.178384e-02	-9.596590e-03	9.063190e+00	4.874058e-02	-1.053732e-02	9.206178e+00	4.614252e-02	-1.134751e-02	9.355880e+00	4.406777e-02	-1.204581e-02	9.510928e+00	4.247478e-02	-1.251454e-02	9.670649e+00	4.142786e-02	-1.293090e-02	9.916458e+00	4.060548e-02	-1.300027e-02	1.008300e+01	4.049780e-02	-1.288610e-02	1.024958e+01	4.071668e-02	-1.263042e-02	1.041485e+01	4.115469e-02	-1.203368e-02	1.065769e+01	4.211220e-02	-1.147281e-02	1.081241e+01	4.296528e-02	-1.038749e-02	1.102761e+01	4.453436e-02	-9.183294e-03	1.121031e+01	4.618388e-02
2             	-1.171012e-03	1.876221e+00	4.159436e-03	-3.105861e-03	2.198372e+00	1.456845e-02	-5.900278e-03	2.429533e+00	3.221120e-02	-8.367401e-03	2.591292e+00	5.158246e-02	-9.642701e-03	2.685408e+00	6.465405e-02	-1.033063e-02	2.759128e+00	7.453097e-02	-1.060584e-02	2.825955e+00	8.182589e-02	-1.061305e-02	2.888680e+00	8.634948e-02	-1.057449e-02	2.917979e+00	8.766173e-02	-1.048254e-02	2.975663e+00	8.897493e-02	-1.046049e-02	3.036058e+00	8.894476e-02	-1.049666e-02	3.067979e+00	8.850932e-02	-1.069473e-02	3.134674e+00	8.709024e-02	-1.102308e-02	3.207018e+00	8.535747e-02	-1.139219e-02	3.284297e+00	8.356771e-02	-1.158055e-02	3.325215e+00	8.272754e-02	-1.193993e-02	3.411431e+00	8.134887e-02	-1.225331e-02	3.502863e+00	8.031439e-02	-1.242662e-02	3.599044e+00	7.970935e-02	-1.248883e-02	3.699622e+00	7.948438e-02	-1.241893e-02	3.803475e+00	7.962901e-02	-1.222443e-02	3.909770e+00	8.010794e-02	-1.190331e-02	4.018033e+00	8.078524e-02	-1.126917e-02	4.180538e+00	8.206575e-02	-1.071923e-02	4.288490e+00	8.311625e-02	-1.017667e-02	4.394555e+00	8.408627e-02	-9.637096e-03	4.497584e+00	8.499538e-02	-8.678944e-03	4.644962e+00	8.653492e-02	-8.072237e-03	4.735929e+00	8.745632e-02	-7.207835e-03	4.856802e+00	8.870708e-02	-6.637740e-03	4.951211e+00	8.949087e-02
3             	-1.929630e-03	-2.244154e+00	1.094581e-02	-3.413415e-03	-2.527079e+00	1.823208e-02	-5.021562e-03	-2.695564e+00	2.708857e-02	-6.098863e-03	-2.795564e+00	3.384972e-02	-6.389397e-03	-2.839738e+00	3.549560e-02	-6.390350e-03	-2.858874e+00	3.428868e-02	-6.328976e-03	-2.856350e+00	3.148317e-02	-6.346658e-03	-2.836828e+00	2.746855e-02	-6.407587e-03	-2.822718e+00	2.534272e-02	-6.616762e-03	-2.788230e+00	2.131969e-02	-6.912641e-03	-2.747042e+00	1.785499e-02	-7.076272e-03	-2.724715e+00	1.637669e-02	-7.370410e-03	-2.678940e+00	1.425693e-02	-7.546666e-03	-2.632346e+00	1.329886e-02	-7.497049e-03	-2.587209e+00	1.345541e-02	-7.385618e-03	-2.565353e+00	1.387765e-02	-6.950790e-03	-2.523651e+00	1.547716e-02	-6.296596e-03	-2.485579e+00	1.763917e-02	-5.441945e-03	-2.451629e+00	2.014781e-02	-4.463901e-03	-2.422004e+00	2.277966e-02	-3.423694e-03	-2.397243e+00	2.537134e-02	-2.379646e-03	-2.377395e+00	2.781354e-02	-1.400753e-03	-2.362217e+00	2.992670e-02	-1.231754e-04	-2.349216e+00	3.249685e-02	5.980440e-04	-2.346129e+00	3.385779e-02	1.126714e-03	-2.347468e+00	3.479836e-02	1.489866e-03	-2.353046e+00	3.540858e-02	1.926555e-03	-2.368029e+00	3.611276e-02	2.063831e-03	-2.382302e+00	3.632105e-02	2.086901e-03	-2.409866e+00	3.635550e-02	1.815150e-03	-2.444735e+00	3.598535e-02
4             	-1.440635e-03	-5.480638e+00	1.026203e-02	-2.077395e-03	-5.909549e+00	1.295846e-02	-2.219639e-03	-6.186105e+00	1.238175e-02	-1.476523e-03	-6.360643e+00	4.815722e-03	-6.767131e-04	-6.444990e+00	-4.630815e-03	-5.427488e-05	-6.491697e+00	-1.472855e-02	2.965100e-04	-6.509503e+00	-2.509337e-02	2.930232e-04	-6.505274e+00	-3.546602e-02	1.650613e-04	-6.497346e+00	-4.008761e-02	-2.547903e-04	-6.474387e+00	-4.791256e-02	-7.821995e-04	-6.445889e+00	-5.383550e-02	-1.044440e-03	-6.430877e+00	-5.609458e-02	-1.473820e-03	-6.401863e+00	-5.910793e-02	-1.686717e-03	-6.375935e+00	-6.027819e-02	-1.611427e-03	-6.355325e+00	-5.995401e-02	-1.468223e-03	-6.347324e+00	-5.937077e-02	-9.715516e-04	-6.336453e+00	-5.751160e-02	-2.644736e-04	-6.333038e+00	-5.515778e-02	5.741889e-04	-6.337246e+00	-5.265505e-02	1.454408e-03	-6.348971e+00	-5.025981e-02	2.314167e-03	-6.368122e+00	-4.810173e-02	3.110376e-03	-6.394255e+00	-4.623896e-02	3.756097e-03	-6.426729e+00	-4.483860e-02	4.472114e-03	-6.486520e+00	-4.339423e-02	4.785789e-03	-6.532323e+00	-4.280097e-02	4.912074e-03	-6.582030e+00	-4.257527e-02	4.903412e-03	-6.634803e+00	-4.259168e-02	4.838328e-03	-6.717325e+00	-4.269268e-02	4.694762e-03	-6.773300e+00	-4.291094e-02	4.404957e-03	-6.856347e+00	-4.332999e-02	3.987412e-03	-6.935601e+00	-4.390106e-02
5             	1.130678e-02	-2.760700e+00	-4.765711e-02	1.231636e-02	-2.897382e+00	-5.313290e-02	1.319814e-02	-2.982406e+00	-5.909960e-02	1.478745e-02	-3.030930e+00	-7.183757e-02	1.592837e-02	-3.050813e+00	-8.351824e-02	1.663162e-02	-3.058169e+00	-9.359755e-02	1.698882e-02	-3.055304e+00	-1.029803e-01	1.700835e-02	-3.044658e+00	-1.120324e-01	1.690759e-02	-3.037517e+00	-1.158391e-01	1.658198e-02	-3.021664e+00	-1.219284e-01	1.619429e-02	-3.005396e+00	-1.262264e-01	1.601177e-02	-2.997672e+00	-1.277691e-01	1.571293e-02	-2.984089e+00	-1.298253e-01	1.554804e-02	-2.973549e+00	-1.307030e-01	1.551883e-02	-2.966687e+00	-1.308187e-01	1.554604e-02	-2.964647e+00	-1.306973e-01	1.562077e-02	-2.963328e+00	-1.303906e-01	1.571479e-02	-2.965687e+00	-1.300562e-01	1.576398e-02	-2.971467e+00	-1.298913e-01	1.572117e-02	-2.980364e+00	-1.299946e-01	1.558066e-02	-2.992132e+00	-1.303337e-01	1.534413e-02	-3.006402e+00	-1.308693e-01	1.501606e-02	-3.022772e+00	-1.315739e-01	1.441988e-02	-3.050727e+00	-1.327590e-01	1.397739e-02	-3.070896e+00	-1.335787e-01	1.353675e-02	-3.091892e+00	-1.343570e-01	1.313773e-02	-3.113348e+00	-1.350303e-01	1.263023e-02	-3.145449e+00	-1.358388e-01	1.235983e-02	-3.166370e+00	-1.362486e-01	1.206591e-02	-3.196502e+00	-1.366736e-01	1.182365e-02	-3.225818e+00	-1.370053e-01
6             	7.824934e-03	1.028656e+00	-3.592338e-02	9.928012e-03	1.212235e+00	-4.663664e-02	1.091365e-02	1.339292e+00	-5.222111e-02	1.193654e-02	1.429069e+00	-5.929535e-02	1.244132e-02	1.478994e+00	-6.360989e-02	1.265540e-02	1.514016e+00	-6.590528e-02	1.275680e-02	1.539781e+00	-6.784637e-02	1.277945e-02	1.558764e+00	-6.996485e-02	1.276566e-02	1.566091e+00	-7.065181e-02	1.273425e-02	1.577514e+00	-7.132551e-02	1.272726e-02	1.586034e+00	-7.140573e-02	1.273998e-02	1.589593e+00	-7.129368e-02	1.278025e-02	1.595848e+00	-7.100416e-02	1.282407e-02	1.601854e+00	-7.073558e-02	1.282051e-02	1.608435e+00	-7.073529e-02	1.278819e-02	1.612200e+00	-7.086490e-02	1.259488e-02	1.621064e+00	-7.157015e-02	1.226823e-02	1.631994e+00	-7.264316e-02	1.179928e-02	1.645297e+00	-7.403358e-02	1.120601e-02	1.661120e+00	-7.564204e-02	1.053173e-02	1.679445e+00	-7.732461e-02	9.814548e-03	1.700217e+00	-7.898286e-02	9.127734e-03	1.723292e+00	-8.046738e-02	8.199686e-03	1.761602e+00	-8.232266e-02	7.679737e-03	1.789275e+00	-8.328877e-02	7.308227e-03	1.818230e+00	-8.394491e-02	7.091678e-03	1.848057e+00	-8.430945e-02	6.946156e-03	1.893437e+00	-8.454107e-02	6.997921e-03	1.923241e+00	-8.446221e-02	7.235997e-03	1.965226e+00	-8.411853e-02	7.556414e-03	1.999215e+00	-8.368022e-02
7             	-2.522778e-02	4.366762e+00	1.027291e-01	-2.415588e-02	4.599873e+00	9.754391e-02	-2.442214e-02	4.744978e+00	9.975969e-02	-2.491133e-02	4.835583e+00	1.042296e-01	-2.548744e-02	4.880669e+00	1.104534e-01	-2.591937e-02	4.909600e+00	1.168450e-01	-2.611575e-02	4.929347e+00	1.220617e-01	-2.611916e-02	4.943417e+00	1.261719e-01	-2.606814e-02	4.948898e+00	1.280274e-01	-2.588704e-02	4.958182e+00	1.313219e-01	-2.565177e-02	4.967029e+00	1.338741e-01	-2.553090e-02	4.971788e+00	1.348693e-01	-2.531751e-02	4.982675e+00	1.363011e-01	-2.518360e-02	4.996252e+00	1.370143e-01	-2.517095e-02	5.013217e+00	1.370459e-01	-2.521623e-02	5.023123e+00	1.368440e-01	-2.541596e-02	5.045911e+00	1.360793e-01	-2.571707e-02	5.072616e+00	1.350627e-01	-2.607728e-02	5.103108e+00	1.339750e-01	-2.643789e-02	5.137112e+00	1.329833e-01	-2.675882e-02	5.174245e+00	1.321722e-01	-2.701092e-02	5.214105e+00	1.315834e-01	-2.713925e-02	5.256230e+00	1.313021e-01	-2.713288e-02	5.322478e+00	1.313121e-01	-2.700049e-02	5.367934e+00	1.315602e-01	-2.674288e-02	5.413732e+00	1.320170e-01	-2.639344e-02	5.459235e+00	1.326070e-01	-2.580136e-02	5.525436e+00	1.335523e-01	-2.534867e-02	5.567037e+00	1.342384e-01	-2.466828e-02	5.623065e+00	1.352214e-01	-2.405573e-02	5.666048e+00	1.360598e-01
8             	-8.243691e-03	3.425443e+00	3.515047e-02	-1.156107e-02	3.446209e+00	5.254331e-02	-1.416362e-02	3.442619e+00	6.836371e-02	-1.616889e-02	3.423544e+00	8.329303e-02	-1.747272e-02	3.406874e+00	9.568846e-02	-1.823166e-02	3.394150e+00	1.055261e-01	-1.855285e-02	3.387066e+00	1.127148e-01	-1.858787e-02	3.386858e+00	1.182152e-01	-1.853396e-02	3.389116e+00	1.204224e-01	-1.835119e-02	3.397579e+00	1.238270e-01	-1.814665e-02	3.410985e+00	1.259897e-01	-1.805457e-02	3.419387e+00	1.267071e-01	-1.789580e-02	3.439213e+00	1.276960e-01	-1.778198e-02	3.462661e+00	1.282361e-01	-1.769630e-02	3.489143e+00	1.285562e-01	-1.765604e-02	3.503321e+00	1.286901e-01	-1.752360e-02	3.533113e+00	1.291302e-01	-1.729532e-02	3.564207e+00	1.298424e-01	-1.692568e-02	3.595983e+00	1.309142e-01	-1.637457e-02	3.627879e+00	1.323891e-01	-1.565436e-02	3.659396e+00	1.341735e-01	-1.478837e-02	3.690147e+00	1.361711e-01	-1.380130e-02	3.719780e+00	1.383002e-01	-1.221249e-02	3.761404e+00	1.414761e-01	-1.113671e-02	3.786906e+00	1.434813e-01	-1.008364e-02	3.810312e+00	1.453451e-01	-9.099899e-03	3.831366e+00	1.470041e-01	-7.783245e-03	3.857979e+00	1.491054e-01	-7.022048e-03	3.871967e+00	1.502580e-01	-6.110281e-03	3.886186e+00	1.515753e-01	-5.519262e-03	3.889203e+00	1.523851e-01
9             	2.727618e-02	2.318169e-01	-1.179618e-01	2.574285e-02	4.338483e-02	-1.101761e-01	2.487600e-02	-9.685240e-02	-1.055907e-01	2.437003e-02	-2.067519e-01	-1.028140e-01	2.413313e-02	-2.695606e-01	-1.015756e-01	2.414824e-02	-3.112400e-01	-1.029876e-01	2.423035e-02	-3.363666e-01	-1.064649e-01	2.420964e-02	-3.459294e-01	-1.110308e-01	2.413750e-02	-3.457242e-01	-1.134956e-01	2.384421e-02	-3.380517e-01	-1.187950e-01	2.334169e-02	-3.229646e-01	-1.243473e-01	2.302378e-02	-3.133997e-01	-1.270585e-01	2.231273e-02	-2.915408e-01	-1.320091e-01	2.156860e-02	-2.674580e-01	-1.361718e-01	2.088635e-02	-2.426589e-01	-1.393726e-01	2.059361e-02	-2.304026e-01	-1.405953e-01	2.017476e-02	-2.068708e-01	-1.421902e-01	1.998854e-02	-1.854072e-01	-1.428330e-01	2.003368e-02	-1.666462e-01	-1.427147e-01	2.029188e-02	-1.510185e-01	-1.420241e-01	2.070724e-02	-1.387886e-01	-1.409924e-01	2.122428e-02	-1.300543e-01	-1.397976e-01	2.177989e-02	-1.248375e-01	-1.385974e-01	2.259376e-02	-1.235343e-01	-1.369684e-01	2.307935e-02	-1.268133e-01	-1.360628e-01	2.347657e-02	-1.332287e-01	-1.353595e-01	2.376216e-02	-1.426061e-01	-1.348779e-01	2.403953e-02	-1.617787e-01	-1.344344e-01	2.412730e-02	-1.776829e-01	-1.343017e-01	2.415414e-02	-2.059549e-01	-1.342630e-01	2.409082e-02	-2.404393e-01	-1.343496e-01
10            	1.863118e-01	-3.460893e+00	-7.975100e-01	1.842788e-01	-3.668790e+00	-7.870601e-01	1.827745e-01	-3.817354e+00	-7.786078e-01	1.820654e-01	-3.920832e+00	-7.742934e-01	1.819660e-01	-3.973578e+00	-7.742623e-01	1.821010e-01	-4.006060e+00	-7.770561e-01	1.822261e-01	-4.024904e+00	-7.812625e-01	1.822154e-01	-4.031498e+00	-7.861836e-01	1.821451e-01	-4.030942e+00	-7.886634e-01	1.818742e-01	-4.024601e+00	-7.935919e-01	1.814668e-01	-4.013498e+00	-7.980950e-01	1.812417e-01	-4.006909e+00	-8.000096e-01	1.808181e-01	-3.992881e+00	-8.029706e-01	1.805068e-01	-3.978948e+00	-8.047308e-01	1.803811e-01	-3.966305e+00	-8.053462e-01	1.804042e-01	-3.960759e+00	-8.052608e-01	1.806325e-01	-3.951616e+00	-8.044322e-01	1.810897e-01	-3.945416e+00	-8.029361e-01	1.817128e-01	-3.942317e+00	-8.010865e-01	1.824339e-01	-3.942327e+00	-7.991325e-01	1.831873e-01	-3.945358e+00	-7.972511e-01	1.839109e-01	-3.951244e+00	-7.955748e-01	1.845446e-01	-3.959802e+00	-7.942034e-01	1.852839e-01	-3.977244e+00	-7.927204e-01	1.856260e-01	-3.991599e+00	-7.920819e-01	1.858400e-01	-4.007873e+00	-7.917030e-01	1.859455e-01	-4.025843e+00	-7.915251e-01	1.859998e-01	-4.055474e+00	-7.914382e-01	1.859839e-01	-4.076712e+00	-7.914628e-01	1.859383e-01	-4.110532e+00	-7.915292e-01	1.858764e-01	-4.147684e+00	-7.916140e-01
11            	1.993846e-01	-4.602143e+00	-8.560846e-01	2.045283e-01	-4.687529e+00	-8.827040e-01	2.064596e-01	-4.744340e+00	-8.947805e-01	2.080263e-01	-4.774456e+00	-9.069839e-01	2.092336e-01	-4.784213e+00	-9.190609e-01	2.101321e-01	-4.787797e+00	-9.315378e-01	2.106355e-01	-4.788495e+00	-9.442821e-01	2.106700e-01	-4.786332e+00	-9.570051e-01	2.105175e-01	-4.784365e+00	-9.628028e-01	2.099468e-01	-4.779423e+00	-9.732999e-01	2.091437e-01	-4.773891e+00	-9.820655e-01	2.087077e-01	-4.771213e+00	-9.857035e-01	2.078460e-01	-4.766490e+00	-9.915853e-01	2.070735e-01	-4.762926e+00	-9.958146e-01	2.064327e-01	-4.760737e+00	-9.987498e-01	2.061670e-01	-4.760179e+00	-9.998313e-01	2.057074e-01	-4.760061e+00	-1.001527e+00	2.053224e-01	-4.761102e+00	-1.002789e+00	2.049356e-01	-4.763013e+00	-1.003930e+00	2.044898e-01	-4.765536e+00	-1.005132e+00	2.039622e-01	-4.768472e+00	-1.006443e+00	2.033400e-01	-4.771668e+00	-1.007880e+00	2.026248e-01	-4.775047e+00	-1.009423e+00	2.014353e-01	-4.780410e+00	-1.011799e+00	2.006087e-01	-4.784163e+00	-1.013338e+00	1.997944e-01	-4.788088e+00	-1.014779e+00	1.990346e-01	-4.792246e+00	-1.016060e+00	1.980783e-01	-4.799100e+00	-1.017586e+00	1.975920e-01	-4.804290e+00	-1.018322e+00	1.971227e-01	-4.813743e+00	-1.019001e+00	1.969441e-01	-4.827729e+00	-1.019247e+00
12            	1.060206e-01	-1.192867e+00	-4.573251e-01	1.064666e-01	-1.157637e+00	-4.594450e-01	1.064477e-01	-1.129683e+00	-4.592677e-01	1.068665e-01	-1.101219e+00	-4.623020e-01	1.073876e-01	-1.082461e+00	-4.672007e-01	1.077537e-01	-1.069644e+00	-4.719644e-01	1.079545e-01	-1.060883e+00	-4.767987e-01	1.079755e-01	-1.054508e+00	-4.817696e-01	1.079201e-01	-1.052012e+00	-4.839370e-01	1.077223e-01	-1.047853e+00	-4.876146e-01	1.074884e-01	-1.044453e+00	-4.901781e-01	1.073895e-01	-1.043013e+00	-4.909998e-01	1.072534e-01	-1.040527e+00	-4.919330e-01	1.072040e-01	-1.038257e+00	-4.922033e-01	1.072126e-01	-1.035836e+00	-4.921612e-01	1.072264e-01	-1.034456e+00	-4.921039e-01	1.072187e-01	-1.031113e+00	-4.921300e-01	1.071345e-01	-1.026717e+00	-4.924068e-01	1.069239e-01	-1.021015e+00	-4.930305e-01	1.065763e-01	-1.013912e+00	-4.939717e-01	1.061114e-01	-1.005443e+00	-4.951309e-01	1.055640e-01	-9.957283e-01	-4.963978e-01	1.049791e-01	-9.849680e-01	-4.976614e-01	1.041217e-01	-9.673865e-01	-4.993767e-01	1.036123e-01	-9.550610e-01	-5.003257e-01	1.031947e-01	-9.425677e-01	-5.010645e-01	1.028926e-01	-9.302022e-01	-5.015738e-01	1.026613e-01	-9.126196e-01	-5.019440e-01	1.026570e-01	-9.021280e-01	-5.019508e-01	1.028360e-01	-8.896780e-01	-5.016934e-01	1.031424e-01	-8.847458e-01	-5.012748e-01
13            	5.426704e-02	6.584990e-01	-2.337523e-01	3.904683e-02	7.395767e-01	-1.543848e-01	3.081417e-02	7.823016e-01	-1.040478e-01	2.609994e-02	8.094234e-01	-6.844269e-02	2.385860e-02	8.197553e-01	-4.644613e-02	2.248216e-02	8.233333e-01	-2.763983e-02	2.178575e-02	8.249295e-01	-1.060932e-02	2.173431e-02	8.271128e-01	4.817304e-03	2.191357e-02	8.286070e-01	1.169413e-02	2.259196e-02	8.327448e-01	2.414381e-02	2.362815e-02	8.384826e-01	3.536455e-02	2.425961e-02	8.419077e-01	4.060546e-02	2.568948e-02	8.499079e-01	5.028267e-02	2.725192e-02	8.595824e-01	5.878290e-02	2.885145e-02	8.710262e-01	6.607965e-02	2.963965e-02	8.774192e-01	6.928683e-02	3.115413e-02	8.915456e-01	7.487350e-02	3.255559e-02	9.073704e-01	7.946996e-02	3.383666e-02	9.246886e-01	8.326180e-02	3.502960e-02	9.431712e-01	8.648385e-02	3.616370e-02	9.624298e-01	8.930548e-02	3.727679e-02	9.820854e-01	9.187677e-02	3.839772e-02	1.001766e+00	9.429620e-02	4.011051e-02	1.030614e+00	9.771973e-02	4.126835e-02	1.048989e+00	9.987674e-02	4.243751e-02	1.066368e+00	1.019450e-01	4.359837e-02	1.082486e+00	1.039019e-01	4.526087e-02	1.103673e+00	1.065531e-01	4.628377e-02	1.115306e+00	1.081015e-01	4.760784e-02	1.127773e+00	1.100134e-01	4.854782e-02	1.131031e+00	1.113011e-01
14            	-1.012204e-01	1.186030e+00	4.597518e-01	-1.355703e-01	1.220872e+00	6.378213e-01	-1.499011e-01	1.216385e+00	7.249738e-01	-1.576926e-01	1.198537e+00	7.833043e-01	-1.614778e-01	1.179059e+00	8.199342e-01	-1.637566e-01	1.161460e+00	8.505268e-01	-1.648964e-01	1.149071e+00	8.779233e-01	-1.649929e-01	1.143937e+00	9.028469e-01	-1.647105e-01	1.143974e+00	9.137980e-01	-1.636510e-01	1.148333e+00	9.332903e-01	-1.620826e-01	1.157283e+00	9.502671e-01	-1.611554e-01	1.163124e+00	9.579479e-01	-1.591071e-01	1.177107e+00	9.717896e-01	-1.569088e-01	1.193718e+00	9.837276e-01	-1.546415e-01	1.212386e+00	9.940534e-01	-1.534983e-01	1.222304e+00	9.987007e-01	-1.511924e-01	1.242957e+00	1.007199e+00	-1.488648e-01	1.264198e+00	1.014832e+00	-1.464869e-01	1.285420e+00	1.021873e+00	-1.440153e-01	1.306038e+00	1.028552e+00	-1.414428e-01	1.325551e+00	1.034958e+00	-1.387723e-01	1.343589e+00	1.041130e+00	-1.360329e-01	1.359877e+00	1.047046e+00	-1.319013e-01	1.380657e+00	1.055307e+00	-1.292108e-01	1.391934e+00	1.060319e+00	-1.266359e-01	1.401074e+00	1.064874e+00	-1.242390e-01	1.408016e+00	1.068915e+00	-1.210699e-01	1.414152e+00	1.073971e+00	-1.192964e-01	1.415228e+00	1.076655e+00	-1.172363e-01	1.411723e+00	1.079631e+00	-1.160334e-01	1.399849e+00	1.081281e+00
15            	-1.058825e-01	3.271168e-01	4.808576e-01	-1.159298e-01	2.648740e-01	5.316713e-01	-1.145257e-01	2.001930e-01	5.226488e-01	-1.131189e-01	1.394165e-01	5.114808e-01	-1.124861e-01	9.809531e-02	5.046601e-01	-1.121366e-01	6.813519e-02	4.991300e-01	-1.119676e-01	4.861723e-02	4.940343e-01	-1.119762e-01	4.003897e-02	4.890349e-01	-1.120461e-01	3.946200e-02	4.865684e-01	-1.123069e-01	4.374374e-02	4.818086e-01	-1.126993e-01	5.324728e-02	4.774680e-01	-1.129374e-01	5.939428e-02	4.754403e-01	-1.134926e-01	7.376335e-02	4.715863e-01	-1.141348e-01	9.009511e-02	4.680104e-01	-1.148084e-01	1.074373e-01	4.648723e-01	-1.151371e-01	1.162106e-01	4.635088e-01	-1.157267e-01	1.334858e-01	4.612927e-01	-1.161786e-01	1.498219e-01	4.597820e-01	-1.164424e-01	1.646285e-01	4.589847e-01	-1.164893e-01	1.774595e-01	4.588488e-01	-1.163368e-01	1.880436e-01	4.592240e-01	-1.160267e-01	1.962765e-01	4.599388e-01	-1.156201e-01	2.021548e-01	4.608163e-01	-1.149584e-01	2.067005e-01	4.621396e-01	-1.145498e-01	2.070310e-01	4.629012e-01	-1.142101e-01	2.053109e-01	4.635024e-01	-1.139632e-01	2.016149e-01	4.639188e-01	-1.137544e-01	1.924771e-01	4.642528e-01	-1.137175e-01	1.840032e-01	4.643087e-01	-1.137958e-01	1.674470e-01	4.641962e-01	-1.140327e-01	1.445540e-01	4.638729e-01
16            	-1.753909e-02	-4.121773e-01	7.940317e-02	1.111357e-02	-5.187525e-01	-7.113538e-02	3.054665e-02	-5.998298e-01	-1.898795e-01	4.134481e-02	-6.649897e-01	-2.715641e-01	4.632659e-02	-7.025848e-01	-3.207609e-01	4.921925e-02	-7.265113e-01	-3.607994e-01	5.065314e-02	-7.409401e-01	-3.968225e-01	5.074133e-02	-7.466322e-01	-4.304002e-01	5.034043e-02	-7.466197e-01	-4.455881e-01	4.884428e-02	-7.428150e-01	-4.730786e-01	4.664501e-02	-7.358240e-01	-4.970391e-01	4.534889e-02	-7.315929e-01	-5.078608e-01	4.246854e-02	-7.222104e-01	-5.274868e-01	3.934569e-02	-7.122730e-01	-5.445837e-01	3.614777e-02	-7.025724e-01	-5.592561e-01	3.456588e-02	-6.980203e-01	-5.657286e-01	3.150103e-02	-6.898164e-01	-5.770903e-01	2.863468e-02	-6.831233e-01	-5.865350e-01	2.599750e-02	-6.781726e-01	-5.943681e-01	2.357926e-02	-6.750312e-01	-6.009184e-01	2.133964e-02	-6.736229e-01	-6.065020e-01	1.921875e-02	-6.737817e-01	-6.114079e-01	1.716153e-02	-6.753276e-01	-6.158513e-01	1.413072e-02	-6.799155e-01	-6.219113e-01	1.214125e-02	-6.843238e-01	-6.256171e-01	1.019146e-02	-6.897480e-01	-6.290661e-01	8.317228e-03	-6.961785e-01	-6.322254e-01	5.757223e-03	-7.077714e-01	-6.363086e-01	4.274790e-03	-7.169104e-01	-6.385527e-01	2.478256e-03	-7.332411e-01	-6.411476e-01	1.281903e-03	-7.547606e-01	-6.427872e-01
17            	4.977728e-02	-3.881549e-01	-2.299041e-01	9.249147e-02	-4.644337e-01	-4.523677e-01	1.109986e-01	-5.193669e-01	-5.649741e-01	1.192976e-01	-5.593293e-01	-6.274600e-01	1.227065e-01	-5.778998e-01	-6.609874e-01	1.246358e-01	-5.873478e-01	-6.875490e-01	1.256154e-01	-5.920700e-01	-7.120402e-01	1.256817e-01	-5.927878e-01	-7.357189e-01	1.253971e-01	-5.918761e-01	-7.465631e-01	1.243311e-01	-5.885626e-01	-7.661724e-01	1.227753e-01	-5.842129e-01	-7.831161e-01	1.218668e-01	-5.818324e-01	-7.906941e-01	1.198754e-01	-5.768529e-01	-8.042538e-01	1.177775e-01	-5.719365e-01	-8.157325e-01	1.157052e-01	-5.675190e-01	-8.252340e-01	1.147086e-01	-5.655890e-01	-8.293080e-01	1.128123e-01	-5.623528e-01	-8.363331e-01	1.110623e-01	-5.599602e-01	-8.420958e-01	1.094265e-01	-5.583226e-01	-8.469511e-01	1.078475e-01	-5.572602e-01	-8.512254e-01	1.062688e-01	-5.565585e-01	-8.551589e-01	1.046416e-01	-5.560323e-01	-8.589215e-01	1.029472e-01	-5.555799e-01	-8.625804e-01	1.003159e-01	-5.550323e-01	-8.678403e-01	9.856049e-02	-5.548560e-01	-8.711102e-01	9.686392e-02	-5.549822e-01	-8.741113e-01	9.528629e-02	-5.555746e-01	-8.767708e-01	9.325298e-02	-5.577534e-01	-8.800151e-01	9.216964e-02	-5.604085e-01	-8.816552e-01	9.101585e-02	-5.671065e-01	-8.833231e-01	9.047991e-02	-5.796643e-01	-8.840596e-01
18            	5.176227e-02	1.473852e-01	-2.411127e-01	7.102933e-02	1.151165e-01	-3.399273e-01	6.909264e-02	9.026614e-02	-3.276634e-01	6.503430e-02	7.454358e-02	-2.970801e-01	6.268011e-02	7.027955e-02	-2.741988e-01	6.138272e-02	6.921661e-02	-2.566546e-01	6.084472e-02	6.903816e-02	-2.437270e-01	6.080824e-02	7.029192e-02	-2.342252e-01	6.090603e-02	7.145820e-02	-2.304884e-01	6.125668e-02	7.461226e-02	-2.240591e-01	6.177456e-02	7.864195e-02	-2.184571e-01	6.208634e-02	8.097930e-02	-2.158732e-01	6.280851e-02	8.624786e-02	-2.109965e-01	6.367952e-02	9.203651e-02	-2.062659e-01	6.470804e-02	9.804188e-02	-2.015749e-01	6.527363e-02	1.010860e-01	-1.992692e-01	6.646350e-02	1.072790e-01	-1.948738e-01	6.767731e-02	1.136759e-01	-1.908843e-01	6.883195e-02	1.203878e-01	-1.874589e-01	6.985417e-02	1.275240e-01	-1.846914e-01	7.069615e-02	1.351330e-01	-1.825916e-01	7.134567e-02	1.431668e-01	-1.810885e-01	7.182712e-02	1.514684e-01	-1.800477e-01	7.233747e-02	1.639108e-01	-1.790249e-01	7.261347e-02	1.718192e-01	-1.785104e-01	7.289308e-02	1.791090e-01	-1.780159e-01	7.321265e-02	1.855294e-01	-1.774774e-01	7.379722e-02	1.929834e-01	-1.765464e-01	7.425617e-02	1.960929e-01	-1.758522e-01	7.502706e-02	1.969530e-01	-1.747407e-01	7.585442e-02	1.905119e-01	-1.736097e-01
19            	2.270888e-02	4.420501e-01	-1.050952e-01	1.422597e-03	4.108650e-01	7.808955e-03	-2.188007e-02	3.903499e-01	1.499055e-01	-3.580879e-02	3.785569e-01	2.543289e-01	-4.187780e-02	3.737367e-01	3.133024e-01	-4.502566e-02	3.694096e-01	3.558927e-01	-4.641843e-02	3.656561e-01	3.896722e-01	-4.651944e-02	3.646068e-01	4.179843e-01	-4.620542e-02	3.652256e-01	4.300338e-01	-4.504834e-02	3.685414e-01	4.513000e-01	-4.335307e-02	3.743799e-01	4.696823e-01	-4.235189e-02	3.781731e-01	4.779934e-01	-4.010552e-02	3.872311e-01	4.932022e-01	-3.759035e-02	3.977321e-01	5.068897e-01	-3.488095e-02	4.092148e-01	5.192589e-01	-3.348506e-02	4.152560e-01	5.249486e-01	-3.067790e-02	4.278863e-01	5.353192e-01	-2.792910e-02	4.411721e-01	5.443525e-01	-2.531306e-02	4.550084e-01	5.521096e-01	-2.286890e-02	4.692375e-01	5.587230e-01	-2.060669e-02	4.836199e-01	5.643602e-01	-1.849683e-02	4.978419e-01	5.692392e-01	-1.649219e-02	5.115444e-01	5.735689e-01	-1.359068e-02	5.303776e-01	5.793711e-01	-1.169060e-02	5.413783e-01	5.829108e-01	-9.812440e-03	5.508820e-01	5.862330e-01	-7.971661e-03	5.587236e-01	5.893358e-01	-5.351642e-03	5.670390e-01	5.935136e-01	-3.755880e-03	5.700210e-01	5.959287e-01	-1.688310e-03	5.698851e-01	5.989135e-01	-1.459190e-04	5.618250e-01	6.010256e-01
20            	-3.698303e-03	3.829975e-01	2.047813e-02	-4.795251e-02	3.158469e-01	2.520025e-01	-7.280080e-02	2.779535e-01	4.026493e-01	-8.340178e-02	2.540832e-01	4.814671e-01	-8.674670e-02	2.389240e-01	5.135809e-01	-8.813387e-02	2.254036e-01	5.319574e-01	-8.870993e-02	2.147930e-01	5.455026e-01	-8.876142e-02	2.100131e-01	5.567413e-01	-8.863930e-02	2.098988e-01	5.615273e-01	-8.817056e-02	2.133997e-01	5.701350e-01	-8.746191e-02	2.210005e-01	5.777667e-01	-8.703550e-02	2.260465e-01	5.812796e-01	-8.605464e-02	2.379792e-01	5.878669e-01	-8.492370e-02	2.515482e-01	5.939794e-01	-8.368854e-02	2.661235e-01	5.995882e-01	-8.305474e-02	2.736849e-01	6.021596e-01	-8.178989e-02	2.892056e-01	6.068147e-01	-8.056365e-02	3.050178e-01	6.108322e-01	-7.938700e-02	3.208027e-01	6.143130e-01	-7.823946e-02	3.361983e-01	6.174127e-01	-7.708829e-02	3.508073e-01	6.202776e-01	-7.588633e-02	3.642410e-01	6.230548e-01	-7.459898e-02	3.761636e-01	6.258338e-01	-7.249734e-02	3.907166e-01	6.300333e-01	-7.101535e-02	3.980340e-01	6.327938e-01	-6.951787e-02	4.034025e-01	6.354426e-01	-6.805696e-02	4.068240e-01	6.379051e-01	-6.604200e-02	4.082832e-01	6.411188e-01	-6.487785e-02	4.067150e-01	6.428808e-01	-6.348771e-02	4.000455e-01	6.448886e-01	-6.264644e-02	3.861647e-01	6.460421e-01