# y+ ()       
# Time        	patch         	min           	max           	average       
0             	airfoil-l1	1.546494e+00	1.993530e+00	1.718646e+00
0             	wall-l1	0.000000e+00	0.000000e+00	0.000000e+00
0             	airfoil-l2	1.791117e+00	1.844756e+00	1.808596e+00
0             	wall-l2	0.000000e+00	0.000000e+00	0.000000e+00
0             	wall-h2	0.000000e+00	0.000000e+00	0.000000e+00
0             	airfoil-h2	1.791556e+00	1.843821e+00	1.812044e+00
0             	wall-h1	0.000000e+00	0.000000e+00	0.000000e+00
0             	airfoil-h1	1.550894e+00	1.993440e+00	1.712507e+00
50            	airfoil-l1	1.194000e-01	4.490644e-01	2.109916e-01
50            	wall-l1	4.745089e+01	1.104653e+02	7.112794e+01
50            	airfoil-l2	1.387691e-01	1.706822e-01	1.597969e-01
50            	wall-l2	5.706507e+01	1.031956e+02	7.209012e+01
50            	wall-h2	5.666902e+01	1.031758e+02	7.201342e+01
50            	airfoil-h2	1.384034e-01	1.689680e-01	1.600817e-01
50            	wall-h1	4.750905e+01	1.103578e+02	7.102685e+01
50            	airfoil-h1	1.097704e-01	4.580753e-01	1.945850e-01
100           	airfoil-l1	1.070195e-01	2.049968e-01	1.885820e-01
100           	wall-l1	3.696619e+01	5.022574e+01	4.519664e+01
100           	airfoil-l2	9.862269e-02	1.762569e-01	1.454238e-01
100           	wall-l2	1.800837e+01	4.682556e+01	2.986539e+01
100           	wall-h2	1.657680e+01	4.498766e+01	2.922717e+01
100           	airfoil-h2	9.716559e-02	1.697683e-01	1.413622e-01
100           	wall-h1	3.720835e+01	5.084951e+01	4.573102e+01
100           	airfoil-h1	8.400194e-02	2.051525e-01	1.817438e-01
150           	airfoil-l1	1.038060e-01	1.948417e-01	1.767762e-01
150           	wall-l1	1.684537e+01	3.183221e+01	2.078228e+01
150           	airfoil-l2	9.201777e-02	1.674601e-01	1.383129e-01
150           	wall-l2	3.213027e+01	4.917647e+01	4.090120e+01
150           	wall-h2	3.161336e+01	4.548508e+01	3.979728e+01
150           	airfoil-h2	8.631101e-02	1.641162e-01	1.354705e-01
150           	wall-h1	1.504290e+01	3.128532e+01	1.979988e+01
150           	airfoil-h1	8.976814e-02	1.928746e-01	1.744675e-01
200           	airfoil-l1	1.039864e-01	1.947621e-01	1.744372e-01
200           	wall-l1	2.896488e+01	2.921504e+01	2.912283e+01
200           	airfoil-l2	8.407947e-02	1.640604e-01	1.329505e-01
200           	wall-l2	2.849575e+01	3.465242e+01	2.980017e+01
200           	wall-h2	2.584453e+01	2.813375e+01	2.702493e+01
200           	airfoil-h2	7.985197e-02	1.617671e-01	1.313219e-01
200           	wall-h1	2.733385e+01	2.813846e+01	2.773527e+01
200           	airfoil-h1	8.947130e-02	1.926855e-01	1.719196e-01
250           	airfoil-l1	1.038291e-01	1.946980e-01	1.734856e-01
250           	wall-l1	2.666904e+01	2.800132e+01	2.755782e+01
250           	airfoil-l2	7.915710e-02	1.625398e-01	1.300211e-01
250           	wall-l2	2.795782e+01	3.063640e+01	2.916784e+01
250           	wall-h2	2.585288e+01	2.752611e+01	2.658367e+01
250           	airfoil-h2	7.608708e-02	1.608564e-01	1.291327e-01
250           	wall-h1	2.523110e+01	2.601041e+01	2.578357e+01
250           	airfoil-h1	8.963096e-02	1.926949e-01	1.712850e-01
300           	airfoil-l1	1.035210e-01	1.946079e-01	1.730311e-01
300           	wall-l1	2.486695e+01	2.640218e+01	2.557420e+01
300           	airfoil-l2	7.629625e-02	1.617623e-01	1.283542e-01
300           	wall-l2	2.642444e+01	3.063970e+01	2.834071e+01
300           	wall-h2	2.516462e+01	2.817855e+01	2.657426e+01
300           	airfoil-h2	7.409961e-02	1.604330e-01	1.279584e-01
300           	wall-h1	2.396082e+01	2.514797e+01	2.453192e+01
300           	airfoil-h1	8.998970e-02	1.927858e-01	1.710529e-01
350           	airfoil-l1	1.032500e-01	1.945239e-01	1.728268e-01
350           	wall-l1	2.527155e+01	2.620184e+01	2.576060e+01
350           	airfoil-l2	7.465807e-02	1.613911e-01	1.274184e-01
350           	wall-l2	2.621662e+01	3.084152e+01	2.804133e+01
350           	wall-h2	2.529783e+01	2.855961e+01	2.670303e+01
350           	airfoil-h2	7.310602e-02	1.602305e-01	1.273331e-01
350           	wall-h1	2.450135e+01	2.528523e+01	2.491707e+01
350           	airfoil-h1	9.030090e-02	1.928661e-01	1.709696e-01
400           	airfoil-l1	1.030236e-01	1.944543e-01	1.727257e-01
400           	wall-l1	2.543168e+01	2.646095e+01	2.598768e+01
400           	airfoil-l2	7.370268e-02	1.612089e-01	1.268729e-01
400           	wall-l2	2.647409e+01	3.050221e+01	2.815023e+01
400           	wall-h2	2.565847e+01	2.885703e+01	2.705646e+01
400           	airfoil-h2	7.260148e-02	1.601327e-01	1.269860e-01
400           	wall-h1	2.481350e+01	2.564724e+01	2.526985e+01
400           	airfoil-h1	9.055944e-02	1.929323e-01	1.709453e-01
450           	airfoil-l1	1.028135e-01	1.943916e-01	1.726703e-01
450           	wall-l1	2.524685e+01	2.632559e+01	2.581577e+01
450           	airfoil-l2	7.315835e-02	1.611206e-01	1.265564e-01
450           	wall-l2	2.633934e+01	3.007979e+01	2.796811e+01
450           	wall-h2	2.579885e+01	2.922990e+01	2.729571e+01
450           	airfoil-h2	7.236545e-02	1.600902e-01	1.267964e-01
450           	wall-h1	2.491154e+01	2.578696e+01	2.538565e+01
450           	airfoil-h1	9.079980e-02	1.929950e-01	1.709484e-01
500           	airfoil-l1	1.026184e-01	1.943338e-01	1.726350e-01
500           	wall-l1	2.507566e+01	2.611563e+01	2.562147e+01
500           	airfoil-l2	7.286729e-02	1.610775e-01	1.263755e-01
500           	wall-l2	2.612923e+01	2.973163e+01	2.770670e+01
500           	wall-h2	2.594803e+01	2.961443e+01	2.752703e+01
500           	airfoil-h2	7.227889e-02	1.600752e-01	1.266948e-01
500           	wall-h1	2.503530e+01	2.593570e+01	2.552188e+01
500           	airfoil-h1	9.102265e-02	1.930542e-01	1.709629e-01
550           	airfoil-l1	1.024534e-01	1.942848e-01	1.726096e-01
550           	wall-l1	2.497793e+01	2.597668e+01	2.550404e+01
550           	airfoil-l2	7.272774e-02	1.610549e-01	1.262728e-01
550           	wall-l2	2.598994e+01	2.946961e+01	2.751773e+01
550           	wall-h2	2.610907e+01	2.993283e+01	2.774001e+01
550           	airfoil-h2	7.227267e-02	1.600729e-01	1.266415e-01
550           	wall-h1	2.515558e+01	2.609631e+01	2.566235e+01
550           	airfoil-h1	9.121057e-02	1.931044e-01	1.709802e-01
600           	airfoil-l1	1.023295e-01	1.942476e-01	1.725908e-01
600           	wall-l1	2.492191e+01	2.589321e+01	2.543537e+01
600           	airfoil-l2	7.267482e-02	1.610414e-01	1.262139e-01
600           	wall-l2	2.590613e+01	2.930482e+01	2.740164e+01
600           	wall-h2	2.621310e+01	3.012709e+01	2.787515e+01
600           	airfoil-h2	7.230609e-02	1.600758e-01	1.266141e-01
600           	wall-h1	2.523002e+01	2.620005e+01	2.574990e+01
600           	airfoil-h1	9.135133e-02	1.931425e-01	1.709958e-01
650           	airfoil-l1	1.022436e-01	1.942217e-01	1.725771e-01
650           	wall-l1	2.488806e+01	2.584229e+01	2.539440e+01
650           	airfoil-l2	7.266890e-02	1.610324e-01	1.261789e-01
650           	wall-l2	2.585501e+01	2.920722e+01	2.733139e+01
650           	wall-h2	2.626926e+01	3.023375e+01	2.794913e+01
650           	airfoil-h2	7.235604e-02	1.600802e-01	1.266004e-01
650           	wall-h1	2.526665e+01	2.625599e+01	2.579473e+01
650           	airfoil-h1	9.144870e-02	1.931689e-01	1.710080e-01
700           	airfoil-l1	1.021869e-01	1.942044e-01	1.725674e-01
700           	wall-l1	2.486858e+01	2.581464e+01	2.537148e+01
700           	airfoil-l2	7.268786e-02	1.610258e-01	1.261570e-01
700           	wall-l2	2.582726e+01	2.915074e+01	2.729186e+01
700           	wall-h2	2.629926e+01	3.029859e+01	2.799099e+01
700           	airfoil-h2	7.241095e-02	1.600845e-01	1.265937e-01
700           	wall-h1	2.528853e+01	2.628586e+01	2.581976e+01
700           	airfoil-h1	9.151280e-02	1.931866e-01	1.710168e-01
750           	airfoil-l1	1.021472e-01	1.941924e-01	1.725606e-01
750           	wall-l1	2.485383e+01	2.579697e+01	2.535563e+01
750           	airfoil-l2	7.271376e-02	1.610211e-01	1.261422e-01
750           	wall-l2	2.580951e+01	2.910935e+01	2.726508e+01
750           	wall-h2	2.632058e+01	3.034847e+01	2.802112e+01
750           	airfoil-h2	7.246002e-02	1.600880e-01	1.265902e-01
750           	wall-h1	2.530621e+01	2.630716e+01	2.583923e+01
750           	airfoil-h1	9.155766e-02	1.931987e-01	1.710231e-01
800           	airfoil-l1	1.021169e-01	1.941833e-01	1.725557e-01
800           	wall-l1	2.483956e+01	2.578038e+01	2.534008e+01
800           	airfoil-l2	7.274260e-02	1.610177e-01	1.261317e-01
800           	wall-l2	2.579288e+01	2.906790e+01	2.723931e+01
800           	wall-h2	2.634088e+01	3.039567e+01	2.804931e+01
800           	airfoil-h2	7.250358e-02	1.600906e-01	1.265878e-01
800           	wall-h1	2.532430e+01	2.632741e+01	2.585832e+01
800           	airfoil-h1	9.159174e-02	1.932078e-01	1.710276e-01
850           	airfoil-l1	1.020926e-01	1.941759e-01	1.725519e-01
850           	wall-l1	2.482510e+01	2.576304e+01	2.532416e+01
850           	airfoil-l2	7.277053e-02	1.610152e-01	1.261236e-01
850           	wall-l2	2.577551e+01	2.902744e+01	2.721357e+01
850           	wall-h2	2.636117e+01	3.044103e+01	2.807694e+01
850           	airfoil-h2	7.254130e-02	1.600925e-01	1.265855e-01
850           	wall-h1	2.534159e+01	2.634765e+01	2.587729e+01
850           	airfoil-h1	9.161903e-02	1.932151e-01	1.710311e-01
900           	airfoil-l1	1.020728e-01	1.941699e-01	1.725489e-01
900           	wall-l1	2.481223e+01	2.574654e+01	2.530959e+01
900           	airfoil-l2	7.279534e-02	1.610134e-01	1.261171e-01
900           	wall-l2	2.575895e+01	2.899100e+01	2.718954e+01
900           	wall-h2	2.638037e+01	3.048121e+01	2.810223e+01
900           	airfoil-h2	7.257303e-02	1.600938e-01	1.265831e-01
900           	wall-h1	2.535688e+01	2.636682e+01	2.589455e+01
900           	airfoil-h1	9.164121e-02	1.932209e-01	1.710337e-01
950           	airfoil-l1	1.020578e-01	1.941654e-01	1.725465e-01
950           	wall-l1	2.480371e+01	2.573331e+01	2.529862e+01
950           	airfoil-l2	7.281620e-02	1.610119e-01	1.261116e-01
950           	wall-l2	2.574569e+01	2.896336e+01	2.717071e+01
950           	wall-h2	2.639587e+01	3.051156e+01	2.812231e+01
950           	airfoil-h2	7.259919e-02	1.600947e-01	1.265805e-01
950           	wall-h1	2.536864e+01	2.638229e+01	2.590808e+01
950           	airfoil-h1	9.165802e-02	1.932254e-01	1.710358e-01
1000          	airfoil-l1	1.020474e-01	1.941622e-01	1.725448e-01
1000          	wall-l1	2.479835e+01	2.572523e+01	2.529231e+01
1000          	airfoil-l2	7.283281e-02	1.610108e-01	1.261067e-01
1000          	wall-l2	2.573758e+01	2.894590e+01	2.715869e+01
1000          	wall-h2	2.640630e+01	3.052851e+01	2.813491e+01
1000          	airfoil-h2	7.262019e-02	1.600953e-01	1.265776e-01
1000          	wall-h1	2.537564e+01	2.639266e+01	2.591685e+01
1000          	airfoil-h1	9.166978e-02	1.932286e-01	1.710372e-01
1050          	airfoil-l1	1.020411e-01	1.941601e-01	1.725435e-01
1050          	wall-l1	2.479775e+01	2.572191e+01	2.529014e+01
1050          	airfoil-l2	7.284581e-02	1.610098e-01	1.261021e-01
1050          	wall-l2	2.573426e+01	2.893920e+01	2.715383e+01
1050          	wall-h2	2.641220e+01	3.053673e+01	2.814183e+01
1050          	airfoil-h2	7.263713e-02	1.600958e-01	1.265746e-01
1050          	wall-h1	2.537992e+01	2.639854e+01	2.592151e+01
1050          	airfoil-h1	9.167671e-02	1.932303e-01	1.710381e-01
1100          	airfoil-l1	1.020377e-01	1.941590e-01	1.725426e-01
1100          	wall-l1	2.479865e+01	2.572220e+01	2.529097e+01
1100          	airfoil-l2	7.285393e-02	1.610091e-01	1.260978e-01
1100          	wall-l2	2.573452e+01	2.893861e+01	2.715328e+01
1100          	wall-h2	2.641519e+01	3.053805e+01	2.814448e+01
1100          	airfoil-h2	7.264825e-02	1.600960e-01	1.265715e-01
1100          	wall-h1	2.538120e+01	2.640153e+01	2.592352e+01
1100          	airfoil-h1	9.168038e-02	1.932313e-01	1.710386e-01
1150          	airfoil-l1	1.020362e-01	1.941583e-01	1.725420e-01
1150          	wall-l1	2.480118e+01	2.572364e+01	2.529290e+01
1150          	airfoil-l2	7.285963e-02	1.610085e-01	1.260936e-01
1150          	wall-l2	2.573596e+01	2.893941e+01	2.715454e+01
1150          	wall-h2	2.641523e+01	3.053602e+01	2.814418e+01
1150          	airfoil-h2	7.265614e-02	1.600961e-01	1.265683e-01
1150          	wall-h1	2.538187e+01	2.640155e+01	2.592367e+01
1150          	airfoil-h1	9.168195e-02	1.932316e-01	1.710388e-01
1200          	airfoil-l1	1.020352e-01	1.941579e-01	1.725417e-01
1200          	wall-l1	2.480330e+01	2.572606e+01	2.529529e+01
1200          	airfoil-l2	7.286269e-02	1.610080e-01	1.260896e-01
1200          	wall-l2	2.573836e+01	2.894258e+01	2.715704e+01
1200          	wall-h2	2.641503e+01	3.053306e+01	2.814328e+01
1200          	airfoil-h2	7.266068e-02	1.600961e-01	1.265651e-01
1200          	wall-h1	2.538196e+01	2.640137e+01	2.592369e+01
1200          	airfoil-h1	9.168288e-02	1.932317e-01	1.710389e-01
1250          	airfoil-l1	1.020345e-01	1.941576e-01	1.725413e-01
1250          	wall-l1	2.480442e+01	2.572796e+01	2.529695e+01
1250          	airfoil-l2	7.286345e-02	1.610077e-01	1.260858e-01
1250          	wall-l2	2.574027e+01	2.894270e+01	2.715830e+01
1250          	wall-h2	2.641508e+01	3.053179e+01	2.814278e+01
1250          	airfoil-h2	7.266216e-02	1.600961e-01	1.265619e-01
1250          	wall-h1	2.538252e+01	2.640143e+01	2.592413e+01
1250          	airfoil-h1	9.168350e-02	1.932317e-01	1.710388e-01
1300          	airfoil-l1	1.020333e-01	1.941571e-01	1.725410e-01
1300          	wall-l1	2.480517e+01	2.572871e+01	2.529769e+01
1300          	airfoil-l2	7.286222e-02	1.610074e-01	1.260821e-01
1300          	wall-l2	2.574102e+01	2.894149e+01	2.715832e+01
1300          	wall-h2	2.641595e+01	3.053275e+01	2.814363e+01
1300          	airfoil-h2	7.266106e-02	1.600959e-01	1.265586e-01
1300          	wall-h1	2.538435e+01	2.640229e+01	2.592555e+01
1300          	airfoil-h1	9.168483e-02	1.932321e-01	1.710388e-01
1350          	airfoil-l1	1.020317e-01	1.941566e-01	1.725407e-01
1350          	wall-l1	2.480505e+01	2.572918e+01	2.529778e+01
1350          	airfoil-l2	7.285865e-02	1.610071e-01	1.260785e-01
1350          	wall-l2	2.574148e+01	2.893936e+01	2.715768e+01
1350          	wall-h2	2.641855e+01	3.053641e+01	2.814638e+01
1350          	airfoil-h2	7.265753e-02	1.600958e-01	1.265553e-01
1350          	wall-h1	2.538675e+01	2.640491e+01	2.592805e+01
1350          	airfoil-h1	9.168655e-02	1.932324e-01	1.710388e-01
1400          	airfoil-l1	1.020297e-01	1.941560e-01	1.725404e-01
1400          	wall-l1	2.480457e+01	2.572793e+01	2.529688e+01
1400          	airfoil-l2	7.285235e-02	1.610068e-01	1.260751e-01
1400          	wall-l2	2.574022e+01	2.893387e+01	2.715499e+01
1400          	wall-h2	2.642117e+01	3.054106e+01	2.814957e+01
1400          	airfoil-h2	7.265085e-02	1.600956e-01	1.265519e-01
1400          	wall-h1	2.538987e+01	2.640756e+01	2.593101e+01
1400          	airfoil-h1	9.168861e-02	1.932328e-01	1.710388e-01
1450          	airfoil-l1	1.020278e-01	1.941552e-01	1.725400e-01
1450          	wall-l1	2.480386e+01	2.572674e+01	2.529588e+01
1450          	airfoil-l2	7.284457e-02	1.610065e-01	1.260717e-01
1450          	wall-l2	2.573904e+01	2.893014e+01	2.715270e+01
1450          	wall-h2	2.642464e+01	3.054630e+01	2.815351e+01
1450          	airfoil-h2	7.264280e-02	1.600955e-01	1.265486e-01
1450          	wall-h1	2.539269e+01	2.641099e+01	2.593417e+01
1450          	airfoil-h1	9.169064e-02	1.932333e-01	1.710389e-01
1500          	airfoil-l1	1.020258e-01	1.941546e-01	1.725396e-01
1500          	wall-l1	2.480383e+01	2.572596e+01	2.529520e+01
1500          	airfoil-l2	7.283524e-02	1.610063e-01	1.260683e-01
1500          	wall-l2	2.573825e+01	2.892573e+01	2.715021e+01
1500          	wall-h2	2.642799e+01	3.055064e+01	2.815678e+01
1500          	airfoil-h2	7.263334e-02	1.600953e-01	1.265453e-01
1500          	wall-h1	2.539585e+01	2.641434e+01	2.593711e+01
1500          	airfoil-h1	9.169270e-02	1.932337e-01	1.710389e-01
1550          	airfoil-l1	1.020247e-01	1.941542e-01	1.725393e-01
1550          	wall-l1	2.480395e+01	2.572529e+01	2.529504e+01
1550          	airfoil-l2	7.282454e-02	1.610060e-01	1.260651e-01
1550          	wall-l2	2.573757e+01	2.892333e+01	2.714895e+01
1550          	wall-h2	2.643037e+01	3.055366e+01	2.815968e+01
1550          	airfoil-h2	7.262269e-02	1.600951e-01	1.265420e-01
1550          	wall-h1	2.539802e+01	2.641671e+01	2.593952e+01
1550          	airfoil-h1	9.169385e-02	1.932338e-01	1.710389e-01
1600          	airfoil-l1	1.020242e-01	1.941539e-01	1.725390e-01
1600          	wall-l1	2.480424e+01	2.572557e+01	2.529553e+01
1600          	airfoil-l2	7.281290e-02	1.610057e-01	1.260618e-01
1600          	wall-l2	2.573784e+01	2.892162e+01	2.714831e+01
1600          	wall-h2	2.643245e+01	3.055478e+01	2.816134e+01
1600          	airfoil-h2	7.261133e-02	1.600950e-01	1.265388e-01
1600          	wall-h1	2.539930e+01	2.641878e+01	2.594128e+01
1600          	airfoil-h1	9.169445e-02	1.932341e-01	1.710389e-01
1650          	airfoil-l1	1.020241e-01	1.941538e-01	1.725388e-01
1650          	wall-l1	2.480594e+01	2.572622e+01	2.529652e+01
1650          	airfoil-l2	7.279910e-02	1.610055e-01	1.260586e-01
1650          	wall-l2	2.573849e+01	2.892048e+01	2.714831e+01
1650          	wall-h2	2.643336e+01	3.055394e+01	2.816180e+01
1650          	airfoil-h2	7.259795e-02	1.600948e-01	1.265356e-01
1650          	wall-h1	2.540074e+01	2.641969e+01	2.594223e+01
1650          	airfoil-h1	9.169440e-02	1.932339e-01	1.710387e-01
1700          	airfoil-l1	1.020243e-01	1.941537e-01	1.725387e-01
1700          	wall-l1	2.480743e+01	2.572771e+01	2.529826e+01
1700          	airfoil-l2	7.278430e-02	1.610052e-01	1.260554e-01
1700          	wall-l2	2.573997e+01	2.892307e+01	2.715000e+01
1700          	wall-h2	2.643393e+01	3.055243e+01	2.816183e+01
1700          	airfoil-h2	7.258353e-02	1.600946e-01	1.265325e-01
1700          	wall-h1	2.540077e+01	2.642029e+01	2.594281e+01
1700          	airfoil-h1	9.169394e-02	1.932336e-01	1.710386e-01
1750          	airfoil-l1	1.020247e-01	1.941537e-01	1.725385e-01
1750          	wall-l1	2.480920e+01	2.572985e+01	2.530016e+01
1750          	airfoil-l2	7.276889e-02	1.610050e-01	1.260523e-01
1750          	wall-l2	2.574212e+01	2.892375e+01	2.715141e+01
1750          	wall-h2	2.643418e+01	3.054959e+01	2.816086e+01
1750          	airfoil-h2	7.256839e-02	1.600944e-01	1.265294e-01
1750          	wall-h1	2.540077e+01	2.642053e+01	2.594285e+01
1750          	airfoil-h1	9.169330e-02	1.932334e-01	1.710384e-01
1800          	airfoil-l1	1.020254e-01	1.941538e-01	1.725384e-01
1800          	wall-l1	2.481113e+01	2.573192e+01	2.530227e+01
1800          	airfoil-l2	7.275278e-02	1.610048e-01	1.260492e-01
1800          	wall-l2	2.574419e+01	2.892682e+01	2.715390e+01
1800          	wall-h2	2.643425e+01	3.054692e+01	2.816029e+01
1800          	airfoil-h2	7.255246e-02	1.600942e-01	1.265264e-01
1800          	wall-h1	2.540128e+01	2.642059e+01	2.594303e+01
1800          	airfoil-h1	9.169242e-02	1.932331e-01	1.710382e-01
1850          	airfoil-l1	1.020258e-01	1.941538e-01	1.725383e-01
1850          	wall-l1	2.481363e+01	2.573393e+01	2.530424e+01
1850          	airfoil-l2	7.273640e-02	1.610046e-01	1.260461e-01
1850          	wall-l2	2.574620e+01	2.892945e+01	2.715604e+01
1850          	wall-h2	2.643424e+01	3.054512e+01	2.815970e+01
1850          	airfoil-h2	7.253602e-02	1.600940e-01	1.265233e-01
1850          	wall-h1	2.540189e+01	2.642058e+01	2.594319e+01
1850          	airfoil-h1	9.169185e-02	1.932328e-01	1.710379e-01
1900          	airfoil-l1	1.020261e-01	1.941538e-01	1.725382e-01
1900          	wall-l1	2.481548e+01	2.573574e+01	2.530592e+01
1900          	airfoil-l2	7.271867e-02	1.610044e-01	1.260431e-01
1900          	wall-l2	2.574801e+01	2.893008e+01	2.715730e+01
1900          	wall-h2	2.643436e+01	3.054318e+01	2.815913e+01
1900          	airfoil-h2	7.251828e-02	1.600938e-01	1.265204e-01
1900          	wall-h1	2.540283e+01	2.642070e+01	2.594360e+01
1900          	airfoil-h1	9.169153e-02	1.932327e-01	1.710377e-01
1950          	airfoil-l1	1.020260e-01	1.941536e-01	1.725381e-01
1950          	wall-l1	2.481622e+01	2.573693e+01	2.530721e+01
1950          	airfoil-l2	7.270076e-02	1.610042e-01	1.260401e-01
1950          	wall-l2	2.574919e+01	2.893007e+01	2.715809e+01
1950          	wall-h2	2.643471e+01	3.054172e+01	2.815906e+01
1950          	airfoil-h2	7.250014e-02	1.600936e-01	1.265174e-01
1950          	wall-h1	2.540339e+01	2.642108e+01	2.594437e+01
1950          	airfoil-h1	9.169134e-02	1.932324e-01	1.710376e-01
2000          	airfoil-l1	1.020256e-01	1.941535e-01	1.725379e-01
2000          	wall-l1	2.481709e+01	2.573785e+01	2.530818e+01
2000          	airfoil-l2	7.268265e-02	1.610040e-01	1.260372e-01
2000          	wall-l2	2.575011e+01	2.893025e+01	2.715871e+01
2000          	wall-h2	2.643566e+01	3.054232e+01	2.815976e+01
2000          	airfoil-h2	7.248168e-02	1.600934e-01	1.265145e-01
2000          	wall-h1	2.540429e+01	2.642204e+01	2.594544e+01
2000          	airfoil-h1	9.169172e-02	1.932325e-01	1.710374e-01
2050          	airfoil-l1	1.020252e-01	1.941532e-01	1.725377e-01
2050          	wall-l1	2.481823e+01	2.573861e+01	2.530892e+01
2050          	airfoil-l2	7.266410e-02	1.610038e-01	1.260343e-01
2050          	wall-l2	2.575085e+01	2.892895e+01	2.715862e+01
2050          	wall-h2	2.643699e+01	3.054274e+01	2.816075e+01
2050          	airfoil-h2	7.246279e-02	1.600932e-01	1.265116e-01
2050          	wall-h1	2.540615e+01	2.642338e+01	2.594685e+01
2050          	airfoil-h1	9.169203e-02	1.932324e-01	1.710373e-01
2100          	airfoil-l1	1.020246e-01	1.941530e-01	1.725375e-01
2100          	wall-l1	2.481883e+01	2.573909e+01	2.530936e+01
2100          	airfoil-l2	7.264542e-02	1.610036e-01	1.260315e-01
2100          	wall-l2	2.575134e+01	2.892721e+01	2.715821e+01
2100          	wall-h2	2.643850e+01	3.054365e+01	2.816203e+01
2100          	airfoil-h2	7.244382e-02	1.600930e-01	1.265087e-01
2100          	wall-h1	2.540818e+01	2.642489e+01	2.594834e+01
2100          	airfoil-h1	9.169255e-02	1.932324e-01	1.710372e-01
2150          	airfoil-l1	1.020240e-01	1.941527e-01	1.725373e-01
2150          	wall-l1	2.481881e+01	2.573954e+01	2.530988e+01
2150          	airfoil-l2	7.262586e-02	1.610034e-01	1.260287e-01
2150          	wall-l2	2.575178e+01	2.892673e+01	2.715828e+01
2150          	wall-h2	2.644016e+01	3.054508e+01	2.816370e+01
2150          	airfoil-h2	7.242420e-02	1.600928e-01	1.265059e-01
2150          	wall-h1	2.540828e+01	2.642656e+01	2.594997e+01
2150          	airfoil-h1	9.169311e-02	1.932325e-01	1.710371e-01
2200          	airfoil-l1	1.020235e-01	1.941525e-01	1.725371e-01
2200          	wall-l1	2.481967e+01	2.573978e+01	2.531070e+01
2200          	airfoil-l2	7.260602e-02	1.610032e-01	1.260259e-01
2200          	wall-l2	2.575200e+01	2.892577e+01	2.715814e+01
2200          	wall-h2	2.644141e+01	3.054598e+01	2.816514e+01
2200          	airfoil-h2	7.240422e-02	1.600926e-01	1.265031e-01
2200          	wall-h1	2.541050e+01	2.642779e+01	2.595172e+01
2200          	airfoil-h1	9.169354e-02	1.932325e-01	1.710370e-01
2250          	airfoil-l1	1.020230e-01	1.941522e-01	1.725369e-01
2250          	wall-l1	2.482099e+01	2.574021e+01	2.531114e+01
2250          	airfoil-l2	7.258607e-02	1.610030e-01	1.260232e-01
2250          	wall-l2	2.575250e+01	2.892413e+01	2.715793e+01
2250          	wall-h2	2.644260e+01	3.054658e+01	2.816623e+01
2250          	airfoil-h2	7.238424e-02	1.600924e-01	1.265004e-01
2250          	wall-h1	2.541270e+01	2.642893e+01	2.595293e+01
2250          	airfoil-h1	9.169396e-02	1.932324e-01	1.710369e-01
2300          	airfoil-l1	1.020229e-01	1.941521e-01	1.725367e-01
2300          	wall-l1	2.482197e+01	2.574094e+01	2.531182e+01
2300          	airfoil-l2	7.256594e-02	1.610028e-01	1.260205e-01
2300          	wall-l2	2.575320e+01	2.892308e+01	2.715750e+01
2300          	wall-h2	2.644412e+01	3.054642e+01	2.816669e+01
2300          	airfoil-h2	7.236411e-02	1.600922e-01	1.264977e-01
2300          	wall-h1	2.541380e+01	2.643049e+01	2.595401e+01
2300          	airfoil-h1	9.169410e-02	1.932325e-01	1.710368e-01
2350          	airfoil-l1	1.020228e-01	1.941520e-01	1.725366e-01
2350          	wall-l1	2.482269e+01	2.574178e+01	2.531281e+01
2350          	airfoil-l2	7.254569e-02	1.610026e-01	1.260178e-01
2350          	wall-l2	2.575402e+01	2.892379e+01	2.715817e+01
2350          	wall-h2	2.644514e+01	3.054594e+01	2.816740e+01
2350          	airfoil-h2	7.234398e-02	1.600921e-01	1.264950e-01
2350          	wall-h1	2.541408e+01	2.643152e+01	2.595501e+01
2350          	airfoil-h1	9.169411e-02	1.932324e-01	1.710366e-01
2400          	airfoil-l1	1.020230e-01	1.941519e-01	1.725364e-01
2400          	wall-l1	2.482360e+01	2.574293e+01	2.531392e+01
2400          	airfoil-l2	7.252499e-02	1.610024e-01	1.260152e-01
2400          	wall-l2	2.575515e+01	2.892310e+01	2.715857e+01
2400          	wall-h2	2.644592e+01	3.054503e+01	2.816756e+01
2400          	airfoil-h2	7.232347e-02	1.600919e-01	1.264923e-01
2400          	wall-h1	2.541493e+01	2.643232e+01	2.595579e+01
2400          	airfoil-h1	9.169369e-02	1.932323e-01	1.710365e-01
2450          	airfoil-l1	1.020232e-01	1.941519e-01	1.725363e-01
2450          	wall-l1	2.482542e+01	2.574413e+01	2.531535e+01
2450          	airfoil-l2	7.250430e-02	1.610022e-01	1.260126e-01
2450          	wall-l2	2.575636e+01	2.892439e+01	2.715972e+01
2450          	wall-h2	2.644653e+01	3.054397e+01	2.816774e+01
2450          	airfoil-h2	7.230282e-02	1.600917e-01	1.264897e-01
2450          	wall-h1	2.541590e+01	2.643292e+01	2.595648e+01
2450          	airfoil-h1	9.169335e-02	1.932320e-01	1.710363e-01
2500          	airfoil-l1	1.020233e-01	1.941518e-01	1.725362e-01
2500          	wall-l1	2.482690e+01	2.574563e+01	2.531679e+01
2500          	airfoil-l2	7.248361e-02	1.610020e-01	1.260100e-01
2500          	wall-l2	2.575784e+01	2.892513e+01	2.716082e+01
2500          	wall-h2	2.644709e+01	3.054228e+01	2.816749e+01
2500          	airfoil-h2	7.228217e-02	1.600915e-01	1.264872e-01
2500          	wall-h1	2.541662e+01	2.643349e+01	2.595701e+01
2500          	airfoil-h1	9.169303e-02	1.932316e-01	1.710361e-01
2550          	airfoil-l1	1.020236e-01	1.941518e-01	1.725361e-01
2550          	wall-l1	2.482850e+01	2.574687e+01	2.531809e+01
2550          	airfoil-l2	7.246297e-02	1.610018e-01	1.260075e-01
2550          	wall-l2	2.575910e+01	2.892480e+01	2.716148e+01
2550          	wall-h2	2.644730e+01	3.054058e+01	2.816707e+01
2550          	airfoil-h2	7.226146e-02	1.600913e-01	1.264846e-01
2550          	wall-h1	2.541769e+01	2.643369e+01	2.595745e+01
2550          	airfoil-h1	9.169266e-02	1.932314e-01	1.710359e-01
2600          	airfoil-l1	1.020237e-01	1.941517e-01	1.725359e-01
2600          	wall-l1	2.482984e+01	2.574819e+01	2.531959e+01
2600          	airfoil-l2	7.244231e-02	1.610016e-01	1.260049e-01
2600          	wall-l2	2.576042e+01	2.892587e+01	2.716268e+01
2600          	wall-h2	2.644784e+01	3.053939e+01	2.816705e+01
2600          	airfoil-h2	7.224079e-02	1.600911e-01	1.264821e-01
2600          	wall-h1	2.541818e+01	2.643422e+01	2.595815e+01
2600          	airfoil-h1	9.169232e-02	1.932313e-01	1.710358e-01
2650          	airfoil-l1	1.020239e-01	1.941517e-01	1.725358e-01
2650          	wall-l1	2.483100e+01	2.575016e+01	2.532118e+01
2650          	airfoil-l2	7.242147e-02	1.610014e-01	1.260025e-01
2650          	wall-l2	2.576240e+01	2.892765e+01	2.716429e+01
2650          	wall-h2	2.644915e+01	3.053856e+01	2.816760e+01
2650          	airfoil-h2	7.221989e-02	1.600909e-01	1.264796e-01
2650          	wall-h1	2.541842e+01	2.643555e+01	2.595899e+01
2650          	airfoil-h1	9.169219e-02	1.932314e-01	1.710356e-01
2700          	airfoil-l1	1.020239e-01	1.941516e-01	1.725357e-01
2700          	wall-l1	2.483216e+01	2.575075e+01	2.532232e+01
2700          	airfoil-l2	7.240078e-02	1.610012e-01	1.260000e-01
2700          	wall-l2	2.576299e+01	2.892803e+01	2.716501e+01
2700          	wall-h2	2.644886e+01	3.053733e+01	2.816743e+01
2700          	airfoil-h2	7.219904e-02	1.600907e-01	1.264772e-01
2700          	wall-h1	2.541916e+01	2.643526e+01	2.595967e+01
2700          	airfoil-h1	9.169188e-02	1.932310e-01	1.710355e-01
2750          	airfoil-l1	1.020237e-01	1.941515e-01	1.725355e-01
2750          	wall-l1	2.483422e+01	2.575163e+01	2.532322e+01
2750          	airfoil-l2	7.238009e-02	1.610011e-01	1.259976e-01
2750          	wall-l2	2.576385e+01	2.892828e+01	2.716557e+01
2750          	wall-h2	2.644952e+01	3.053665e+01	2.816761e+01
2750          	airfoil-h2	7.217814e-02	1.600905e-01	1.264748e-01
2750          	wall-h1	2.542091e+01	2.643593e+01	2.596029e+01
2750          	airfoil-h1	9.169204e-02	1.932310e-01	1.710353e-01
2800          	airfoil-l1	1.020236e-01	1.941513e-01	1.725354e-01
2800          	wall-l1	2.483460e+01	2.575251e+01	2.532412e+01
2800          	airfoil-l2	7.235966e-02	1.610009e-01	1.259952e-01
2800          	wall-l2	2.576472e+01	2.892701e+01	2.716556e+01
2800          	wall-h2	2.645021e+01	3.053574e+01	2.816770e+01
2800          	airfoil-h2	7.215754e-02	1.600903e-01	1.264724e-01
2800          	wall-h1	2.542155e+01	2.643662e+01	2.596119e+01
2800          	airfoil-h1	9.169210e-02	1.932309e-01	1.710352e-01
2850          	airfoil-l1	1.020233e-01	1.941511e-01	1.725352e-01
2850          	wall-l1	2.483473e+01	2.575348e+01	2.532496e+01
2850          	airfoil-l2	7.233935e-02	1.610007e-01	1.259929e-01
2850          	wall-l2	2.576570e+01	2.892570e+01	2.716559e+01
2850          	wall-h2	2.645143e+01	3.053556e+01	2.816830e+01
2850          	airfoil-h2	7.213709e-02	1.600901e-01	1.264700e-01
2850          	wall-h1	2.542202e+01	2.643783e+01	2.596225e+01
2850          	airfoil-h1	9.169224e-02	1.932309e-01	1.710350e-01
2900          	airfoil-l1	1.020232e-01	1.941511e-01	1.725351e-01
2900          	wall-l1	2.483656e+01	2.575424e+01	2.532586e+01
2900          	airfoil-l2	7.231900e-02	1.610005e-01	1.259905e-01
2900          	wall-l2	2.576645e+01	2.892583e+01	2.716604e+01
2900          	wall-h2	2.645237e+01	3.053609e+01	2.816912e+01
2900          	airfoil-h2	7.211661e-02	1.600900e-01	1.264676e-01
2900          	wall-h1	2.542399e+01	2.643879e+01	2.596336e+01