/*--------------------------------*- C++ -*----------------------------------*\
  =========                 |
  \\      /  F ield         | OpenFOAM: The Open Source CFD Toolbox
   \\    /   O peration     | Website:  https://openfoam.org
    \\  /    A nd           | Version:  7
     \\/     M anipulation  |
\*---------------------------------------------------------------------------*/
FoamFile
{
    version     2.0;
    format      ascii;
    class       volScalarField;
    location    "2000";
    object      nut;
}
// * * * * * * * * * * * * * * * * * * * * * * * * * * * * * * * * * * * * * //

dimensions      [0 2 -1 0 0 0 0];

internalField   nonuniform List<scalar> 
23052
(
5.20709e-06
5.20677e-06
5.20787e-06
5.20674e-06
5.20793e-06
5.20893e-06
5.2068e-06
5.20785e-06
5.20865e-06
5.20893e-06
5.20684e-06
5.20779e-06
5.20845e-06
5.20868e-06
5.20837e-06
5.20793e-06
5.20684e-06
5.20769e-06
5.20824e-06
5.20842e-06
5.20814e-06
5.20781e-06
5.20809e-06
5.20913e-06
5.20681e-06
5.20757e-06
5.20804e-06
5.20818e-06
5.20795e-06
5.20775e-06
5.20817e-06
5.2092e-06
5.21063e-06
5.20677e-06
5.20744e-06
5.20785e-06
5.20797e-06
5.20779e-06
5.20773e-06
5.20828e-06
5.20935e-06
5.21069e-06
5.21215e-06
5.20673e-06
5.20732e-06
5.20768e-06
5.20778e-06
5.20766e-06
5.20774e-06
5.2084e-06
5.2095e-06
5.21082e-06
5.21219e-06
5.21358e-06
5.20668e-06
5.20721e-06
5.20752e-06
5.20761e-06
5.20756e-06
5.2078e-06
5.20855e-06
5.20966e-06
5.21095e-06
5.21228e-06
5.2136e-06
5.21492e-06
5.20665e-06
5.20711e-06
5.20739e-06
5.20748e-06
5.20751e-06
5.2079e-06
5.20872e-06
5.20983e-06
5.21108e-06
5.21236e-06
5.21365e-06
5.21492e-06
5.21618e-06
5.20662e-06
5.20703e-06
5.20728e-06
5.20738e-06
5.20751e-06
5.20802e-06
5.20889e-06
5.21e-06
5.21121e-06
5.21245e-06
5.2137e-06
5.21495e-06
5.21617e-06
5.21737e-06
5.20661e-06
5.20697e-06
5.20719e-06
5.20732e-06
5.20756e-06
5.20817e-06
5.20907e-06
5.21016e-06
5.21134e-06
5.21255e-06
5.21376e-06
5.21497e-06
5.21617e-06
5.21735e-06
5.21849e-06
5.20662e-06
5.20693e-06
5.20713e-06
5.2073e-06
5.20766e-06
5.20833e-06
5.20926e-06
5.21032e-06
5.21147e-06
5.21264e-06
5.21382e-06
5.21501e-06
5.21618e-06
5.21734e-06
5.21847e-06
5.21955e-06
5.20665e-06
5.20692e-06
5.20711e-06
5.20733e-06
5.20779e-06
5.20851e-06
5.20944e-06
5.21048e-06
5.21159e-06
5.21273e-06
5.21389e-06
5.21505e-06
5.21619e-06
5.21733e-06
5.21844e-06
5.21952e-06
5.22054e-06
5.2067e-06
5.20692e-06
5.20712e-06
5.20741e-06
5.20794e-06
5.2087e-06
5.20962e-06
5.21064e-06
5.21172e-06
5.21283e-06
5.21396e-06
5.21509e-06
5.21621e-06
5.21732e-06
5.21841e-06
5.21947e-06
5.2205e-06
5.22147e-06
5.20674e-06
5.20694e-06
5.20717e-06
5.20754e-06
5.20812e-06
5.20888e-06
5.20979e-06
5.21079e-06
5.21184e-06
5.21293e-06
5.21403e-06
5.21514e-06
5.21624e-06
5.21733e-06
5.21839e-06
5.21944e-06
5.22045e-06
5.22143e-06
5.22235e-06
5.20677e-06
5.20698e-06
5.20726e-06
5.20769e-06
5.20829e-06
5.20906e-06
5.20996e-06
5.21093e-06
5.21196e-06
5.21302e-06
5.2141e-06
5.21519e-06
5.21627e-06
5.21733e-06
5.21838e-06
5.21941e-06
5.2204e-06
5.22137e-06
5.22231e-06
5.22317e-06
5.2068e-06
5.20705e-06
5.20738e-06
5.20784e-06
5.20846e-06
5.20923e-06
5.21011e-06
5.21107e-06
5.21208e-06
5.21312e-06
5.21418e-06
5.21524e-06
5.2163e-06
5.21735e-06
5.21838e-06
5.21938e-06
5.22036e-06
5.22131e-06
5.22224e-06
5.22313e-06
5.22395e-06
5.20683e-06
5.20714e-06
5.2075e-06
5.20799e-06
5.20863e-06
5.20939e-06
5.21026e-06
5.21121e-06
5.2122e-06
5.21322e-06
5.21426e-06
5.2153e-06
5.21634e-06
5.21737e-06
5.21838e-06
5.21936e-06
5.22033e-06
5.22127e-06
5.22217e-06
5.22305e-06
5.2239e-06
5.22468e-06
5.20685e-06
5.20721e-06
5.20762e-06
5.20814e-06
5.20878e-06
5.20955e-06
5.21041e-06
5.21134e-06
5.21231e-06
5.21331e-06
5.21433e-06
5.21536e-06
5.21638e-06
5.21739e-06
5.21838e-06
5.21935e-06
5.2203e-06
5.22122e-06
5.22212e-06
5.22299e-06
5.22382e-06
5.22463e-06
5.22537e-06
5.20688e-06
5.20729e-06
5.20773e-06
5.20827e-06
5.20893e-06
5.2097e-06
5.21055e-06
5.21147e-06
5.21242e-06
5.21341e-06
5.21441e-06
5.21542e-06
5.21642e-06
5.21741e-06
5.21839e-06
5.21934e-06
5.22028e-06
5.22119e-06
5.22207e-06
5.22292e-06
5.22375e-06
5.22455e-06
5.22532e-06
5.22601e-06
5.2069e-06
5.20736e-06
5.20784e-06
5.2084e-06
5.20907e-06
5.20984e-06
5.21068e-06
5.21159e-06
5.21254e-06
5.21351e-06
5.21449e-06
5.21548e-06
5.21647e-06
5.21744e-06
5.2184e-06
5.21934e-06
5.22026e-06
5.22115e-06
5.22203e-06
5.22287e-06
5.22369e-06
5.22447e-06
5.22523e-06
5.22596e-06
5.22662e-06
5.20692e-06
5.20742e-06
5.20794e-06
5.20852e-06
5.2092e-06
5.20997e-06
5.21082e-06
5.21171e-06
5.21265e-06
5.2136e-06
5.21457e-06
5.21555e-06
5.21651e-06
5.21747e-06
5.21842e-06
5.21934e-06
5.22025e-06
5.22113e-06
5.22199e-06
5.22282e-06
5.22363e-06
5.2244e-06
5.22515e-06
5.22587e-06
5.22657e-06
5.22719e-06
5.20694e-06
5.20748e-06
5.20803e-06
5.20864e-06
5.20933e-06
5.2101e-06
5.21094e-06
5.21183e-06
5.21275e-06
5.2137e-06
5.21465e-06
5.21561e-06
5.21656e-06
5.21751e-06
5.21844e-06
5.21935e-06
5.22024e-06
5.22111e-06
5.22195e-06
5.22278e-06
5.22357e-06
5.22434e-06
5.22508e-06
5.22579e-06
5.22648e-06
5.22713e-06
5.22772e-06
5.20696e-06
5.20754e-06
5.20812e-06
5.20875e-06
5.20945e-06
5.21023e-06
5.21106e-06
5.21194e-06
5.21286e-06
5.21379e-06
5.21473e-06
5.21568e-06
5.21661e-06
5.21754e-06
5.21846e-06
5.21936e-06
5.22023e-06
5.22109e-06
5.22193e-06
5.22274e-06
5.22352e-06
5.22428e-06
5.22501e-06
5.22572e-06
5.22639e-06
5.22705e-06
5.22767e-06
5.22823e-06
5.20697e-06
5.20759e-06
5.2082e-06
5.20885e-06
5.20956e-06
5.21034e-06
5.21118e-06
5.21206e-06
5.21296e-06
5.21388e-06
5.21481e-06
5.21574e-06
5.21667e-06
5.21758e-06
5.21848e-06
5.21937e-06
5.22023e-06
5.22108e-06
5.2219e-06
5.2227e-06
5.22348e-06
5.22423e-06
5.22495e-06
5.22565e-06
5.22632e-06
5.22696e-06
5.22758e-06
5.22817e-06
5.2287e-06
5.20699e-06
5.20764e-06
5.20828e-06
5.20895e-06
5.20967e-06
5.21046e-06
5.21129e-06
5.21216e-06
5.21306e-06
5.21397e-06
5.21489e-06
5.21581e-06
5.21672e-06
5.21762e-06
5.21851e-06
5.21938e-06
5.22024e-06
5.22107e-06
5.22188e-06
5.22267e-06
5.22344e-06
5.22418e-06
5.22489e-06
5.22558e-06
5.22624e-06
5.22688e-06
5.2275e-06
5.22809e-06
5.22865e-06
5.22915e-06
5.207e-06
5.20769e-06
5.20835e-06
5.20904e-06
5.20978e-06
5.21057e-06
5.2114e-06
5.21227e-06
5.21316e-06
5.21406e-06
5.21497e-06
5.21587e-06
5.21677e-06
5.21766e-06
5.21854e-06
5.2194e-06
5.22024e-06
5.22107e-06
5.22187e-06
5.22265e-06
5.22341e-06
5.22414e-06
5.22484e-06
5.22552e-06
5.22618e-06
5.22681e-06
5.22742e-06
5.228e-06
5.22856e-06
5.2291e-06
5.22957e-06
5.20701e-06
5.20773e-06
5.20842e-06
5.20913e-06
5.20988e-06
5.21067e-06
5.21151e-06
5.21237e-06
5.21325e-06
5.21415e-06
5.21504e-06
5.21594e-06
5.21683e-06
5.2177e-06
5.21857e-06
5.21942e-06
5.22025e-06
5.22106e-06
5.22186e-06
5.22263e-06
5.22337e-06
5.2241e-06
5.22479e-06
5.22547e-06
5.22612e-06
5.22674e-06
5.22734e-06
5.22792e-06
5.22848e-06
5.22901e-06
5.22952e-06
5.22997e-06
5.20703e-06
5.20777e-06
5.20848e-06
5.20921e-06
5.20997e-06
5.21077e-06
5.21161e-06
5.21247e-06
5.21335e-06
5.21423e-06
5.21512e-06
5.216e-06
5.21688e-06
5.21775e-06
5.2186e-06
5.21944e-06
5.22026e-06
5.22107e-06
5.22185e-06
5.22261e-06
5.22335e-06
5.22406e-06
5.22475e-06
5.22542e-06
5.22606e-06
5.22668e-06
5.22727e-06
5.22785e-06
5.2284e-06
5.22892e-06
5.22943e-06
5.22991e-06
5.23034e-06
5.20704e-06
5.20781e-06
5.20854e-06
5.20929e-06
5.21006e-06
5.21087e-06
5.21171e-06
5.21256e-06
5.21344e-06
5.21431e-06
5.21519e-06
5.21607e-06
5.21694e-06
5.21779e-06
5.21864e-06
5.21947e-06
5.22028e-06
5.22107e-06
5.22185e-06
5.2226e-06
5.22333e-06
5.22403e-06
5.22471e-06
5.22537e-06
5.22601e-06
5.22662e-06
5.22721e-06
5.22778e-06
5.22832e-06
5.22885e-06
5.22935e-06
5.22983e-06
5.23029e-06
5.23069e-06
5.20705e-06
5.20785e-06
5.2086e-06
5.20936e-06
5.21015e-06
5.21096e-06
5.2118e-06
5.21266e-06
5.21352e-06
5.2144e-06
5.21527e-06
5.21613e-06
5.21699e-06
5.21784e-06
5.21867e-06
5.21949e-06
5.2203e-06
5.22108e-06
5.22184e-06
5.22259e-06
5.22331e-06
5.224e-06
5.22468e-06
5.22533e-06
5.22596e-06
5.22656e-06
5.22715e-06
5.22771e-06
5.22825e-06
5.22877e-06
5.22927e-06
5.22974e-06
5.2302e-06
5.23064e-06
5.23102e-06
5.20706e-06
5.20788e-06
5.20866e-06
5.20944e-06
5.21023e-06
5.21105e-06
5.21189e-06
5.21275e-06
5.21361e-06
5.21448e-06
5.21534e-06
5.2162e-06
5.21705e-06
5.21789e-06
5.21871e-06
5.21952e-06
5.22032e-06
5.22109e-06
5.22184e-06
5.22258e-06
5.22329e-06
5.22398e-06
5.22465e-06
5.22529e-06
5.22591e-06
5.22651e-06
5.22709e-06
5.22765e-06
5.22819e-06
5.2287e-06
5.22919e-06
5.22967e-06
5.23012e-06
5.23056e-06
5.23097e-06
5.23134e-06
5.20706e-06
5.20791e-06
5.20871e-06
5.2095e-06
5.21031e-06
5.21114e-06
5.21198e-06
5.21283e-06
5.21369e-06
5.21455e-06
5.21541e-06
5.21626e-06
5.2171e-06
5.21793e-06
5.21875e-06
5.21955e-06
5.22034e-06
5.2211e-06
5.22185e-06
5.22257e-06
5.22328e-06
5.22396e-06
5.22462e-06
5.22526e-06
5.22587e-06
5.22647e-06
5.22704e-06
5.22759e-06
5.22812e-06
5.22863e-06
5.22912e-06
5.22959e-06
5.23004e-06
5.23048e-06
5.23089e-06
5.23128e-06
5.23163e-06
5.20707e-06
5.20795e-06
5.20876e-06
5.20957e-06
5.21039e-06
5.21122e-06
5.21206e-06
5.21292e-06
5.21377e-06
5.21463e-06
5.21548e-06
5.21633e-06
5.21716e-06
5.21798e-06
5.21879e-06
5.21959e-06
5.22036e-06
5.22112e-06
5.22185e-06
5.22257e-06
5.22327e-06
5.22394e-06
5.22459e-06
5.22523e-06
5.22584e-06
5.22642e-06
5.22699e-06
5.22754e-06
5.22807e-06
5.22857e-06
5.22906e-06
5.22952e-06
5.22997e-06
5.2304e-06
5.23081e-06
5.23121e-06
5.23158e-06
5.23191e-06
5.20708e-06
5.20797e-06
5.20881e-06
5.20963e-06
5.21046e-06
5.2113e-06
5.21215e-06
5.213e-06
5.21385e-06
5.2147e-06
5.21555e-06
5.21639e-06
5.21722e-06
5.21803e-06
5.21883e-06
5.21962e-06
5.22039e-06
5.22113e-06
5.22186e-06
5.22257e-06
5.22326e-06
5.22393e-06
5.22457e-06
5.2252e-06
5.2258e-06
5.22639e-06
5.22695e-06
5.22749e-06
5.22801e-06
5.22851e-06
5.229e-06
5.22946e-06
5.2299e-06
5.23033e-06
5.23074e-06
5.23113e-06
5.2315e-06
5.23186e-06
5.23217e-06
5.20709e-06
5.208e-06
5.20885e-06
5.20969e-06
5.21053e-06
5.21137e-06
5.21222e-06
5.21308e-06
5.21393e-06
5.21478e-06
5.21562e-06
5.21645e-06
5.21727e-06
5.21808e-06
5.21888e-06
5.21965e-06
5.22041e-06
5.22115e-06
5.22187e-06
5.22257e-06
5.22326e-06
5.22392e-06
5.22456e-06
5.22517e-06
5.22577e-06
5.22635e-06
5.22691e-06
5.22744e-06
5.22796e-06
5.22846e-06
5.22894e-06
5.2294e-06
5.22984e-06
5.23026e-06
5.23067e-06
5.23106e-06
5.23143e-06
5.23178e-06
5.23212e-06
5.23241e-06
5.2071e-06
5.20803e-06
5.2089e-06
5.20975e-06
5.2106e-06
5.21145e-06
5.2123e-06
5.21315e-06
5.214e-06
5.21485e-06
5.21569e-06
5.21651e-06
5.21733e-06
5.21813e-06
5.21892e-06
5.21969e-06
5.22044e-06
5.22117e-06
5.22189e-06
5.22258e-06
5.22325e-06
5.22391e-06
5.22454e-06
5.22515e-06
5.22575e-06
5.22632e-06
5.22687e-06
5.2274e-06
5.22791e-06
5.22841e-06
5.22888e-06
5.22934e-06
5.22978e-06
5.2302e-06
5.2306e-06
5.23099e-06
5.23136e-06
5.23171e-06
5.23205e-06
5.23237e-06
5.23264e-06
5.2071e-06
5.20805e-06
5.20894e-06
5.2098e-06
5.21066e-06
5.21152e-06
5.21237e-06
5.21323e-06
5.21407e-06
5.21492e-06
5.21575e-06
5.21658e-06
5.21739e-06
5.21818e-06
5.21896e-06
5.21972e-06
5.22047e-06
5.22119e-06
5.2219e-06
5.22259e-06
5.22325e-06
5.2239e-06
5.22453e-06
5.22514e-06
5.22572e-06
5.22629e-06
5.22684e-06
5.22736e-06
5.22787e-06
5.22836e-06
5.22883e-06
5.22928e-06
5.22972e-06
5.23014e-06
5.23054e-06
5.23092e-06
5.23129e-06
5.23164e-06
5.23197e-06
5.23229e-06
5.2326e-06
5.23286e-06
5.20711e-06
5.20808e-06
5.20898e-06
5.20985e-06
5.21072e-06
5.21158e-06
5.21244e-06
5.2133e-06
5.21415e-06
5.21499e-06
5.21582e-06
5.21664e-06
5.21744e-06
5.21823e-06
5.219e-06
5.21976e-06
5.2205e-06
5.22122e-06
5.22192e-06
5.2226e-06
5.22326e-06
5.2239e-06
5.22452e-06
5.22512e-06
5.2257e-06
5.22626e-06
5.2268e-06
5.22733e-06
5.22783e-06
5.22832e-06
5.22878e-06
5.22923e-06
5.22966e-06
5.23008e-06
5.23048e-06
5.23086e-06
5.23122e-06
5.23157e-06
5.2319e-06
5.23222e-06
5.23253e-06
5.23282e-06
5.23307e-06
5.20712e-06
5.2081e-06
5.20901e-06
5.2099e-06
5.21078e-06
5.21165e-06
5.21251e-06
5.21337e-06
5.21422e-06
5.21506e-06
5.21588e-06
5.2167e-06
5.2175e-06
5.21828e-06
5.21905e-06
5.2198e-06
5.22053e-06
5.22124e-06
5.22193e-06
5.22261e-06
5.22326e-06
5.2239e-06
5.22451e-06
5.22511e-06
5.22568e-06
5.22624e-06
5.22678e-06
5.22729e-06
5.22779e-06
5.22827e-06
5.22874e-06
5.22918e-06
5.22961e-06
5.23003e-06
5.23042e-06
5.2308e-06
5.23116e-06
5.23151e-06
5.23184e-06
5.23216e-06
5.23246e-06
5.23275e-06
5.23302e-06
5.23326e-06
5.20712e-06
5.20812e-06
5.20905e-06
5.20995e-06
5.21083e-06
5.21171e-06
5.21258e-06
5.21344e-06
5.21428e-06
5.21512e-06
5.21595e-06
5.21676e-06
5.21755e-06
5.21833e-06
5.21909e-06
5.21983e-06
5.22056e-06
5.22126e-06
5.22195e-06
5.22262e-06
5.22327e-06
5.2239e-06
5.22451e-06
5.2251e-06
5.22567e-06
5.22622e-06
5.22675e-06
5.22726e-06
5.22776e-06
5.22824e-06
5.2287e-06
5.22914e-06
5.22957e-06
5.22997e-06
5.23037e-06
5.23074e-06
5.2311e-06
5.23145e-06
5.23178e-06
5.23209e-06
5.23239e-06
5.23268e-06
5.23296e-06
5.23322e-06
5.23344e-06
5.20712e-06
5.20814e-06
5.20908e-06
5.20999e-06
5.21089e-06
5.21177e-06
5.21264e-06
5.2135e-06
5.21435e-06
5.21519e-06
5.21601e-06
5.21682e-06
5.21761e-06
5.21838e-06
5.21914e-06
5.21987e-06
5.22059e-06
5.22129e-06
5.22197e-06
5.22263e-06
5.22328e-06
5.2239e-06
5.2245e-06
5.22509e-06
5.22566e-06
5.2262e-06
5.22673e-06
5.22724e-06
5.22773e-06
5.2282e-06
5.22866e-06
5.2291e-06
5.22952e-06
5.22993e-06
5.23032e-06
5.23069e-06
5.23105e-06
5.23139e-06
5.23172e-06
5.23203e-06
5.23233e-06
5.23262e-06
5.23289e-06
5.23315e-06
5.2334e-06
5.23362e-06
5.20713e-06
5.20816e-06
5.20911e-06
5.21004e-06
5.21094e-06
5.21183e-06
5.21271e-06
5.21357e-06
5.21442e-06
5.21525e-06
5.21607e-06
5.21687e-06
5.21766e-06
5.21843e-06
5.21918e-06
5.21991e-06
5.22062e-06
5.22132e-06
5.22199e-06
5.22265e-06
5.22329e-06
5.22391e-06
5.2245e-06
5.22508e-06
5.22564e-06
5.22619e-06
5.22671e-06
5.22721e-06
5.2277e-06
5.22817e-06
5.22862e-06
5.22906e-06
5.22948e-06
5.22988e-06
5.23027e-06
5.23064e-06
5.23099e-06
5.23133e-06
5.23166e-06
5.23197e-06
5.23227e-06
5.23255e-06
5.23283e-06
5.23309e-06
5.23334e-06
5.23357e-06
5.23378e-06
5.20714e-06
5.20818e-06
5.20915e-06
5.21008e-06
5.21099e-06
5.21189e-06
5.21277e-06
5.21363e-06
5.21448e-06
5.21531e-06
5.21613e-06
5.21693e-06
5.21771e-06
5.21848e-06
5.21922e-06
5.21995e-06
5.22066e-06
5.22135e-06
5.22202e-06
5.22267e-06
5.2233e-06
5.22391e-06
5.22451e-06
5.22508e-06
5.22564e-06
5.22617e-06
5.22669e-06
5.22719e-06
5.22767e-06
5.22814e-06
5.22859e-06
5.22902e-06
5.22944e-06
5.22984e-06
5.23022e-06
5.23059e-06
5.23094e-06
5.23128e-06
5.2316e-06
5.23191e-06
5.23221e-06
5.2325e-06
5.23277e-06
5.23303e-06
5.23328e-06
5.23351e-06
5.23374e-06
5.23393e-06
5.20714e-06
5.20819e-06
5.20918e-06
5.21012e-06
5.21104e-06
5.21194e-06
5.21283e-06
5.21369e-06
5.21454e-06
5.21538e-06
5.21619e-06
5.21699e-06
5.21777e-06
5.21853e-06
5.21927e-06
5.21999e-06
5.22069e-06
5.22138e-06
5.22204e-06
5.22269e-06
5.22331e-06
5.22392e-06
5.22451e-06
5.22508e-06
5.22563e-06
5.22616e-06
5.22668e-06
5.22717e-06
5.22765e-06
5.22811e-06
5.22856e-06
5.22899e-06
5.2294e-06
5.2298e-06
5.23018e-06
5.23055e-06
5.2309e-06
5.23123e-06
5.23155e-06
5.23186e-06
5.23216e-06
5.23244e-06
5.23271e-06
5.23297e-06
5.23322e-06
5.23345e-06
5.23368e-06
5.2339e-06
5.23408e-06
5.20714e-06
5.20821e-06
5.20921e-06
5.21016e-06
5.21109e-06
5.212e-06
5.21289e-06
5.21375e-06
5.2146e-06
5.21543e-06
5.21625e-06
5.21704e-06
5.21782e-06
5.21857e-06
5.21931e-06
5.22003e-06
5.22073e-06
5.22141e-06
5.22207e-06
5.22271e-06
5.22333e-06
5.22393e-06
5.22451e-06
5.22508e-06
5.22563e-06
5.22615e-06
5.22666e-06
5.22716e-06
5.22763e-06
5.22809e-06
5.22853e-06
5.22896e-06
5.22937e-06
5.22976e-06
5.23014e-06
5.2305e-06
5.23085e-06
5.23118e-06
5.2315e-06
5.23181e-06
5.2321e-06
5.23239e-06
5.23266e-06
5.23291e-06
5.23316e-06
5.2334e-06
5.23362e-06
5.23384e-06
5.23404e-06
5.23422e-06
5.20715e-06
5.20823e-06
5.20923e-06
5.2102e-06
5.21114e-06
5.21205e-06
5.21294e-06
5.21381e-06
5.21466e-06
5.21549e-06
5.2163e-06
5.2171e-06
5.21787e-06
5.21862e-06
5.21936e-06
5.22007e-06
5.22076e-06
5.22144e-06
5.22209e-06
5.22273e-06
5.22335e-06
5.22394e-06
5.22452e-06
5.22508e-06
5.22562e-06
5.22615e-06
5.22665e-06
5.22714e-06
5.22761e-06
5.22807e-06
5.22851e-06
5.22893e-06
5.22934e-06
5.22973e-06
5.2301e-06
5.23046e-06
5.23081e-06
5.23114e-06
5.23146e-06
5.23176e-06
5.23205e-06
5.23233e-06
5.2326e-06
5.23286e-06
5.23311e-06
5.23334e-06
5.23357e-06
5.23378e-06
5.23399e-06
5.23418e-06
5.23435e-06
5.20715e-06
5.20824e-06
5.20926e-06
5.21024e-06
5.21118e-06
5.2121e-06
5.213e-06
5.21387e-06
5.21472e-06
5.21555e-06
5.21636e-06
5.21715e-06
5.21792e-06
5.21867e-06
5.2194e-06
5.22011e-06
5.2208e-06
5.22147e-06
5.22212e-06
5.22275e-06
5.22336e-06
5.22396e-06
5.22453e-06
5.22509e-06
5.22562e-06
5.22614e-06
5.22664e-06
5.22713e-06
5.2276e-06
5.22805e-06
5.22848e-06
5.2289e-06
5.22931e-06
5.22969e-06
5.23007e-06
5.23042e-06
5.23077e-06
5.2311e-06
5.23141e-06
5.23172e-06
5.23201e-06
5.23229e-06
5.23255e-06
5.23281e-06
5.23306e-06
5.23329e-06
5.23351e-06
5.23373e-06
5.23393e-06
5.23413e-06
5.23431e-06
5.23447e-06
5.20716e-06
5.20826e-06
5.20929e-06
5.21027e-06
5.21122e-06
5.21215e-06
5.21305e-06
5.21392e-06
5.21477e-06
5.2156e-06
5.21641e-06
5.2172e-06
5.21797e-06
5.21872e-06
5.21945e-06
5.22015e-06
5.22084e-06
5.2215e-06
5.22215e-06
5.22277e-06
5.22338e-06
5.22397e-06
5.22454e-06
5.22509e-06
5.22562e-06
5.22614e-06
5.22664e-06
5.22712e-06
5.22758e-06
5.22803e-06
5.22846e-06
5.22888e-06
5.22928e-06
5.22966e-06
5.23003e-06
5.23039e-06
5.23073e-06
5.23106e-06
5.23137e-06
5.23167e-06
5.23196e-06
5.23224e-06
5.23251e-06
5.23276e-06
5.23301e-06
5.23324e-06
5.23346e-06
5.23368e-06
5.23388e-06
5.23407e-06
5.23426e-06
5.23443e-06
5.23459e-06
5.20716e-06
5.20827e-06
5.20931e-06
5.21031e-06
5.21127e-06
5.2122e-06
5.2131e-06
5.21398e-06
5.21483e-06
5.21566e-06
5.21647e-06
5.21726e-06
5.21802e-06
5.21877e-06
5.21949e-06
5.22019e-06
5.22087e-06
5.22153e-06
5.22218e-06
5.2228e-06
5.2234e-06
5.22399e-06
5.22455e-06
5.2251e-06
5.22563e-06
5.22614e-06
5.22663e-06
5.22711e-06
5.22757e-06
5.22802e-06
5.22844e-06
5.22886e-06
5.22925e-06
5.22964e-06
5.23e-06
5.23036e-06
5.23069e-06
5.23102e-06
5.23133e-06
5.23163e-06
5.23192e-06
5.23219e-06
5.23246e-06
5.23271e-06
5.23296e-06
5.23319e-06
5.23341e-06
5.23363e-06
5.23383e-06
5.23402e-06
5.23421e-06
5.23438e-06
5.23455e-06
5.23469e-06
5.20716e-06
5.20829e-06
5.20934e-06
5.21034e-06
5.21131e-06
5.21224e-06
5.21315e-06
5.21403e-06
5.21488e-06
5.21571e-06
5.21652e-06
5.21731e-06
5.21807e-06
5.21881e-06
5.21953e-06
5.22023e-06
5.22091e-06
5.22157e-06
5.22221e-06
5.22282e-06
5.22342e-06
5.224e-06
5.22456e-06
5.22511e-06
5.22563e-06
5.22614e-06
5.22663e-06
5.22711e-06
5.22756e-06
5.228e-06
5.22843e-06
5.22884e-06
5.22923e-06
5.22961e-06
5.22997e-06
5.23032e-06
5.23066e-06
5.23098e-06
5.23129e-06
5.23159e-06
5.23188e-06
5.23215e-06
5.23242e-06
5.23267e-06
5.23291e-06
5.23315e-06
5.23337e-06
5.23358e-06
5.23378e-06
5.23397e-06
5.23416e-06
5.23433e-06
5.2345e-06
5.23466e-06
5.2348e-06
5.20717e-06
5.2083e-06
5.20936e-06
5.21037e-06
5.21134e-06
5.21229e-06
5.2132e-06
5.21408e-06
5.21494e-06
5.21577e-06
5.21658e-06
5.21736e-06
5.21812e-06
5.21886e-06
5.21958e-06
5.22027e-06
5.22095e-06
5.2216e-06
5.22224e-06
5.22285e-06
5.22344e-06
5.22402e-06
5.22458e-06
5.22512e-06
5.22564e-06
5.22614e-06
5.22663e-06
5.2271e-06
5.22756e-06
5.22799e-06
5.22841e-06
5.22882e-06
5.22921e-06
5.22959e-06
5.22995e-06
5.2303e-06
5.23063e-06
5.23095e-06
5.23126e-06
5.23156e-06
5.23184e-06
5.23211e-06
5.23238e-06
5.23263e-06
5.23287e-06
5.2331e-06
5.23332e-06
5.23353e-06
5.23374e-06
5.23393e-06
5.23411e-06
5.23429e-06
5.23445e-06
5.23461e-06
5.23476e-06
5.23489e-06
5.20717e-06
5.20831e-06
5.20938e-06
5.2104e-06
5.21138e-06
5.21233e-06
5.21324e-06
5.21413e-06
5.21499e-06
5.21582e-06
5.21663e-06
5.21741e-06
5.21817e-06
5.21891e-06
5.21962e-06
5.22032e-06
5.22099e-06
5.22164e-06
5.22227e-06
5.22288e-06
5.22347e-06
5.22404e-06
5.22459e-06
5.22513e-06
5.22565e-06
5.22615e-06
5.22663e-06
5.2271e-06
5.22755e-06
5.22798e-06
5.2284e-06
5.2288e-06
5.22919e-06
5.22956e-06
5.22992e-06
5.23027e-06
5.2306e-06
5.23092e-06
5.23123e-06
5.23152e-06
5.2318e-06
5.23208e-06
5.23234e-06
5.23259e-06
5.23283e-06
5.23306e-06
5.23328e-06
5.23349e-06
5.23369e-06
5.23388e-06
5.23406e-06
5.23424e-06
5.2344e-06
5.23456e-06
5.23472e-06
5.23486e-06
5.23498e-06
5.20717e-06
5.20833e-06
5.2094e-06
5.21043e-06
5.21142e-06
5.21237e-06
5.21329e-06
5.21418e-06
5.21504e-06
5.21587e-06
5.21668e-06
5.21746e-06
5.21822e-06
5.21895e-06
5.21967e-06
5.22036e-06
5.22102e-06
5.22167e-06
5.2223e-06
5.2229e-06
5.22349e-06
5.22406e-06
5.22461e-06
5.22514e-06
5.22566e-06
5.22615e-06
5.22663e-06
5.2271e-06
5.22754e-06
5.22798e-06
5.22839e-06
5.22879e-06
5.22917e-06
5.22954e-06
5.2299e-06
5.23024e-06
5.23057e-06
5.23089e-06
5.2312e-06
5.23149e-06
5.23177e-06
5.23204e-06
5.2323e-06
5.23255e-06
5.23279e-06
5.23302e-06
5.23324e-06
5.23345e-06
5.23365e-06
5.23384e-06
5.23402e-06
5.23419e-06
5.23436e-06
5.23452e-06
5.23467e-06
5.23481e-06
5.23495e-06
5.23507e-06
5.20718e-06
5.20834e-06
5.20943e-06
5.21046e-06
5.21146e-06
5.21241e-06
5.21334e-06
5.21423e-06
5.21509e-06
5.21592e-06
5.21673e-06
5.21751e-06
5.21827e-06
5.219e-06
5.21971e-06
5.2204e-06
5.22106e-06
5.2217e-06
5.22233e-06
5.22293e-06
5.22352e-06
5.22408e-06
5.22463e-06
5.22516e-06
5.22567e-06
5.22616e-06
5.22664e-06
5.2271e-06
5.22754e-06
5.22797e-06
5.22838e-06
5.22878e-06
5.22916e-06
5.22953e-06
5.22988e-06
5.23022e-06
5.23055e-06
5.23086e-06
5.23117e-06
5.23146e-06
5.23174e-06
5.23201e-06
5.23227e-06
5.23251e-06
5.23275e-06
5.23298e-06
5.2332e-06
5.23341e-06
5.23361e-06
5.2338e-06
5.23398e-06
5.23415e-06
5.23432e-06
5.23447e-06
5.23462e-06
5.23477e-06
5.23491e-06
5.23504e-06
5.23515e-06
5.20718e-06
5.20835e-06
5.20945e-06
5.21049e-06
5.21149e-06
5.21245e-06
5.21338e-06
5.21427e-06
5.21514e-06
5.21597e-06
5.21678e-06
5.21756e-06
5.21831e-06
5.21904e-06
5.21975e-06
5.22044e-06
5.2211e-06
5.22174e-06
5.22236e-06
5.22296e-06
5.22354e-06
5.2241e-06
5.22465e-06
5.22517e-06
5.22568e-06
5.22617e-06
5.22664e-06
5.2271e-06
5.22754e-06
5.22796e-06
5.22837e-06
5.22877e-06
5.22914e-06
5.22951e-06
5.22986e-06
5.2302e-06
5.23053e-06
5.23084e-06
5.23114e-06
5.23143e-06
5.23171e-06
5.23198e-06
5.23223e-06
5.23248e-06
5.23272e-06
5.23295e-06
5.23316e-06
5.23337e-06
5.23357e-06
5.23376e-06
5.23394e-06
5.23411e-06
5.23427e-06
5.23443e-06
5.23458e-06
5.23472e-06
5.23486e-06
5.235e-06
5.23512e-06
5.23522e-06
5.20718e-06
5.20836e-06
5.20947e-06
5.21052e-06
5.21153e-06
5.21249e-06
5.21342e-06
5.21432e-06
5.21518e-06
5.21602e-06
5.21683e-06
5.21761e-06
5.21836e-06
5.21909e-06
5.2198e-06
5.22048e-06
5.22114e-06
5.22178e-06
5.22239e-06
5.22299e-06
5.22357e-06
5.22413e-06
5.22467e-06
5.22519e-06
5.22569e-06
5.22618e-06
5.22665e-06
5.2271e-06
5.22754e-06
5.22796e-06
5.22837e-06
5.22876e-06
5.22913e-06
5.22949e-06
5.22984e-06
5.23018e-06
5.2305e-06
5.23082e-06
5.23111e-06
5.2314e-06
5.23168e-06
5.23195e-06
5.2322e-06
5.23245e-06
5.23268e-06
5.23291e-06
5.23313e-06
5.23333e-06
5.23353e-06
5.23372e-06
5.2339e-06
5.23407e-06
5.23423e-06
5.23439e-06
5.23454e-06
5.23468e-06
5.23482e-06
5.23495e-06
5.23508e-06
5.23519e-06
5.2353e-06
5.20719e-06
5.20837e-06
5.20949e-06
5.21054e-06
5.21156e-06
5.21253e-06
5.21346e-06
5.21436e-06
5.21523e-06
5.21607e-06
5.21687e-06
5.21765e-06
5.21841e-06
5.21913e-06
5.21984e-06
5.22052e-06
5.22118e-06
5.22181e-06
5.22243e-06
5.22302e-06
5.2236e-06
5.22415e-06
5.22469e-06
5.22521e-06
5.22571e-06
5.22619e-06
5.22666e-06
5.22711e-06
5.22754e-06
5.22796e-06
5.22836e-06
5.22875e-06
5.22912e-06
5.22948e-06
5.22983e-06
5.23016e-06
5.23048e-06
5.23079e-06
5.23109e-06
5.23138e-06
5.23165e-06
5.23192e-06
5.23217e-06
5.23242e-06
5.23265e-06
5.23288e-06
5.23309e-06
5.2333e-06
5.2335e-06
5.23368e-06
5.23386e-06
5.23403e-06
5.23419e-06
5.23435e-06
5.2345e-06
5.23464e-06
5.23478e-06
5.23491e-06
5.23504e-06
5.23516e-06
5.23527e-06
5.23537e-06
5.20719e-06
5.20838e-06
5.2095e-06
5.21057e-06
5.21159e-06
5.21257e-06
5.21351e-06
5.21441e-06
5.21528e-06
5.21611e-06
5.21692e-06
5.2177e-06
5.21845e-06
5.21918e-06
5.21988e-06
5.22056e-06
5.22122e-06
5.22185e-06
5.22246e-06
5.22305e-06
5.22362e-06
5.22418e-06
5.22471e-06
5.22522e-06
5.22572e-06
5.2262e-06
5.22666e-06
5.22711e-06
5.22754e-06
5.22796e-06
5.22836e-06
5.22874e-06
5.22911e-06
5.22947e-06
5.22982e-06
5.23015e-06
5.23047e-06
5.23077e-06
5.23107e-06
5.23136e-06
5.23163e-06
5.23189e-06
5.23215e-06
5.23239e-06
5.23262e-06
5.23285e-06
5.23306e-06
5.23326e-06
5.23346e-06
5.23365e-06
5.23383e-06
5.234e-06
5.23416e-06
5.23431e-06
5.23446e-06
5.2346e-06
5.23474e-06
5.23487e-06
5.235e-06
5.23512e-06
5.23523e-06
5.23534e-06
5.23543e-06
5.20719e-06
5.2084e-06
5.20952e-06
5.2106e-06
5.21162e-06
5.2126e-06
5.21355e-06
5.21445e-06
5.21532e-06
5.21616e-06
5.21697e-06
5.21775e-06
5.2185e-06
5.21922e-06
5.21993e-06
5.2206e-06
5.22126e-06
5.22189e-06
5.2225e-06
5.22308e-06
5.22365e-06
5.2242e-06
5.22473e-06
5.22524e-06
5.22574e-06
5.22621e-06
5.22667e-06
5.22712e-06
5.22754e-06
5.22796e-06
5.22835e-06
5.22874e-06
5.22911e-06
5.22946e-06
5.2298e-06
5.23013e-06
5.23045e-06
5.23076e-06
5.23105e-06
5.23133e-06
5.23161e-06
5.23187e-06
5.23212e-06
5.23236e-06
5.23259e-06
5.23282e-06
5.23303e-06
5.23323e-06
5.23343e-06
5.23361e-06
5.23379e-06
5.23396e-06
5.23412e-06
5.23428e-06
5.23443e-06
5.23457e-06
5.2347e-06
5.23483e-06
5.23496e-06
5.23508e-06
5.23519e-06
5.2353e-06
5.2354e-06
5.23549e-06
5.2072e-06
5.20841e-06
5.20954e-06
5.21062e-06
5.21165e-06
5.21264e-06
5.21359e-06
5.2145e-06
5.21537e-06
5.21621e-06
5.21702e-06
5.21779e-06
5.21854e-06
5.21927e-06
5.21997e-06
5.22064e-06
5.2213e-06
5.22192e-06
5.22253e-06
5.22312e-06
5.22368e-06
5.22423e-06
5.22475e-06
5.22526e-06
5.22575e-06
5.22623e-06
5.22668e-06
5.22712e-06
5.22755e-06
5.22796e-06
5.22835e-06
5.22873e-06
5.2291e-06
5.22945e-06
5.22979e-06
5.23012e-06
5.23044e-06
5.23074e-06
5.23103e-06
5.23132e-06
5.23159e-06
5.23185e-06
5.2321e-06
5.23234e-06
5.23257e-06
5.23279e-06
5.233e-06
5.2332e-06
5.2334e-06
5.23358e-06
5.23376e-06
5.23393e-06
5.23409e-06
5.23424e-06
5.23439e-06
5.23453e-06
5.23467e-06
5.2348e-06
5.23492e-06
5.23504e-06
5.23516e-06
5.23526e-06
5.23537e-06
5.23546e-06
5.23555e-06
5.2072e-06
5.20842e-06
5.20956e-06
5.21065e-06
5.21168e-06
5.21268e-06
5.21363e-06
5.21454e-06
5.21541e-06
5.21625e-06
5.21706e-06
5.21784e-06
5.21859e-06
5.21931e-06
5.22001e-06
5.22069e-06
5.22134e-06
5.22196e-06
5.22257e-06
5.22315e-06
5.22371e-06
5.22425e-06
5.22478e-06
5.22528e-06
5.22577e-06
5.22624e-06
5.22669e-06
5.22713e-06
5.22755e-06
5.22796e-06
5.22835e-06
5.22873e-06
5.2291e-06
5.22945e-06
5.22978e-06
5.23011e-06
5.23042e-06
5.23073e-06
5.23102e-06
5.2313e-06
5.23157e-06
5.23182e-06
5.23207e-06
5.23231e-06
5.23254e-06
5.23276e-06
5.23297e-06
5.23317e-06
5.23337e-06
5.23355e-06
5.23373e-06
5.23389e-06
5.23406e-06
5.23421e-06
5.23436e-06
5.2345e-06
5.23463e-06
5.23476e-06
5.23489e-06
5.23501e-06
5.23512e-06
5.23523e-06
5.23533e-06
5.23543e-06
5.23552e-06
5.2356e-06
5.2072e-06
5.20843e-06
5.20958e-06
5.21067e-06
5.21171e-06
5.21271e-06
5.21366e-06
5.21458e-06
5.21546e-06
5.2163e-06
5.21711e-06
5.21789e-06
5.21864e-06
5.21936e-06
5.22005e-06
5.22073e-06
5.22137e-06
5.222e-06
5.2226e-06
5.22318e-06
5.22374e-06
5.22428e-06
5.2248e-06
5.2253e-06
5.22579e-06
5.22625e-06
5.22671e-06
5.22714e-06
5.22756e-06
5.22796e-06
5.22835e-06
5.22873e-06
5.22909e-06
5.22944e-06
5.22978e-06
5.2301e-06
5.23041e-06
5.23071e-06
5.231e-06
5.23128e-06
5.23155e-06
5.23181e-06
5.23205e-06
5.23229e-06
5.23252e-06
5.23274e-06
5.23294e-06
5.23315e-06
5.23334e-06
5.23352e-06
5.2337e-06
5.23386e-06
5.23402e-06
5.23418e-06
5.23432e-06
5.23447e-06
5.2346e-06
5.23473e-06
5.23485e-06
5.23497e-06
5.23509e-06
5.23519e-06
5.2353e-06
5.2354e-06
5.23549e-06
5.23557e-06
5.23565e-06
5.2072e-06
5.20844e-06
5.20959e-06
5.21069e-06
5.21174e-06
5.21274e-06
5.2137e-06
5.21462e-06
5.2155e-06
5.21634e-06
5.21715e-06
5.21793e-06
5.21868e-06
5.2194e-06
5.2201e-06
5.22077e-06
5.22141e-06
5.22203e-06
5.22263e-06
5.22321e-06
5.22377e-06
5.2243e-06
5.22482e-06
5.22532e-06
5.2258e-06
5.22627e-06
5.22672e-06
5.22715e-06
5.22757e-06
5.22797e-06
5.22836e-06
5.22873e-06
5.22909e-06
5.22944e-06
5.22977e-06
5.23009e-06
5.2304e-06
5.2307e-06
5.23099e-06
5.23127e-06
5.23153e-06
5.23179e-06
5.23203e-06
5.23227e-06
5.23249e-06
5.23271e-06
5.23292e-06
5.23312e-06
5.23331e-06
5.23349e-06
5.23367e-06
5.23383e-06
5.23399e-06
5.23415e-06
5.23429e-06
5.23443e-06
5.23457e-06
5.2347e-06
5.23482e-06
5.23494e-06
5.23505e-06
5.23516e-06
5.23526e-06
5.23536e-06
5.23546e-06
5.23555e-06
5.23562e-06
5.2357e-06
5.20721e-06
5.20845e-06
5.20961e-06
5.21072e-06
5.21177e-06
5.21278e-06
5.21374e-06
5.21466e-06
5.21554e-06
5.21638e-06
5.21719e-06
5.21797e-06
5.21872e-06
5.21944e-06
5.22014e-06
5.22081e-06
5.22145e-06
5.22207e-06
5.22267e-06
5.22324e-06
5.2238e-06
5.22433e-06
5.22485e-06
5.22534e-06
5.22582e-06
5.22629e-06
5.22673e-06
5.22716e-06
5.22758e-06
5.22798e-06
5.22836e-06
5.22873e-06
5.22909e-06
5.22944e-06
5.22977e-06
5.23009e-06
5.2304e-06
5.23069e-06
5.23098e-06
5.23125e-06
5.23152e-06
5.23177e-06
5.23201e-06
5.23225e-06
5.23247e-06
5.23269e-06
5.2329e-06
5.23309e-06
5.23328e-06
5.23347e-06
5.23364e-06
5.23381e-06
5.23397e-06
5.23412e-06
5.23426e-06
5.2344e-06
5.23454e-06
5.23467e-06
5.23479e-06
5.23491e-06
5.23502e-06
5.23513e-06
5.23523e-06
5.23533e-06
5.23542e-06
5.23551e-06
5.2356e-06
5.23567e-06
5.23574e-06
5.20721e-06
5.20845e-06
5.20963e-06
5.21074e-06
5.2118e-06
5.21281e-06
5.21377e-06
5.21469e-06
5.21558e-06
5.21642e-06
5.21724e-06
5.21802e-06
5.21876e-06
5.21948e-06
5.22018e-06
5.22084e-06
5.22149e-06
5.22211e-06
5.2227e-06
5.22327e-06
5.22383e-06
5.22436e-06
5.22487e-06
5.22537e-06
5.22584e-06
5.2263e-06
5.22675e-06
5.22717e-06
5.22759e-06
5.22798e-06
5.22837e-06
5.22874e-06
5.22909e-06
5.22943e-06
5.22976e-06
5.23008e-06
5.23039e-06
5.23068e-06
5.23097e-06
5.23124e-06
5.2315e-06
5.23175e-06
5.232e-06
5.23223e-06
5.23245e-06
5.23267e-06
5.23287e-06
5.23307e-06
5.23326e-06
5.23344e-06
5.23361e-06
5.23378e-06
5.23394e-06
5.23409e-06
5.23424e-06
5.23438e-06
5.23451e-06
5.23464e-06
5.23476e-06
5.23488e-06
5.23499e-06
5.2351e-06