/*--------------------------------*- C++ -*----------------------------------*\
  =========                 |
  \\      /  F ield         | OpenFOAM: The Open Source CFD Toolbox
   \\    /   O peration     | Website:  https://openfoam.org
    \\  /    A nd           | Version:  7
     \\/     M anipulation  |
\*---------------------------------------------------------------------------*/
FoamFile
{
    version     2.0;
    format      ascii;
    class       volScalarField;
    location    "2000";
    object      p;
}
// * * * * * * * * * * * * * * * * * * * * * * * * * * * * * * * * * * * * * //

dimensions      [0 2 -2 0 0 0 0];

internalField   nonuniform List<scalar> 
23052
(
41.9837
39.2195
26.5157
37.3805
27.7215
30.4685
36.0573
28.2023
29.594
31.0353
35.0884
28.3695
29.0948
31.1207
31.8483
32.6423
34.3431
28.3921
28.7643
31.026
31.6928
32.6479
33.8964
34.844
33.7473
28.3585
28.5173
30.8642
31.5753
32.5835
33.7823
34.8497
36.1007
33.2518
28.3086
28.3151
30.679
31.4612
32.4819
33.6786
34.7974
36.0579
37.2725
32.8274
28.2584
28.1408
30.4893
31.3403
32.3631
33.5694
34.7202
35.9659
37.2482
38.5796
32.4497
28.2133
27.9861
30.3022
31.2116
32.2334
33.4506
34.6225
35.8683
37.1662
38.5405
39.9185
32.1043
28.1725
27.8469
30.1197
31.0764
32.0957
33.3216
34.51
35.7591
37.0696
38.4433
39.8798
41.3389
31.7842
28.1341
27.7192
29.9419
30.936
31.9517
33.1826
34.3846
35.6384
36.9571
38.336
39.7777
41.293
42.8178
31.4767
28.0957
27.6008
29.7679
30.7916
31.802
33.0348
34.2477
35.5061
36.8314
38.215
39.6636
41.1804
42.768
44.3678
31.1811
28.0538
27.4893
29.5969
30.6435
31.6472
32.8792
34.1002
35.3628
36.693
38.0816
39.5346
41.0567
42.6469
44.3122
45.9847
30.8918
28.0065
27.3821
29.4275
30.4919
31.4876
32.7161
33.9432
35.209
36.5429
37.9357
39.3929
40.9186
42.5143
44.1812
45.9241
47.6728
30.6039
27.9512
27.2771
29.2585
30.3366
31.3234
32.546
33.7771
35.0449
36.3816
37.7779
39.2385
40.7677
42.3669
44.0388
45.7834
47.6065
49.4323
30.3183
27.8865
27.1724
29.0887
30.1771
31.1546
32.3693
33.6022
34.8713
36.2095
37.6085
39.0718
40.6039
42.2065
43.8815
45.6312
47.4558
49.3605
51.2659
30.0336
27.8117
27.0663
28.9174
30.013
30.9807
32.1861
33.4193
34.688
36.0271
37.4279
38.8933
40.4278
42.0331
43.7112
45.464
47.2935
49.1998
51.1883
53.1752
29.7461
27.7252
26.9572
28.7435
29.844
30.8018
31.9964
33.2283
34.496
35.8345
37.2365
38.7034
40.2396
41.847
43.5277
45.2834
47.116
49.0272
51.0173
53.0917
55.1624
29.4545
27.6262
26.8438
28.5661
29.6694
30.6174
31.8003
33.0294
34.2953
35.6324
37.0346
38.5022
40.0396
41.6487
43.3314
45.0895
46.925
48.8393
50.8344
52.9105
55.073
57.2298
29.1616
27.5144
26.7248
28.3845
29.4887
30.4274
31.5975
32.823
34.0858
35.4209
36.8226
38.2902
39.8282
41.4384
43.1225
44.8826
46.7204
48.6377
50.6359
52.717
54.8813
57.1342
59.3796
28.8648
27.39
26.5997
28.1979
29.3016
30.2314
31.3885
32.6088
33.8682
35.2003
36.6006
38.0677
39.6056
41.2163
42.9014
44.6629
46.5026
48.4222
50.4234
52.5077
54.6772
56.9319
59.2777
61.6143
28.5625
27.2524
26.4676
28.006
29.1076
30.0289
31.1726
32.3873
33.6422
34.9707
36.3689
37.8348
39.3722
40.9828
42.6684
44.4308
46.2719
48.1934
50.1969
52.2843
54.4569
56.7171
59.0648
61.5061
63.9363
28.2559
27.1014
26.3276
27.8082
28.9065
29.8199
30.95
32.158
33.4082
34.7323
36.1278
37.5919
39.1281
40.7381
42.4236
44.1865
46.0285
47.9514
49.9568
52.0465
54.2224
56.4858
58.8391
61.2823
63.8215
66.3481
27.9462
26.9371
26.1793
27.6041
28.6981
29.6042
30.7206
31.9213
33.1661
34.4854
35.8775
37.3391
38.8735
40.4825
42.1674
43.9302
45.7727
47.6964
49.7032
51.795
53.9732
56.2399
58.5966
61.0455
63.5869
66.2268
68.8526
27.6306
26.7601
26.0224
27.3934
28.4822
29.3814
30.4842
31.6772
32.9161
34.2299
35.618
37.0767
38.6089
40.2162
41.9
43.6623
45.5046
47.4288
49.4365
51.5297
53.71
55.9792
58.3393
60.7918
63.3389
65.9812
68.7245
71.4526
27.311
26.5701
25.8567
27.176
28.2586
29.1513
30.2408
31.4255
32.6582
33.9661
35.3497
36.8049
38.3342
39.9394
41.6216
43.3828
45.2246
47.1487
49.1569
51.251
53.4328
55.7042
58.0669
60.5229
63.0737
65.722
68.4678
71.3175
74.1509
26.9867
26.3677
25.6817
26.9514
28.0271
28.9139
29.9901
31.1663
32.3924
33.6941
35.0727
36.5238
38.0498
39.6523
41.3325
43.0921
44.9328
46.8564
48.8646
50.9591
53.142
55.4149
57.7798
60.2385
62.7931
65.4451
68.1972
71.0496
74.0086
76.9505
26.6577
26.1532
25.4975
26.7197
27.7877
28.6691
29.7324
30.8996
32.1189
33.4139
34.787
36.2337
37.7558
39.3551
41.0328
42.7903
44.6295
46.5521
48.5598
50.6543
52.8377
55.1117
57.4782
59.9393
62.4967
65.1526
67.9086
70.7675
73.7294
76.801
79.8545
26.3247
25.9269
25.3039
26.4809
27.5404
28.4168
29.4675
30.6256
31.8376
33.1257
34.4929
35.9346
37.4524
39.0481
40.7227
42.4778
44.3149
46.236
48.2427
50.3368
52.5202
54.7948
57.1625
59.6252
62.1851
64.844
67.604
70.467
73.4356
76.5102
79.6975
82.866
25.9866
25.6891
25.1009
26.2347
27.2853
28.1568
29.1954
30.344
31.5487
32.8296
34.1904
35.6268
37.1399
38.7315
40.4025
42.1546
43.9893
45.9083
47.9135
50.0067
52.1896
54.4643
56.8327
59.2967
61.8584
64.5198
67.283
70.1502
73.1232
76.2047
79.3951
82.7013
85.9883
25.645
25.44
24.8885
25.9813
27.0223
27.8895
28.916
30.0552
31.2523
32.5257
33.8798
35.3104
36.8183
38.4053
40.0724
41.821
43.6527
45.5693
47.5726
49.6642
51.8462
54.1206
56.489
58.9538
61.5168
64.1802
66.9462
69.8166
72.794
75.8801
79.0777
82.3872
85.8156
89.2246
25.2992
25.1804
24.6667
25.7205
26.7517
27.6146
28.6295
29.759
30.9483
32.214
33.5611
34.9855
36.4878
38.0698
39.7324
41.4771
43.3054
45.2191
47.22
49.3097
51.4902
53.7636
56.1318
58.5968
61.1607
63.8255
66.5935
69.4669
72.4478
75.5384
78.7408
82.0578
85.4898
89.0437
92.5779
24.9491
24.9104
24.4358
25.4526
26.4733
27.3322
28.3359
29.4556
30.637
31.8947
33.2345
34.6523
36.1487
37.7252
39.383
41.1232
42.9477
44.858
46.8559
48.9432
51.1219
53.3938
55.7612
58.2259
60.79
63.4559
66.2254
69.101
72.0849
75.1792
78.3864
81.7084
85.1481
88.7059
92.3887
96.0518
24.5952
24.6306
24.1959
25.1776
26.1873
27.0424
28.0351
29.145
30.3183
31.5679
32.9001
34.311
35.801
37.3717
39.0241
40.7596
42.5797
44.4861
46.4806
48.565
50.7413
53.0113
55.3773
57.8412
60.4052
63.0714
65.842
68.7193
71.7056
74.8031
78.0141
81.3411
84.786
88.3517
92.0388
95.854
99.6498
24.238
24.3413
23.9469
24.8954
25.894
26.7454
27.7275
28.8274
29.9925
31.2338
32.5581
33.9618
35.445
37.0094
38.656
40.3862
42.2015
44.1035
46.0941
48.1752
50.3485
52.6163
54.9804
57.4429
60.0063
62.6723
65.4434
68.3219
71.31
74.4101
77.6245
80.9555
84.4057
87.977
91.6722
95.492
99.4432
103.375
23.8772
24.0429
23.6892
24.6065
25.5935
26.4412
27.413
28.5029
29.6596
30.8924
32.2085
33.6046
35.0808
36.6385
38.2789
40.0034
41.8134
43.7106
45.6969
47.774
49.944
52.2089
54.5706
57.0314
59.5934
62.2588
65.0299
67.909
70.8984
74.0005
77.2177
80.5523
84.0068
87.5835
91.2846
95.1129
99.0689
103.16
107.231
23.5133
23.7358
23.423
24.3107
25.2859
26.1299
27.0917
28.1717
29.3198
30.544
31.8516
33.2398
34.7085
36.2592
37.893
39.6113
41.4155
43.3075
45.2889
47.3617
49.5278
51.7892
54.1481
56.6066
59.1668
61.8311
64.6017
67.4808
70.4709
73.5745
76.7938
80.1314
83.5897
87.171
90.8777
94.7122
98.677
102.773
107.006
111.222
23.1459
23.4206
23.1485
24.0083
24.9714
25.8118
26.7638
27.8337
28.9731
30.1886
31.4875
32.8676
34.3284
35.8716
37.4984
39.21
41.0081
42.8943
44.8704
46.9384
49.1001
51.3576
53.7131
56.1688
58.7267
61.3893
64.1587
67.0374
70.0277
73.1321
76.3531
79.693
83.1544
86.7398
90.4514
94.2917
98.2632
102.368
106.607
110.987
115.35
22.7755
23.0976
22.8658
23.6995
24.6502
25.4869
26.4294
27.4892
28.6198
29.8263
31.1164
32.4879
33.9406
35.476
37.0953
38.7999
40.5914
42.4713
44.4416
46.5042
48.661
50.9142
53.2659
55.7181
58.2732
60.9336
63.7013
66.579
69.5689
72.6737
75.8957
79.2374
82.7014
86.2901
90.006
93.8514
97.829
101.941
106.19
110.576
115.106
119.62
22.4024
22.7671
22.5752
23.3844
24.3226
25.1555
26.0887
27.1384
28.26
29.4574
30.7383
32.1011
33.5452
35.0725
36.6839
38.381
40.1654
42.0386
44.0027
46.0594
48.2109
50.4591
52.8063
55.2547
57.8066
60.4641
63.2297
66.1057
69.0949
72.1993
75.4217
78.7647
82.2306
85.8221
89.5416
93.3917
97.3747
101.493
105.749
110.145
114.682
119.366
124.035
22.0272
22.4295
22.277
23.0631
23.9888
24.8177
25.7419
26.7813
27.8939
29.082
30.3536
31.7072
33.1425
34.6612
36.2645
37.9536
39.7304
41.5965
43.5537
45.6042
47.7497
49.9925
52.3348
54.7788
57.3267
59.9809
62.7439
65.6178
68.6055
71.7091
74.9314
78.275
81.7423
85.3359
89.0585
92.9125
96.9004
101.025
105.288
109.691
114.239
118.929
123.771
128.598
21.6487
22.0853
21.9715
22.736
23.6489
24.4737
25.389
26.4183
27.5215
28.7003
29.9623
31.3065
32.7327
34.2424
35.837
37.5179
39.2866
41.145
43.0951
45.1386
47.2777
49.5147
51.8514
54.2905
56.8339
59.4844
62.2439
65.1153
68.1009
71.2033
74.4248
77.7684
81.2366
84.8317
88.5567
92.414
96.4062
100.536
104.805
109.216
113.771
118.473
123.322
128.324
133.313
21.2678
21.735
21.6589
22.4032
23.3032
24.1238
25.0303
26.0493
27.1432
28.3123
29.5646
30.8992
32.3159
33.8163
35.4018
37.0739
38.8342
40.6845
42.6268
44.663
46.7952
49.0256
51.3565
53.79
56.3285
58.9744
61.7303
64.5983
67.5814
70.6817
73.9021
77.2452
80.7135
84.3097
88.0366
91.8964
95.892
100.026
104.301
108.719
113.282
117.992
122.852
127.862
133.028
138.184
20.8849
21.3786
21.3394
22.0648
22.9518
23.7681
24.6659
25.6747
26.7591
27.9185
29.1607
30.4853
31.8922
33.383
34.9591
36.622
38.3733
40.2151
42.1491
44.1774
46.3022
48.5256
50.8499
53.2774
55.8104
58.4513
61.2028
64.0671
67.0469
70.1448
73.3633
76.7053
80.1733
83.7699
87.498
91.36
95.3586
99.4964
103.776
108.2
112.77
117.489
122.358
127.38
132.555
137.888
143.213
20.5004
21.0168
21.0133
21.7212
22.5952
23.4069
24.2962
25.2946
26.3693
27.5188
28.7508
30.0652
31.462
32.9427
34.5089
36.1622
37.9042
39.7369
41.6622
43.6822
45.799
48.0148
50.332
52.7529
55.2798
57.9153
60.6617
63.5216
66.4978
69.5926
72.8087
76.149
79.616
83.2124
86.941
90.8046
94.8055
98.9467
103.23
107.659
112.236
116.962
121.841
126.872
132.06
137.403
142.907
148.405
20.1135
20.6499
20.6811
21.3725
22.2334
23.0403
23.9211
24.9093
25.9741
27.1135
28.335
29.639
31.0253
32.4956
34.0516
35.6948
37.4271
39.2502
41.1662
43.1773
45.2856
47.4934
49.8029
52.2166
54.7369
57.3663
60.1073
62.9622
65.934
69.0251
72.2384
75.5763
79.0418
82.6374
86.366
90.2303
94.2331
98.3768
102.664
107.098
111.68
116.413
121.3
126.341
131.538
136.895
142.409
148.088
153.761
19.7247
20.2782
20.3428
21.0189
21.8667
22.6686
23.5411
24.5188
25.5736
26.7028
27.9136
29.2068
30.5823
32.0419
33.5873
35.2201
36.942
38.7551
40.6614
42.6631
44.7624
46.9616
49.2629
51.6689
54.182
56.8045
59.5394
62.3889
65.3557
68.4426
71.6522
74.9872
78.4505
82.0449
85.7729
89.6375
93.6413
97.7871
102.077
106.515
111.102
115.841
120.735
125.785
130.993
136.361
141.889
147.578
153.433
159.287
19.3348
19.902
19.9988
20.6607
21.4954
22.2921
23.1562
24.1234
25.1681
26.2868
27.4867
28.7688
30.1334
31.5818
33.1162
34.738
36.4493
38.2518
40.148
42.1398
44.2295
46.4194
48.712
51.1097
53.6149
56.2303
58.9584
61.8017
64.763
67.845
71.0503
74.382
77.8425
81.4348
85.1618
89.026
93.0303
97.1774
101.47
105.911
110.503
115.248
120.148
125.206
130.423
135.801
141.342
147.046
152.913
158.948
164.984
18.943
19.5217
19.6494
20.298
21.1197
21.9108
22.7666
23.7234
24.7577
25.8658
27.0546
28.3254
29.6785
31.1155
32.6385
34.249
35.9491
37.7407
39.6261
41.6074
43.687
45.8672
48.1505
50.5393
53.0361
55.6436
58.3644
61.2009
64.156
67.2327
70.4332
73.7606
77.2178
80.8075
84.5325
88.3958
92.4
96.5481
100.843
105.286
109.882
114.631
119.538
124.602
129.828
135.217
140.769
146.486
152.369
158.417
164.634
170.855
18.5499
19.1376
19.2948
19.9311
20.7398
21.5252
22.3726
23.3189
24.3426
25.4399
26.6174
27.8766
29.218
30.6433
32.1544
33.7532
35.4416
37.2218
39.0959
41.0663
43.1352
45.3051
47.5785
49.9578
52.4456
55.0445
57.7573
60.5867
63.535
66.6054
69.8006
73.1231
76.5764
80.1628
83.8854
87.747
91.7505
95.8987
100.194
104.64
109.239
113.993
118.904
123.976
129.21
134.607
140.17
145.9
151.797
157.861
164.093
170.495
176.905
18.1557
18.75
18.9353
19.5602
20.3559
21.1353
21.9744
22.91
23.9231
25.0095
26.1753
27.4227
28.7521
30.1652
31.6641
33.2507
34.927
36.6953
38.5576
40.5166
42.5742
44.7333
46.9961
49.3653
51.8436
54.4334
57.1376
59.9588
62.8998
65.9635
69.1526
72.47
75.9184
79.5009
83.2206
87.0798
91.0819
95.2296
99.5257
103.973
108.574
113.332
118.248
123.326
128.567
133.973
139.546
145.287
151.197
157.277
163.527
169.944
176.533
183.134
17.7602
18.3593
18.5713
19.1855
19.9684
20.7415
21.5722
22.4971
23.4994
24.5745
25.7286
26.9639
28.2809
29.6815
31.1678
32.7419
34.4056
36.1615
38.0116
39.9584
42.0043
44.1519
46.4037
48.7622
51.2303
53.8103
56.5053
59.3179
62.2509
65.307
68.4894
71.8008
75.2439
78.8221
82.5378
86.3943
90.3944
94.5409
98.8369
103.285
107.888
112.648
117.569
122.652
127.899
133.313
138.896
144.648
150.571
156.665
162.93
169.368
175.974
182.752
189.546
17.3637
17.9657
18.2029
18.8073
19.5773
20.344
21.1663
22.0804
23.0716
24.1354
25.2774
26.5003
27.8046
29.1924
30.6657
32.2268
33.8775
35.6205
37.4578
39.392
41.4257
43.5612
45.8013
48.1486
50.6057
53.1755
55.8606
58.6638
61.5882
64.6363
67.8111
71.1158
74.553
78.1258
81.8374
85.6901
89.6877
93.8325
98.1275
102.576
107.18
111.943
116.867
121.954
127.208
132.629
138.22
143.982
149.917
156.025
162.306
168.761
175.388
182.184
189.154
196.142
16.9664
17.5695
17.8304
18.4256
19.183
19.9429
20.7567
21.66
22.64
23.6922
24.822
26.0322
27.3236
28.6981
30.1581
31.7057
33.343
35.0725
36.8966
38.8177
40.8385
42.9614
45.1892
47.5246
49.9702
52.5289
55.2035
57.9969
60.9118
63.9511
67.1179
70.4153
73.8458
77.4128
81.1192
84.9678
88.9618
93.1043
97.3978
101.846
106.45
111.215
116.141
121.233
126.492
131.92
137.519
143.291
149.237
155.357
161.653
168.125
174.77
181.59
188.579
195.741
202.926
16.5685
17.171
17.4542
18.0408
18.7857
19.5385
20.3438
21.2362
22.2048
23.2452
24.3625
25.5597
26.8378
28.1988
29.6451
31.1788
32.8022
34.5178
36.3281
38.2356
40.2429
42.3527
44.5676
46.8904
49.324
51.8709
54.5344
57.317
60.2219
63.2518
66.41
69.699
73.1224
76.6826
80.3833
84.227
88.2171
92.3564
96.6478
101.094
105.699
110.464
115.393
120.488
125.751
131.185
136.792
142.572
148.529
154.662
160.972
167.459
174.123
180.963
187.977
195.161
202.517
209.899
16.1699
16.7704
17.0745
17.6532
18.3856
19.1311
19.9277
20.8091
21.7662
22.7946
23.8992
25.0832
26.3477
27.6948
29.1269
30.6463
32.2554
33.9567
35.7526
37.646
39.6392
41.7352
43.9366
46.2462
48.667
51.2017
53.8532
56.6246
59.5186
62.5385
65.6872
68.9674
72.3826
75.9357
79.63
83.468
87.4533
91.5887
95.8774
100.322
104.926
109.692
114.622
119.72
124.987
130.426
136.039
141.828
147.794
153.938
160.262
166.765
173.446
180.306
187.342
194.552
201.931
209.482
217.063
15.7707
16.368
16.6915
17.2628
17.9829
18.7208
19.5087
20.379
21.3244
22.3406
23.4323
24.6027
25.8533
27.1861
28.6038
30.1085
31.7028
33.3892
35.1703
37.0489
39.0276
41.1091
43.2965
45.5923
47.9997
50.5213
53.1603
55.9196
58.8023
61.8111
64.9496
68.2205
71.6267
75.172
78.8589
82.6906
86.6706
90.8014
95.0865
99.5288
104.131
108.896
113.827
118.927
124.197
129.641
135.26
141.057
147.032
153.188
159.523
166.041
172.739
179.618
186.676
193.91
201.317
208.894
216.64
224.42
15.3711
15.9641
16.3056
16.8698
17.5778
18.3079
19.087
19.9461
20.8796
21.8834
22.9619
24.1186
25.3549
26.6732
28.0759
29.5655
31.1445
32.8156
34.5814
36.4447
38.4082
40.4748
42.6474
44.9288
47.322
49.8299
52.4558
55.2023
58.0728
61.0702
64.1976
67.4583
70.8551
74.3914
78.0705
81.8951
85.8689
89.9945
94.2752
98.7142
103.314
108.079
113.01
118.11
123.384
128.831
134.456
140.259
146.243
152.409
158.757
165.288
172.002
178.899
185.978
193.235
200.669
208.276
216.05
223.991
231.97
14.9713
15.559
15.9169
16.4746
17.1706
17.8926
18.6627
19.5106
20.432
21.4231
22.4883
23.6309
24.8528
26.1561
27.5435
29.0176
30.5809
32.2362
33.9861
35.8336
37.7813
39.8324
41.9896
44.2559
46.6343
49.1279
51.7397
54.473
57.3305
60.3155
63.4313
66.6809
70.0674
73.5943
77.2646
81.0814
85.0481
89.1678
93.4436
97.8784
102.476
107.238
112.169
117.27
122.545
127.996
133.625
139.435
145.426
151.601
157.961
164.505
171.235
178.15
185.249
192.528
199.988
207.623
215.43
223.401
231.537
239.715
14.5713
15.1527
15.5258
16.0773
16.7614
17.4752
18.2362
19.0726
19.9818
20.9602
22.0117
23.14
24.347
25.635
27.0068
28.4649
30.0121
31.6511
33.3846
35.2158
37.1472
39.1821
41.3233
43.5739
45.9368
48.4154
51.0125
53.7315
56.5754
59.5473
62.6506
65.8885
69.264
72.7805
76.4414
80.2497
84.2085
88.3215
92.5914
97.0216
101.615
106.375
111.304
116.406
121.682
127.135
132.768
138.583
144.582
150.765
157.136
163.693
170.437
177.369
184.487
191.789
199.273
206.937
214.774
222.781
230.95
239.279
247.656
14.1712
14.7457
15.1324
15.6782
16.3504
17.0558
17.8075
18.6325
19.5293
20.4946
21.5323
22.646
23.8379
25.1103
26.466
27.9078
29.4384
31.0605
32.7772
34.5915
36.5061
38.5241
40.6487
42.8828
45.2297
47.6924
50.2743
52.9782
55.8077
58.7658
61.856
65.0812
68.4449
71.9503
75.6009
79.3996
83.3501
87.4554
91.7188
96.1434
100.733
105.489
110.416
115.517
120.793
126.249
131.885
137.705
143.71
149.902
156.281
162.851
169.609
176.557
183.693
191.016
198.524
206.215
214.083
222.124
230.332
238.698
247.219
255.793
13.7711
14.338
14.7371
15.2773
15.9381
16.6346
17.377
18.1904
19.0746
20.0266
21.0502
22.1491
23.3256
24.582
25.9214
27.3464
28.8599
30.4648
32.1641
33.9609
35.858
37.8587
39.966
42.1831
44.5132
46.9594
49.5252
52.2135
55.0277
57.9711
61.0474
64.2593
67.6103
71.1038
74.7433
78.5317
82.4728
86.57
90.8257
95.2442
99.8281
104.58
109.505
114.604
119.88
125.336
130.975
136.799
142.809
149.009
155.398
161.978
168.75
175.713
182.867
190.211
197.742
205.459
213.357
221.431
229.675
238.084
246.645
255.358
264.125
13.3711
13.93
14.3401
14.8749
15.5243
16.2119
16.9447
17.7465
18.6179
19.5565
20.5658
21.6496
22.8103
24.0505
25.373
26.7809
28.2769
29.8641
31.5456
33.3242
35.2034
37.1861
39.2754
41.4748
43.7875
46.2165
48.7653
51.4373
54.2356
57.1636
60.2248
63.4225
66.7602
70.2409
73.8686
77.6461
81.5767
85.6646
89.9124
94.3236
98.9015
103.649
108.57
113.666
118.941
124.398
130.038
135.865
141.881
148.087
154.485
161.076
167.86
174.837
182.009
189.373
196.927
204.668
212.595
220.701
228.982
237.429
246.037
254.794
263.696
272.654
12.9714
13.5218
13.9415
14.4713
15.1094
15.7878
16.511
17.301
18.1595
19.0844
20.0792
21.1476
22.2923
23.5158
24.8213
26.2115
27.6897
29.2587
30.9217
32.6818
34.5424
36.5064
38.5773
40.7583
43.0527
45.4638
47.9951
50.6498
53.4315
56.3433
59.3888
62.5714
65.8948
69.362
72.9767
76.7422
80.6622
84.7399
88.9785
93.3816
97.9529
102.695
107.611
112.704
117.977
123.433
129.075
134.905
140.924
147.136
153.542
160.142
166.939
173.93
181.118
188.501
196.077
203.843
211.796
219.935
228.25
236.738
245.388
254.195
263.144
272.232
281.378
12.5719
13.1135
13.5417
14.0666
14.6935
15.3625
16.076
16.8541
17.6995
18.6106
19.5905
20.6433
21.7717
22.9783
24.2663
25.6386
27.0983
28.6487
30.2928
32.0339
33.8752
35.8201
37.8718
40.0337
42.3093
44.7017
47.2147
49.8513
52.6154
55.5102
58.5394
61.7062
65.0141
68.467
72.0681
75.8209
79.7288
83.7955
88.0243
92.4184
96.9817
101.717
106.628
111.717
116.987
122.442
128.084
133.916
139.939
146.156
152.568
159.178
165.985
172.991
180.194
187.594
195.191
202.982
210.963
219.131
227.481
236.007
244.701
253.554
262.557
271.697
280.966
290.296
12.1729
12.7055
13.1408
13.6609
14.277
14.9364
15.6398
16.4059
17.2381
18.1351
19.1001
20.137
21.2488
22.4381
23.7083
25.0622
26.5032
28.0344
29.6591
31.3806
33.2022
35.1272
37.1591
39.3013
41.5573
43.9304
46.4242
49.0422
51.7879
54.6648
57.6766
60.8267
64.1186
67.5562
71.1427
74.8818
78.7767
82.8315
87.0496
91.434
95.9885
100.717
105.621
110.705
115.972
121.425
127.066
132.899
138.924
145.146
151.565
158.182
165
172.018
179.236
186.654
194.271
202.086
210.093
218.291
226.675
235.237
243.974
252.872
261.928
271.124
280.451
289.898
299.406
11.7744
12.2979
12.7392
13.2545
13.8598
14.5095
15.2028
15.9568
16.7756
17.6583
18.6081
19.6289
20.7238
21.8956
23.1474
24.4827
25.9045
27.4161
29.0209
30.7222
32.5235
34.4281
36.4395
38.5614
40.797
43.15
45.6239
48.2224
50.949
53.8072
56.8008
59.9333
63.2084
66.6295
70.2005
73.9249
77.8065
81.8484
86.0547
90.4282
94.9733
99.6924
104.59
109.668
114.931
120.381
126.02
131.853
137.881
144.106
150.53
157.155
163.982
171.012
178.245
185.68
193.316
201.152
209.186
217.413
225.829
234.429
243.206
252.151
261.256
270.509
279.897
289.407
299.027
308.708
11.3765
11.8908
12.337
12.8475
13.4422
14.0821
14.765
15.5068
16.312
17.1803
18.1146
19.1191
20.1968
21.3507
22.5841
23.9002
25.3023
26.7939
28.3783
30.0589
31.8393
33.7229
35.7133
37.814
40.0287
42.3609
44.8142
47.3923
50.0989
52.9377
55.9122
59.0261
62.2833
65.6873
69.2421
72.9508
76.8177
80.8458
85.0393
89.4013
93.9358
98.6458
103.535
108.606
113.864
119.31
124.947
130.779
136.808
143.036
149.465
156.096
162.932
169.973
177.219
184.67
192.326
200.183
208.242
216.497
224.946
233.581
242.398
251.388
260.542
269.85
279.299
288.876
298.564
308.351
318.197
10.9794
11.4844
11.9344
12.4403
13.0244
13.6542
14.3267
15.0562
15.8476
16.7013
17.62
18.6078
19.6681
20.8038
22.0183
23.3149
24.697
26.1681
27.7316
29.3911
31.15
33.012
34.9807
37.0596
39.2527
41.5633
43.9951
46.5521
49.2379
52.0562
55.011
58.1055
61.3439
64.7299
68.2672
71.9595
75.8106
79.8239
84.0037
88.3532
92.876
97.5756
102.456
107.52
112.771
118.212
123.846
129.676
135.705
141.934
148.368
155.005
161.849
168.9
176.159
183.625
191.298
199.178
207.26
215.543
224.022
232.694
241.549
250.583
259.786
269.148
278.657
288.299
298.06
307.92
317.869
327.871
10.583
11.0789
11.5316
12.0328
12.6065
13.2261
13.888
14.6051
15.3827
16.2215
17.1243
18.0953
19.1379
20.2551
21.4504
22.7271
24.0889
25.539
27.0811
28.7188
30.4558
32.2956
34.2419
36.2984
38.469
40.7573
43.1671
45.7022
48.3664
51.1633
54.0973
57.1715
60.3902
63.757
67.276
70.9507
74.7852
78.783
82.948
87.2838
91.794
96.4826
101.353
106.408
111.652
117.087
122.717
128.544
134.572
140.803
147.238
153.881
160.732
167.792
175.063
182.544
190.235
198.134
206.24
214.549
223.059
231.764
240.659
249.736
258.987
268.402
277.97
287.676
297.507
307.447
317.475
327.577
337.727
10.1875
10.6745
11.1289
11.6253
12.1888
12.7981
13.4491
14.1536
14.9172
15.741
16.6278
17.5818
18.6064
19.7048
20.8805
22.137
23.4779
24.9067
26.427
28.0425
29.7569
31.5738
33.4972
35.5307
37.6781
39.9433
42.3302
44.8426
47.4842
50.2592
53.1713
56.2245
59.4224
62.7694
66.2689
69.925
73.7418
77.7229
81.8721
86.1932
90.69
95.3662
100.225
105.271
110.506
115.934
121.559
127.383
133.409
139.64
146.078
152.724
159.582
166.651
173.932
181.427
189.134
197.052
205.18
213.517
222.056
230.795
239.727
248.846
258.144
267.611
277.237
287.007
296.908
306.924
317.037
327.225
337.474
347.76
9.79296
10.2712
10.7265
11.2179
11.7714
12.3702
13.0103
13.7021
14.4516
15.2601
16.1307
17.0674
18.0737
19.1531
20.3089
21.5448
22.8645
24.2715
25.7695
27.3622
29.0535
30.8471
32.7468
34.7566
36.8803
39.1217
41.4848
43.9736
46.592
49.3439
52.2333
55.2645
58.4409
61.7669
65.2461
68.8827
72.6807
76.644
80.7765
85.0818
89.564
94.2267
99.0733
104.108
109.334
114.755
120.373
126.193
132.216
138.446
144.885
151.534
158.397
165.474
172.766
180.272
187.995
195.933
204.082
212.443
221.012
229.782
238.753
247.913
257.257
266.776
276.457
286.291
296.261
306.353
316.548
326.828
337.168
347.554
357.966
9.39952
9.86932
10.3244
10.8109
11.3543
11.9426
12.5716
13.2506
13.9858
14.779
15.6331
16.5523
17.5401
18.6001
19.7357
20.9507
22.2488
23.6336
25.1088
26.6783
28.3459
30.1156
31.9911
33.9765
36.0757
38.2926
40.6312
43.0957
45.6899
48.4179
51.2838
54.2918
57.4457
60.7497
64.2074
67.8237
71.6018
75.5465
79.6608
83.9494
88.4157
93.0639
97.8973
102.92
108.136
113.548
119.159
124.973
130.992
137.22
143.659
150.311
157.178
164.261
171.562
179.081
186.818
194.773
202.944
211.329
219.925
228.729
237.734
246.935
256.324
265.894
275.632
285.527
295.566
305.732
316.009
326.378
336.817
347.302
357.815
368.339
9.00723
9.46887
9.92299
10.4044
10.9379
11.5154
12.1332
12.7993
13.5201
14.2977
15.1352
16.0366
17.0058
18.0461
19.1613
20.355
21.6311
22.9932
24.4452
25.991
27.6345
29.3796
31.2303
33.1906
35.2646
37.4562
39.7696
42.2089
44.7781
47.4815
50.3229
53.3067
56.437
59.7179
63.1536
66.7481
70.5055
74.4301
78.5255
82.7959
87.2457
91.878
96.6975
101.707
106.911
112.313
117.916
123.723
129.737
135.962
142.4
149.053
155.923
163.013
170.322
177.852
185.602
193.574
201.766
210.174
218.797
227.631
236.672
245.914
255.346
264.966
274.759
284.715
294.821
305.062
315.419
325.876
336.411
347.001
357.621
368.25
378.872
8.61621
9.07
9.52238
9.9985
10.5223
11.089
11.6953
12.3484
13.0546
13.8166
14.6372
15.5207
16.4709
17.4913
18.5857
19.7579
21.0116
22.3506
23.779
25.3005
26.9193
28.6394
30.4646
32.3992
34.4473
36.6129
38.9004
41.3137
43.857
46.5347
49.3507
52.3095
55.4154
58.6722
62.0845
65.6562
69.3916
73.2952
77.3704
81.6217
86.0535
90.6691
95.4731
100.469
105.66
111.05
116.643
122.443
128.451
134.672
141.108
147.761
154.634
161.728
169.044
176.584
184.348
192.335
200.545
208.977
217.626
226.49
235.565
244.845
254.324
263.99
273.839
283.854
294.027
304.34
314.778
325.322
335.952
346.645
357.377
368.121
378.855
389.559
8.22655
8.67286
9.12278
9.59338
10.1074
10.6633
11.258
11.8981
12.5896
13.3356
14.1393
15.0046
15.9356
16.9359
18.0092
19.1594
20.3904
21.706
23.1103
24.6072
26.2007
27.8951
29.6943
31.6026
33.6241
35.763
38.0236
40.4102
42.9268
45.5779
48.3678
51.3005
54.3807
57.6127
61.0005
64.5485
68.2608
72.1419
76.1959
80.4271
84.8397
89.4374
94.2245
99.2048
104.382
109.76
115.343
121.133
127.134
133.35
139.782
146.434
153.308
160.406
167.729
175.278
183.053
191.056
199.284
207.736
216.411
225.304
234.413
243.731
253.252
262.968
272.868
282.944
293.182
303.567
314.084
324.714
335.438
346.234
357.076
367.941
378.798
389.624
400.39
7.83827
8.27754
8.72433
9.18927
9.69376
10.2386
10.8216
11.4484
12.1251
12.8551
13.6416
14.4886
15.4002
16.38
17.432
18.56
19.7678
21.0597
22.4394
23.9111
25.4789
27.1471
28.9197
30.801
32.7952
34.9068
37.1398
39.4987
41.9878
44.6114
47.3742
50.2802
53.3336
56.5394
59.9017
63.4248
67.1131
70.9709
75.0025
79.2121
83.6041
88.1828
92.9519
97.9155
103.077
108.442
114.013
119.793
125.786
131.995
138.423
145.073
151.947
159.047
166.375
173.932
181.718
189.734
197.98
206.453
215.152
224.074
233.215
242.569
252.132
261.895
271.849
281.983
292.285
302.741
313.337
324.053
334.87
345.767
356.719
367.701
378.687
389.644
400.548
411.359
7.45161
7.88419
8.32717
8.78623
9.2812
9.81504
10.3861
10.9996
11.6614
12.3752
13.1443
13.9728
14.8648
15.824
16.8543
17.9597
19.1442
20.4117
21.7665
23.2127
24.7543
26.3957
28.1411
29.9948
31.9611
34.0445
36.2491
38.5797
41.0403
43.6357
46.3702
49.2482
52.2744
55.4528
58.7886
62.2855
65.9486
69.782
73.7899
77.9769
82.347
86.9054
91.6553
96.601
101.747
107.097
112.654
118.422
124.406
130.607
137.03
143.676
150.549
157.651
164.982
172.546
180.342
188.371
196.632
205.125
213.848
222.798
231.969
241.36
250.964
260.773
270.778
280.97
291.336
301.862
312.535
323.335
334.245
345.242
356.303
367.403
378.515
389.609
400.653
411.62
422.455
7.06657
7.49288
7.93155
8.38444
8.8699
9.39269
9.95181
10.5518
11.1986
11.896
12.6477
13.4574
14.3295
15.2678
16.2762
17.3588
18.5195
19.7625
21.0919
22.512
24.0269
25.641
27.3586
29.1841
31.1219
33.1764
35.352
37.6533
40.0847
42.6509
45.3562
48.2054
51.2029
54.3532
57.6612
61.1312
64.7677
68.5752
72.5583
76.7215
81.0689
85.6053
90.3347
95.2614
100.39
105.723
111.266
117.022
122.994
129.186
135.602
142.244
149.115
156.216
163.551
171.12
178.924
186.965
195.241
203.753
212.498
221.473
230.677
240.102
249.746
259.6
269.656
279.904
290.333
300.929
311.678
322.562
333.563
344.66
355.829
367.046
378.283
389.512
400.7
411.817
422.831
433.667
6.68327
7.10375
7.53752
7.98405
8.46007
8.9717
9.51871
10.1051
10.7367
11.4177
12.1517
12.9426
13.7946
14.7118
15.698
16.7574
17.8941
19.1122
20.4158
21.8094
23.2972
24.8835
26.5727
28.3694
30.2779
32.3028
34.4486
36.7199
39.1212
41.6572
44.3326
47.1519
50.1199
53.241
56.52
59.9617
63.5707
67.3512
71.3082
75.446
79.7696
84.2829
88.9904
93.8968
99.0056
104.321
109.848
115.59
121.55
127.733
134.14
140.776
147.643
154.743
162.079
169.653
177.465
185.515
193.806
202.335
211.101
220.102
229.335
238.795
248.478
258.375
268.481
278.785
289.275
299.94
310.764
321.731
332.823
344.018
355.295
366.628
377.99
389.353
400.685
411.955
423.126
434.171
444.985
6.30183
6.71691
7.14531
7.58521
8.0518
8.55224
9.08693
9.65966
10.2761
10.9405
11.6566
12.4284
13.2602
14.1561
15.1199
16.1559
17.2681
18.4609
19.7385
21.1051
22.5652
24.1232
25.7836
27.5508
29.4294
31.4241
33.5392
35.7798
38.1502
40.6552
43.2996
46.088
49.0255
52.1162
55.3655
58.7775
62.3574
66.1101
70.0399
74.1511
78.4491
82.9381
87.6226
92.5068
97.5957
102.893
108.402
114.128
120.075
126.245
132.643
139.272
146.134
153.232
160.568
168.144
175.962
184.022
192.326
200.87
209.656
218.682
227.943
237.436
247.157
257.098
267.252
277.611
288.162
298.894
309.793
320.842
332.023
343.317
354.699
366.147
377.633
389.13
400.606
412.028
423.362
434.574
445.63
456.394
5.92234
6.33242
6.755
7.188
7.64521
8.13438
8.65672
9.21564
9.81671
10.4644
11.1626
11.9152
12.7266
13.6008
14.542
15.5543
16.6419
17.809
19.0601
20.3994
21.8314
23.3605
24.9915
26.7287
28.5768
30.5405
32.6243
34.8333
37.172
39.6451
42.2575
45.0143
47.9198
50.9793
54.1976
57.579
61.129
64.8521
68.7532
72.837
77.1079
81.5714
86.2312
91.0923
96.1588
101.436
106.927
112.635
118.567
124.724
131.111
137.731
144.587
151.681
159.016
166.594
174.417
182.485
190.8
199.36
208.164
217.212
226.501
236.026
245.784
255.767
265.969
276.381
286.992
297.791
308.763
319.893
331.163
342.553
354.042
365.604
377.214
388.843
400.461
412.035
423.531
434.914
446.146
457.195
467.882
5.54499
5.95034
6.36675
6.79261
7.24039
7.71838
8.22819
8.7732
9.35882
9.98969
10.6697
11.403
12.1937
13.0462
13.9645
14.9529
16.0155
17.1567
18.3809
19.6924
21.0959
22.5958
24.1967
25.9033
27.7202
29.6522
31.7041
33.8807
36.1868
38.6272
41.2068
43.9308
46.8035
49.8306
53.0167
56.3665
59.885
63.5777
67.4487
71.5034
75.7463
80.1827
84.8163
89.6531
94.696
99.9513
105.422
111.113
117.027
123.17
129.544
136.154
143.002
150.09
157.423
165.002
172.828
180.903
189.227
197.801
206.623
215.693
225.008
234.564
244.357
254.381
264.63
275.094
285.764
296.629
307.673
318.884