/*--------------------------------*- C++ -*----------------------------------*\
  =========                 |
  \\      /  F ield         | OpenFOAM: The Open Source CFD Toolbox
   \\    /   O peration     | Website:  https://openfoam.org
    \\  /    A nd           | Version:  7
     \\/     M anipulation  |
\*---------------------------------------------------------------------------*/
FoamFile
{
    version     2.0;
    format      ascii;
    class       surfaceScalarField;
    location    "2000";
    object      phi;
}
// * * * * * * * * * * * * * * * * * * * * * * * * * * * * * * * * * * * * * //

dimensions      [0 3 -1 0 0 0 0];

internalField   nonuniform List<scalar> 
45794
(
-0.295089
0.0426549
-0.293463
0.0451745
-0.283552
0.0409379
-0.291722
0.0477156
-0.281824
0.0434459
-0.271972
0.0394876
-0.289844
0.0501621
-0.280036
0.0459277
-0.270387
0.0418611
-0.260996
0.0379452
-0.287799
0.0525557
-0.278118
0.048244
-0.268642
0.0441832
-0.259429
0.0402943
-0.250447
0.0364915
-0.241637
0.0329085
-0.285694
0.0549398
-0.27616
0.0505985
-0.266847
0.0464489
-0.257777
0.0425306
-0.248944
0.0387922
-0.240277
0.0351319
-0.231828
0.0316559
-0.223574
0.00208105
-0.28339
0.057115
-0.27406
0.05284
-0.264954
0.0487051
-0.256034
0.0447059
-0.247299
0.0408855
-0.238779
0.0372938
-0.230529
0.0338335
-0.222419
0.0305007
-0.214492
0.00208048
-0.281089
0.0593789
-0.271919
0.0549733
-0.262918
0.0508039
-0.25415
0.0468215
-0.245612
0.0430184
-0.237288
0.0393951
-0.229088
0.0358524
-0.221122
0.0325371
-0.213343
0.029352
-0.205763
0.00209965
-0.278596
0.0614334
-0.269634
0.0570937
-0.260838
0.0528934
-0.252225
0.0488781
-0.243833
0.0450424
-0.235607
0.0413374
-0.227554
0.0378614
-0.219784
0.0345135
-0.212101
0.0312946
-0.204629
0.0282181
-0.197342
0.00210888
-0.27606
0.0635247
-0.267306
0.0591057
-0.258618
0.0548738
-0.250206
0.0508744
-0.241962
0.0470071
-0.233935
0.0433694
-0.226028
0.0398111
-0.218353
0.0364305
-0.210765
0.0331779
-0.203436
0.0301022
-0.196273
0.0271487
-0.189276
0.0021182
-0.273485
0.0655067
-0.264839
0.0610573
-0.256405
0.0568926
-0.248146
0.052814
-0.240051
0.0489635
-0.232121
0.0451936
-0.22436
0.041702
-0.216781
0.0382389
-0.209387
0.035052
-0.202181
0.0319224
-0.195124
0.028954
-0.188239
0.0261112
-0.181529
0.00212737
-0.270724
0.0673808
-0.262283
0.0629513
-0.254054
0.0587066
-0.245896
0.0546433
-0.237999
0.0507628
-0.230217
0.0470597
-0.222653
0.0434857
-0.215167
0.0400885
-0.207965
0.0368177
-0.200827
0.0336987
-0.193907
0.0307054
-0.187137
0.0278524
-0.180537
0.025119
-0.174098
0.00213639
-0.267975
0.0692435
-0.259689
0.0647862
-0.251612
0.060509
-0.243656
0.0564665
-0.235908
0.0525523
-0.228271
0.048817
-0.220803
0.0452097
-0.21351
0.0418292
-0.206403
0.038526
-0.199417
0.0354071
-0.192617
0.0324088
-0.185972
0.0295401
-0.17948
0.0267957
-0.173144
0.024165
-0.166957
0.00214058
-0.265091
0.0709999
-0.257007
0.066562
-0.249132
0.0623064
-0.241377
0.0582301
-0.233727
0.0542849
-0.226286
0.0505671
-0.218963
0.0469774
-0.211814
0.043513
-0.204798
0.0402247
-0.197963
0.0370724
-0.19127
0.0340592
-0.184733
0.0311702
-0.17835
0.0284097
-0.17212
0.0257723
-0.16604
0.0232475
-0.160113
0.0021497
-0.262169
0.0727452
-0.254287
0.0682801
-0.246564
0.063994
-0.238959
0.0598883
-0.231457
0.0559606
-0.224163
0.0521613
-0.216983
0.0485867
-0.209976
0.0451401
-0.203154
0.0418683
-0.196419
0.038681
-0.18985
0.0356524
-0.183427
0.0327528
-0.177161
0.0299811
-0.171038
0.0273271
-0.165058
0.0247902
-0.15923
0.0223647
-0.15354
0.00215389
-0.259166
0.0743373
-0.251434
0.0698922
-0.24386
0.0655759
-0.236453
0.061488
-0.229148
0.0575793
-0.221998
0.0537964
-0.215011
0.05019
-0.208148
0.0467586
-0.201417
0.0434032
-0.194787
0.0402363
-0.188363
0.037194
-0.182063
0.0342881
-0.175909
0.0315006
-0.169892
0.0288349
-0.164016
0.0262857
-0.158288
0.0238476
-0.15269
0.021515
-0.147234
0.00216299
-0.256075
0.0759188
-0.248543
0.0714467
-0.241168
0.0671997
-0.233911
0.0630332
-0.226752
0.0590915
-0.219795
0.0553759
-0.212953
0.0517378
-0.206182
0.048224
-0.19959
0.0449321
-0.19312
0.0417361
-0.186819
0.0386926
-0.180636
0.0357674
-0.174594
0.0329731
-0.168687
0.0302958
-0.162916
0.0277345
-0.157286
0.0252837
-0.151781
0.022938
-0.146416
0.0206968
-0.141175
0.00216716
-0.252903
0.0774464
-0.24557
0.0729449
-0.23839
0.0686695
-0.231282
0.0645707
-0.224316
0.0605975
-0.217504
0.0568007
-0.210755
0.053178
-0.204174
0.0497291
-0.197722
0.0463562
-0.191384
0.0431953
-0.185213
0.04013
-0.179147
0.0372039
-0.173221
0.0343943
-0.167424
0.0317102
-0.161757
0.0291368
-0.156224
0.0266734
-0.150816
0.0243194
-0.145542
0.0220646
-0.140392
0.0199133
-0.135373
0.00217612
-0.249697
0.0789179
-0.24256
0.0744367
-0.235527
0.0700819
-0.228614
0.0660015
-0.221793
0.0620477
-0.215175
0.0582678
-0.208566
0.0546122
-0.202127
0.0511317
-0.195766
0.047773
-0.189614
0.0445866
-0.183541
0.0415232
-0.177604
0.0385865
-0.171786
0.0357693
-0.166103
0.0330737
-0.16054
0.030493
-0.155109
0.0280217
-0.149803
0.0256595
-0.144614
0.0233912
-0.139553
0.0212259
-0.134618
0.0191582
-0.129797
0.00218029
-0.246458
0.0802835
-0.239418
0.0757757
-0.23263
0.071539
-0.225911
0.0673791
-0.219234
0.0634423
-0.212708
0.0595813
-0.206292
0.0559934
-0.199993
0.0524776
-0.19382
0.0491851
-0.187785
0.0459436
-0.18182
0.0428661
-0.176001
0.039921
-0.170299
0.037099
-0.16473
0.0343963
-0.159274
0.0318083
-0.153941
0.0293243
-0.14873
0.0269491
-0.143636
0.0246818
-0.138664
0.0225024
-0.133812
0.0204203
-0.129069
0.0184301
-0.124449
0.00218936
-0.243087
0.0815958
-0.236291
0.0771567
-0.229646
0.0727925
-0.223073
0.0687009
-0.216589
0.0647342
-0.210204
0.0609384
-0.203978
0.057267
-0.197818
0.0538189
-0.191784
0.0504416
-0.185841
0.0472417
-0.180042
0.0441657
-0.174343
0.0412078
-0.168761
0.0383838
-0.1633
0.0356689
-0.157951
0.0330734
-0.152719
0.0305864
-0.147609
0.0282028
-0.142604
0.0259171
-0.137721
0.0237385
-0.132952
0.0216419
-0.128291
0.0196417
-0.123747
0.0177276
-0.119313
0.00218863
-0.239634
0.0828521
-0.23308
0.0783851
-0.22658
0.0740908
-0.220248
0.0699681
-0.213907
0.0660186
-0.207713
0.0622426
-0.201627
0.058588
-0.195606
0.0550551
-0.189673
0.0517082
-0.183892
0.0484929
-0.17821
0.045409
-0.17263
0.0424528
-0.167171
0.0396169
-0.161818
0.0369014
-0.156575
0.0342924
-0.151444
0.0317985
-0.146429
0.0294065
-0.141523
0.0271218
-0.136728
0.0249242
-0.132041
0.022828
-0.127471
0.0208228
-0.123003
0.0188983
-0.118644
0.017059
-0.114393
0.00219755
-0.236198
0.0841048
-0.229837
0.0796086
-0.223529
0.0753332
-0.21734
0.0711823
-0.211139
0.0672004
-0.205086
0.0633919
-0.199138
0.0597531
-0.193305
0.0562867
-0.18754
0.0529221
-0.181885
0.0497012
-0.176326
0.0466092
-0.17087
0.0436487
-0.165525
0.0408073
-0.160284
0.0380835
-0.155152
0.0354788
-0.150127
0.0329759
-0.14521
0.0305802
-0.140399
0.0282818
-0.135691
0.0260849
-0.131096
0.023979
-0.126602
0.0219588
-0.122209
0.020029
-0.117925
0.018179
-0.113748
0.0164135
-0.109666
0.00220171
-0.232731
0.0852546
-0.226512
0.0807802
-0.220395
0.0764754
-0.214347
0.0723407
-0.208334
0.0683774
-0.202472
0.0645861
-0.196712
0.0609658
-0.190967
0.0574147
-0.185328
0.0540743
-0.179818
0.0508542
-0.174389
0.0477642
-0.169058
0.0447969
-0.163829
0.0419522
-0.158704
0.0392265
-0.153677
0.0366087
-0.148756
0.0341072
-0.143938
0.0317038
-0.13922
0.0294019
-0.134605
0.0271958
-0.130091
0.0250804
-0.125679
0.0230552
-0.12137
0.0211199
-0.117165
0.019269
-0.113056
0.0174876
-0.109042
0.0157898
-0.10513
0.00220086
-0.229133
0.0863514
-0.223153
0.081896
-0.217176
0.0775606
-0.211318
0.073446
-0.205496
0.0695028
-0.199822
0.0657274
-0.194149
0.0620238
-0.188541
0.0585406
-0.183103
0.0551898
-0.177703
0.0519593
-0.172401
0.0488662
-0.167197
0.0459033
-0.16209
0.043058
-0.157077
0.0403255
-0.152161
0.0377106
-0.147344
0.0351973
-0.14262
0.0327891
-0.137994
0.0304775
-0.13347
0.0282675
-0.129048
0.0261523
-0.12472
0.0241219
-0.120491
0.0221762
-0.11636
0.0203147
-0.112319
0.018532
-0.108382
0.0168276
-0.104537
0.0151965
-0.100781
0.00220501
-0.225552
0.087395
-0.219714
0.0829117
-0.213926
0.0786463
-0.208258
0.074501
-0.202623
0.0705725
-0.197085
0.0667662
-0.191551
0.0631293
-0.186147
0.0596296
-0.180813
0.0562513
-0.175543
0.0530302
-0.170375
0.049933
-0.165294
0.0469633
-0.160303
0.0441162
-0.155399
0.0413804
-0.150593
0.0387574
-0.145879
0.0362457
-0.141258
0.0338356
-0.136731
0.0315256
-0.132303
0.0293099
-0.127965
0.0271848
-0.123717
0.0251494
-0.119568
0.0231982
-0.115515
0.0213308
-0.111546
0.0195419
-0.107676
0.0178262
-0.103897
0.0161882
-0.100207
0.0146227
-0.0966083
0.00221389
-0.221891
0.0883869
-0.216242
0.0839227
-0.210641
0.0796267
-0.20516
0.0755486
-0.199714
0.071592
-0.194265
0.0677521
-0.188915
0.0641298
-0.183647
0.0606288
-0.178457
0.0572736
-0.17334
0.0540484
-0.1683
0.0509557
-0.163345
0.0479842
-0.158469
0.0451303
-0.153681
0.0423976
-0.148989
0.0397763
-0.144378
0.0372565
-0.139854
0.0348417
-0.135422
0.0325271
-0.131085
0.0303082
-0.126834
0.0281787
-0.122671
0.0261381
-0.118605
0.0241863
-0.114624
0.0223081
-0.110734
0.0205179
-0.10693
0.0187956
-0.103222
0.0171507
-0.0995919
0.0155732
-0.0960529
0.0140673
-0.0926024
0.00221803
-0.218199
0.0893272
-0.212738
0.0848835
-0.207325
0.0806065
-0.201983
0.0764493
-0.196673
0.0725075
-0.191407
0.0687346
-0.186243
0.0650801
-0.18112
0.0616036
-0.176069
0.0582407
-0.171084
0.0550175
-0.166175
0.051923
-0.161345
0.048956
-0.156591
0.0461052
-0.151921
0.0433707
-0.147333
0.0407413
-0.142825
0.0382232
-0.138408
0.0358102
-0.134073
0.0334923
-0.129827
0.0312683
-0.125659
0.0291336
-0.121585
0.0270928
-0.117597
0.0251304
-0.113694
0.0232562
-0.10988
0.0214549
-0.106148
0.019736
-0.102506
0.0180794
-0.0989407
0.0164995
-0.095466
0.0149863
-0.0920695
0.0135344
-0.088758
0.00221716
-0.214426
0.0901649
-0.209152
0.0857415
-0.203926
0.0814849
-0.19877
0.0773936
-0.193694
0.0734707
-0.188564
0.0696643
-0.183535
0.0660271
-0.178566
0.0625255
-0.173638
0.0591723
-0.168795
0.0559514
-0.164017
0.0528601
-0.159309
0.0498864
-0.154673
0.0470388
-0.150122
0.0443061
-0.145642
0.0416798
-0.141243
0.0391585
-0.136921
0.036736
-0.132681
0.0344185
-0.128529
0.0321949
-0.124451
0.0300601
-0.120465
0.0280142
-0.116555
0.0260512
-0.11273
0.024166
-0.108987
0.0223632
-0.105326
0.0206328
-0.101749
0.0189791
-0.0982535
0.0173922
-0.094838
0.0158715
-0.0914999
0.0144167
-0.0882512
0.0130276
-0.08507
0.00222128
-0.210623
0.0910517
-0.205585
0.0865977
-0.200544
0.0823588
-0.195572
0.0782864
-0.190582
0.0742819
-0.185637
0.0705438
-0.180774
0.0669028
-0.175946
0.0634073
-0.17117
0.0600575
-0.166462
0.0568398
-0.161816
0.0537495
-0.157232
0.050784
-0.15272
0.0479333
-0.148279
0.0451952
-0.143905
0.0425694
-0.139616
0.0400535
-0.135396
0.037634
-0.131257
0.035312
-0.127194
0.0330838
-0.123205
0.0309494
-0.119302
0.0288971
-0.115475
0.0269336
-0.111726
0.0250474
-0.10806
0.0232384
-0.104469
0.0215063
-0.100962
0.0198457
-0.0975306
0.0182563
-0.0941739
0.0167281
-0.0908989
0.0152705
-0.087703
0.0138685
-0.0845787
0.0125364
-0.0815333
0.00222524
-0.206839
0.0918385
-0.201937
0.0874036
-0.19708
0.0831341
-0.192244
0.0790311
-0.187439
0.0751433
-0.182676
0.071321
-0.177959
0.0677294
-0.173293
0.0642499
-0.168664
0.0609011
-0.164094
0.0576894
-0.159572
0.0545962
-0.155117
0.0516338
-0.150724
0.0487877
-0.146399
0.0460538
-0.142142
0.0434324
-0.137955
0.0409084
-0.133831
0.0384881
-0.12979
0.0361666
-0.125823
0.0339401
-0.121921
0.0317997
-0.118101
0.0297482
-0.114356
0.0277785
-0.110688
0.0258957
-0.107093
0.0240803
-0.103577
0.0223462
-0.100139
0.0206837
-0.0967672
0.0190823
-0.0934788
0.0175612
-0.0902666
0.0160958
-0.0871232
0.0146907
-0.0840558
0.0133455
-0.0810617
0.0120647
-0.0781427
0.00222933
-0.202974
0.0925726
-0.198258
0.0881594
-0.193585
0.0839089
-0.188932
0.0798222
-0.184309
0.075901
-0.17968
0.0721471
-0.17516
0.068522
-0.170606
0.0650424
-0.166119
0.0617046
-0.161682
0.0584887
-0.157294
0.0554113
-0.152968
0.0524473
-0.148692
0.0496017
-0.144479
0.0468674
-0.140335
0.0442465
-0.136247
0.0417244
-0.132234
0.0393108
-0.128286
0.0369848
-0.124413
0.0347574
-0.120599
0.0326174
-0.116866
0.030565
-0.113208
0.0285999
-0.109616
0.0267061
-0.106091
0.0248943
-0.10265
0.0231537
-0.0992767
0.0214839
-0.0959734
0.0198899
-0.0927531
0.0183566
-0.0895936
0.0168883
-0.0865122
0.0154847
-0.0835012
0.0141361
-0.0805581
0.012842
-0.077685
0.011607
-0.0748836
0.00223326
-0.199031
0.0932095
-0.194498
0.0888127
-0.190055
0.0846295
-0.185586
0.0805631
-0.181147
0.0766595
-0.176699
0.0729204
-0.17228
0.0692669
-0.167877
0.0657933
-0.163534
0.0624577
-0.159231
0.0592541
-0.154979
0.0561737
-0.150775
0.053218
-0.146622
0.050377
-0.142525
0.0476482
-0.138492
0.0450243
-0.134513
0.0425126
-0.130599
0.0400896
-0.126752
0.0377765
-0.122971
0.035542
-0.119249
0.0334074
-0.115599
0.0313504
-0.112021
0.0293782
-0.108505
0.0274895
-0.105061
0.0256755
-0.101694
0.0239379
-0.0983892
0.0222661
-0.0951543
0.0206647
-0.0919917
0.0191285
-0.0888944
0.0176573
-0.0858697
0.0162459
-0.0829103
0.0148938
-0.0800229
0.0136009
-0.0772
0.012357
-0.0744436
0.011167
-0.0717556
0.00223248
-0.195106
0.093893
-0.190805
0.0895164
-0.186497
0.0852543
-0.18216
0.0812029
-0.1779
0.0773169
-0.173589
0.0735494
-0.169331
0.0699715
-0.165118
0.0665078
-0.160919
0.0631782
-0.156757
0.059983
-0.152631
0.056906
-0.148553
0.0539523
-0.144517
0.0511133
-0.140542
0.048394
-0.136618
0.0457743
-0.132745
0.0432559
-0.128929
0.0408433
-0.12518
0.0385182
-0.121486
0.0362917
-0.117863
0.0341562
-0.114299
0.0321068
-0.110801
0.03013
-0.107367
0.0282393
-0.103995
0.0264242
-0.100698
0.0246798
-0.0974621
0.0230108
-0.0942952
0.021407
-0.0911952
0.0198682
-0.0881599
0.0183941
-0.0851917
0.0169793
-0.0822882
0.0156238
-0.0794562
0.0143271
-0.0766834
0.0130843
-0.0739815
0.0118949
-0.0713377
0.0107491
-0.0687586
0.00223637
-0.191152
0.0944794
-0.187034
0.0901218
-0.182905
0.0859243
-0.178797
0.0818919
-0.174671
0.0779739
-0.170505
0.0742325
-0.166416
0.0706347
-0.162328
0.0671808
-0.158272
0.063861
-0.154243
0.0606642
-0.150248
0.0576005
-0.146299
0.0546515
-0.142384
0.0518194
-0.138525
0.0490958
-0.134705
0.0464807
-0.130942
0.0439713
-0.127234
0.0415606
-0.123578
0.039241
-0.119986
0.0370186
-0.116445
0.0348737
-0.112966
0.0328234
-0.109549
0.0308556
-0.106194
0.0289576
-0.102902
0.0271456
-0.0996782
0.0254043
-0.0965104
0.0237281
-0.0934062
0.0221219
-0.0903732
0.0205851
-0.0873995
0.0191078
-0.0844876
0.01769
-0.0816446
0.0163357
-0.078863
0.0150306
-0.0761401
0.0137838
-0.0734826
0.0125854
-0.0708877
0.0114449
-0.068357
0.0103475
-0.0658874
0.00224023
-0.187167
0.0950653
-0.18323
0.0906758
-0.179282
0.0864986
-0.175306
0.0824328
-0.171334
0.0785546
-0.167375
0.0748443
-0.163442
0.0712577
-0.159507
0.0678136
-0.15559
0.0644987
-0.151697
0.0613153
-0.14784
0.0582563
-0.144012
0.0553143
-0.140217
0.0524842
-0.136471
0.0497661
-0.132766
0.0471566
-0.129111
0.0446492
-0.125502
0.042239
-0.121944
0.0399262
-0.118443
0.037698
-0.114992
0.0355658
-0.111603
0.033511
-0.108268
0.0315423
-0.104992
0.0296532
-0.101779
0.0278354
-0.0986249
0.0260923
-0.0955242
0.0244181
-0.0924923
0.0228142
-0.0895211
0.0212698
-0.0866041
0.0197896
-0.0837529
0.0183731
-0.0809653
0.0170106
-0.0782339
0.0157067
-0.0755702
0.0144607
-0.0729618
0.013263
-0.0704155
0.0121133
-0.0679282
0.0110161
-0.0654967
0.00995675
-0.0631227
0.0022394
-0.18315
0.0955503
-0.179345
0.0911796
-0.175626
0.0870202
-0.17183
0.083023
-0.168037
0.0791362
-0.164238
0.0754173
-0.160443
0.0718456
-0.156655
0.0684064
-0.152876
0.0650999
-0.149124
0.0619263
-0.145394
0.0588694
-0.14169
0.0559344
-0.13802
0.0531175
-0.134395
0.0504078
-0.1308
0.0478002
-0.127247
0.0452934
-0.123742
0.0428888
-0.120283
0.0405787
-0.116874
0.0383573
-0.113515
0.0362207
-0.110212
0.0341749
-0.10696
0.0322026
-0.103762
0.0303127
-0.100624
0.0284976
-0.0975404
0.0267509
-0.0945127
0.0250808
-0.0915487
0.0234746
-0.0886392
0.0219322
-0.085788
0.0204537
-0.0829973
0.0190341
-0.080265
0.0176729
-0.0775882
0.016365
-0.0749738
0.0151103
-0.0724096
0.0139085
-0.0699117
0.0127591
-0.0674675
0.0116525
-0.0650787
0.0105981
-0.0627518
0.00958587
-0.0604737
0.00223842
-0.179057
0.0959892
-0.17548
0.0916858
-0.171941
0.0874943
-0.168322
0.0835121
-0.164677
0.0796628
-0.161057
0.0759552
-0.157414
0.0723885
-0.153774
0.0689641
-0.150141
0.065671
-0.146525
0.0625009
-0.142926
0.0594573
-0.139347
0.0565257
-0.135797
0.0537109
-0.132286
0.0510081
-0.128796
0.0484047
-0.125357
0.0459098
-0.121953
0.0435044
-0.118591
0.0411963
-0.115273
0.0389778
-0.112009
0.0368515
-0.10879
0.0347986
-0.105618
0.0328331
-0.102506
0.0309459
-0.0994395
0.0291285
-0.0964287
0.0273859
-0.0934747
0.025713
-0.090576
0.024108
-0.0877275
0.0225629
-0.0849371
0.0210813
-0.0822067
0.0196631
-0.0795292
0.0182983
-0.0769068
0.0169914
-0.0743464
0.0157375
-0.0718356
0.0145363
-0.0693811
0.0133779
-0.0669846
0.0122763
-0.0646383
0.0112122
-0.0623534
0.0101998
-0.0601171
0.00922928
-0.0579402
0.00224697
-0.174982
0.0964277
-0.171634
0.0921433
-0.168223
0.0879681
-0.164796
0.0839688
-0.161311
0.0801456
-0.157847
0.076453
-0.15436
0.0729011
-0.150867
0.0694817
-0.147375
0.0661984
-0.143895
0.0630404
-0.140425
0.0600003
-0.136975
0.0570856
-0.133549
0.0542778
-0.13015
0.0515757
-0.126774
0.0489856
-0.123437
0.046485
-0.120134
0.0440915
-0.116874
0.0417875
-0.113652
0.0395744
-0.110477
0.037446
-0.107343
0.0354036
-0.104259
0.0334395
-0.101219
0.0315465
-0.0982304
0.0297368
-0.0952983
0.0279981
-0.0924105
0.0263217
-0.0895782
0.0247152
-0.0867911
0.0231716
-0.0840658
0.0216917
-0.0813955
0.0202701
-0.0787727
0.0189065
-0.0762045
0.0175959
-0.0736928
0.0163379
-0.0712305
0.0151324
-0.0688238
0.0139791
-0.066475
0.0128683
-0.0641758
0.0118137
-0.0619328
0.0107915
-0.0597331
0.00981575
-0.0575925
0.00888156
-0.0554981
0.00224605
-0.170877
0.0968176
-0.167708
0.0925012
-0.164472
0.0883919
-0.161243
0.0844152
-0.157929
0.0805871
-0.154613
0.0769107
-0.151277
0.0733701
-0.147935
0.0699691
-0.144588
0.0666944
-0.141242
0.0635461
-0.137901
0.0605168
-0.134576
0.0576019
-0.131268
0.0548048
-0.127982
0.0521096
-0.124723
0.0495251
-0.121493
0.0470414
-0.118296
0.0446471
-0.115126
0.0423438
-0.111999
0.0401349
-0.108914
0.0380107
-0.105868
0.035971
-0.102863
0.0340075
-0.0999053
0.0321258
-0.096999
0.0303152
-0.0941345
0.028573
-0.0913179
0.0269055
-0.0885517
0.0252952
-0.0858345
0.0237586
-0.0831697
0.0222755
-0.0805543
0.0208505
-0.0779906
0.019488
-0.0754764
0.0181784
-0.0730182
0.0169213
-0.0706089
0.0157163
-0.0682499
0.0145585
-0.0659437
0.0134478
-0.0636864
0.0123789
-0.0614803
0.0113613
-0.0593267
0.0103852
-0.0572222
0.00944549
-0.0551683
0.00855171
-0.0531616
0.00224973
-0.166786
0.0972086
-0.1638
0.0929097
-0.16076
0.0887896
-0.157666
0.0848142
-0.154516
0.0810024
-0.15136
0.0773347
-0.148174
0.0738076
-0.144981
0.0704165
-0.141769
0.0671503
-0.138563
0.0640155
-0.135351
0.0609959
-0.132155
0.0580953
-0.128968
0.0553016
-0.125799
0.0526221
-0.122652
0.0500383
-0.119523
0.0475552
-0.116422
0.0451666
-0.113356
0.0428773
-0.110328
0.0406726
-0.107333
0.0385539
-0.10437
0.0365135
-0.101449
0.0345576
-0.098573
0.0326751
-0.0957357
0.0308624
-0.0929472
0.0291279
-0.0902003
0.0274555
-0.0875003
0.0258541
-0.0848484
0.0243091
-0.082244
0.0228329
-0.0796928
0.021414
-0.0771832
0.020043
-0.0747227
0.0187343
-0.0723177
0.017478
-0.0699563
0.0162687
-0.0676448
0.0151112
-0.0653857
0.0140006
-0.0631751
0.0129365
-0.0610154
0.0119139
-0.058898
0.0109326
-0.0568295
0.0099924
-0.0548111
0.00908835
-0.0528395
0.00822969
-0.0509207
0.00224862
-0.162635
0.0974542
-0.159812
0.0932212
-0.156963
0.0891125
-0.154043
0.0851669
-0.151079
0.0813764
-0.148083
0.0777249
-0.145052
0.0742127
-0.142004
0.0708301
-0.138936
0.0675837
-0.135863
0.0644498
-0.132779
0.0614436
-0.129709
0.0585501
-0.126641
0.0557685
-0.123589
0.053091
-0.120548
0.0505178
-0.117529
0.0480439
-0.114532
0.0456658
-0.111566
0.0433759
-0.108627
0.0411768
-0.105721
0.0390609
-0.102846
0.0370296
-0.100008
0.0350717
-0.0972087
0.0331933
-0.0944537
0.0313932
-0.09174
0.0296552
-0.0890606
0.0279882
-0.0864303
0.0263855
-0.0838432
0.0248489
-0.0813031
0.0233682
-0.0788064
0.0219465
-0.0763507
0.0205815
-0.0739532
0.0192735
-0.0715964
0.018013
-0.0692826
0.0168043
-0.0670233
0.0156471
-0.064811
0.0145364
-0.0626421
0.0134675
-0.0605188
0.0124399
-0.0584424
0.0114583
-0.0564144
0.0105175
-0.0544362
0.00961747
-0.0525045
0.00875328
-0.0506107
0.00791972
-0.0487659
0.00225233
-0.158481
0.0977479
-0.155852
0.0934941
-0.153163
0.0894215
-0.150423
0.0854922
-0.147623
0.0817116
-0.144781
0.078075
-0.141906
0.0745791
-0.139001
0.0712101
-0.136077
0.0679709
-0.133136
0.0648567
-0.130191
0.0618613
-0.127242
0.0589762
-0.124296
0.0562052
-0.121359
0.0535384
-0.118428
0.0509709
-0.115515
0.048504
-0.112622
0.0461338
-0.109751
0.0438508
-0.106907
0.041656
-0.104087
0.039543
-0.101301
0.0375159
-0.0985485
0.0355706
-0.095832
0.033695
-0.0931483
0.0318879
-0.0905008
0.030154
-0.0878961
0.0284906
-0.0853307
0.0268885
-0.0828096
0.0253519
-0.080328
0.0238738
-0.0778956
0.0224574
-0.0754977
0.0210935
-0.0731534
0.0197818
-0.0708493
0.0185265
-0.0685878
0.0173182
-0.0663758
0.0161567
-0.0642052
0.0150414
-0.0620827
0.0139771
-0.0600053
0.012954
-0.0579743
0.0119718
-0.0559819
0.0110258
-0.0540389
0.0101202
-0.052142
0.00925496
-0.0502827
0.00842525
-0.0484722
0.00762602
-0.0467016
0.00225113
-0.154303
0.0979433
-0.151858
0.0937531
-0.149357
0.0896882
-0.146781
0.0857801
-0.144151
0.0820195
-0.141469
0.0783991
-0.13874
0.0749091
-0.135982
0.0715599
-0.133201
0.0683342
-0.130394
0.0652285
-0.127579
0.0622453
-0.124753
0.0593723
-0.121927
0.056607
-0.1191
0.053946
-0.11628
0.0513904
-0.113477
0.0489328
-0.110688
0.0465696
-0.107911
0.0442945
-0.105164
0.0421075
-0.102436
0.040005
-0.0997388
0.0379807
-0.0970624
0.0360298
-0.0944234
0.034162
-0.0918194
0.0323661
-0.0892528
0.0306399
-0.0867179
0.0289758
-0.0842186
0.0273786
-0.081761
0.0258399
-0.0793441
0.024368
-0.0769643
0.0229426
-0.0746249
0.0215845
-0.0723382
0.0202783
-0.0700866
0.019019
-0.0678724
0.0178111
-0.065712
0.0166544
-0.0635876
0.0155391
-0.0615065
0.0144652
-0.05947
0.0134418
-0.0574747
0.0124544
-0.0555273
0.0115172
-0.0536241
0.010611
-0.0517619
0.00974008
-0.0499323
0.00890456
-0.0481557
0.00810879
-0.0464189
0.00734331
-0.0447229
0.00224988
-0.150137
0.098189
-0.147884
0.0939699
-0.14553
0.0899261
-0.143128
0.0860344
-0.14066
0.08229
-0.138131
0.0786819
-0.135559
0.075218
-0.13295
0.0718774
-0.130305
0.0686639
-0.127633
0.065574
-0.12495
0.0625992
-0.122245
0.0597369
-0.119539
0.0569851
-0.116833
0.054341
-0.114123
0.0517898
-0.111423
0.0493366
-0.108733
0.0469777
-0.106054
0.0447118
-0.1034
0.0425304
-0.100761
0.0404321
-0.0981446
0.0384108
-0.0955592
0.0364775
-0.0930012
0.0346076
-0.0904733
0.0328159
-0.0879717
0.0310849
-0.0855066
0.0294285
-0.083077
0.0278341
-0.0806877
0.0263053
-0.0783342
0.0248299
-0.0760128
0.0234165
-0.0737365
0.0220542
-0.0714976
0.0207439
-0.0692935
0.0194852
-0.067136
0.0182826
-0.0650222
0.0171213
-0.0629442
0.016011
-0.060909
0.0149416
-0.0589179
0.0139131
-0.0569629
0.01293
-0.0550555
0.0119826
-0.0531824
0.0110755
-0.0513547
0.0102038
-0.0495641
0.00937189
-0.0478261
0.00857495
-0.0461181
0.00780797
-0.0444507
0.00707106
-0.0428249
0.00225329
-0.145939
0.0983257
-0.143846
0.0941507
-0.141692
0.0901317
-0.139455
0.0862536
-0.13715
0.0825241
-0.134782
0.0789408
-0.132359
0.075482
-0.129892
0.0721599
-0.127388
0.0689599
-0.124853
0.0658834
-0.122296
0.0629194
-0.119721
0.0600756
-0.117134
0.0573318
-0.114537
0.0546885
-0.111935
0.0521529
-0.109344
0.0497103
-0.106758
0.047362
-0.104178
0.0451018
-0.101615
0.0429269
-0.0990668
0.0408366
-0.0965417
0.0388293
-0.0940388
0.0368904
-0.0915521
0.0350283
-0.0891038
0.0332381
-0.0866769
0.0315211
-0.0842864
0.0298648
-0.0819203
0.0282719
-0.0795958
0.0267423
-0.0773008
0.0252719
-0.0750415
0.0238586
-0.0728181
0.0224982
-0.0706372
0.0211938
-0.0684899
0.0199403
-0.0663839
0.0187331
-0.0643115
0.017572
-0.0622845
0.0164616
-0.06029
0.015392
-0.0583442
0.014368
-0.0564296
0.0133798
-0.054557
0.0124316
-0.0527282
0.0115285
-0.0509349
0.0106558
-0.0491831
0.00982279
-0.0474693
0.0090151
-0.04579
0.00824689
-0.0441558
0.00751308
-0.0425627
0.00680886
-0.040998
0.00225205
-0.141729
0.0984606
-0.13982
0.0943
-0.137835
0.0902937
-0.135771
0.086448
-0.133634
0.0827371
-0.131417
0.0791589
-0.129145
0.0757271
-0.126828
0.0724172
-0.124465
0.0692371
-0.122066
0.0661728
-0.119634
0.0632223
-0.117183
0.0603816
-0.114711
0.0576525
-0.112229
0.0550235
-0.109741
0.0524937
-0.107252
0.0500617
-0.104769
0.0477214
-0.102285
0.0454691
-0.0998145
0.0433012
-0.0973537
0.0412138
-0.0949146
0.0392094
-0.0924927
0.0372833
-0.0900893
0.0354276
-0.0877158
0.0336403
-0.085365
0.0319262
-0.0830381
0.0302727
-0.0807466
0.028691
-0.0784842
0.0271602
-0.0762512
0.0256927
-0.0740517
0.0242821
-0.0718867
0.0229272
-0.0697612
0.0216222
-0.0676657
0.0203696
-0.0656063
0.0191628
-0.063585
0.0180066
-0.0616037
0.0168912
-0.0596548
0.0158263
-0.0577492
0.014797
-0.0558745
0.0138129
-0.0540463
0.012869
-0.0522521
0.0119555
-0.050493
0.0110865
-0.0487798
0.0102525
-0.0470949
0.00944839
-0.0454536
0.0086787
-0.0438523
0.00794338
-0.0422825
0.00723289
-0.0407454
0.00655634
-0.0392559
0.00225529
-0.137488
0.0985605
-0.135772
0.0944121
-0.133974
0.0904383
-0.132075
0.0865976
-0.130093
0.0829079
-0.128038
0.0793581
-0.125922
0.075935
-0.123745
0.0726449
-0.121517
0.0694693
-0.119247
0.0664186
-0.11695
0.0634888
-0.114622
0.0606615
-0.112271
0.0579419
-0.109901
0.055325
-0.107527
0.0528094
-0.105145
0.0503868
-0.102755
0.0480473
-0.100373
0.0458091
-0.0979933
0.0436478
-0.0956234
0.041571
-0.0932753
0.0395745
-0.0909332
0.0376499
-0.0886108
0.0358048
-0.086312
0.0340239
-0.0840346
0.0323099
-0.0817761
0.0306642
-0.079553
0.0290792
-0.0773505
0.0275574
-0.075181
0.02609
-0.0730434
0.0246844
-0.0709329
0.0233282
-0.0688608
0.0220268
-0.0668168
0.0207732
-0.064813
0.0195763
-0.0628425
0.0184203
-0.060907
0.0173098
-0.0590033
0.0162397
-0.0571377
0.0152148
-0.0553077
0.0142302
-0.053519
0.0132856
-0.051759
0.0123759
-0.0500387
0.0115012
-0.0483546
0.0106612
-0.0467077
0.00986532
-0.0450995
0.00909432
-0.0435263
0.00835274
-0.0419797
0.00764055
-0.0404795
0.00696698
-0.0390127
0.00631308
-0.0375752
0.00225378
-0.133266
0.0986155
-0.131721
0.0945103
-0.130103
0.090542
-0.128367
0.0867297
-0.126549
0.0830536
-0.124649
0.0795187
-0.122678
0.0761141
-0.120647
0.0728363
-0.118557
0.0696855
-0.116428
0.0666505
-0.114258
0.0637266
-0.112045
0.0609115
-0.109817
0.0582076
-0.107559
0.0556
-0.105292
0.0530903
-0.103014
0.0506783
-0.100729
0.0483615
-0.0984433
0.0461179
-0.0961563
0.0439722
-0.0938824
0.0419068
-0.091614
0.0399097
-0.0893517
0.037993
-0.087109
0.0361481
-0.0848836
0.0343764
-0.0826809
0.0326702
-0.0804971
0.0310309
-0.0783361
0.0294474
-0.076202
0.0279306
-0.074098
0.0264744
-0.0720175
0.0250641
-0.0699654
0.023717
-0.0679504
0.0224178
-0.0659613
0.0211713
-0.0640043
0.0199645
-0.0620795
0.0188133
-0.0601893
0.0177026
-0.0583305
0.016637
-0.0565099
0.0156119
-0.0547193
0.0146264
-0.0529698
0.013681
-0.0512488
0.0127754
-0.0495672
0.0119045
-0.0479166
0.0110632
-0.046303
0.0102566
-0.0447232
0.00948894
-0.0431779
0.00874593
-0.0416684
0.00804148
-0.0401957
0.00735671
-0.0387466
0.00670089
-0.0373407
0.00607857
-0.0359696
0.00225684
-0.12902
0.0986504
-0.12767
0.0945637
-0.12621
0.090617
-0.124649
0.0868246
-0.122993
0.0831733
-0.121252
0.079657
-0.11943
0.0762709
-0.117543
0.0730103
-0.115593
0.0698717
-0.113592
0.0668489
-0.111546
0.0639384
-0.109461
0.0611427
-0.107349
0.0584432
-0.105204
0.0558527
-0.10305
0.0533586
-0.100879
0.0509547
-0.0986898
0.0486387
-0.096496
0.0464143
-0.0943086
0.0442702
-0.0921193
0.0422092
-0.0899308
0.0402235
-0.087758
0.038316
-0.085595
0.036479
-0.0834493
0.0347137
-0.081315
0.0330105
-0.0792045
0.0313777
-0.0771106
0.0298054
-0.0750434
0.0282888
-0.072998
0.0268306
-0.0709747
0.0254315
-0.0689845
0.0240832
-0.0670189
0.0227855
-0.0650819
0.0215385
-0.0631749
0.0203419
-0.0613007
0.0191857
-0.0594557
0.0180797
-0.0576418
0.0170139
-0.0558657
0.0159928
-0.0541192
0.0150118
-0.0524042
0.0140607
-0.050722
0.0131541
-0.049074
0.0122821
-0.0474615
0.0114494
-0.0458813
0.0106414
-0.0443341
0.00986749
-0.0428167
0.00912769
-0.0413394
0.00841694
-0.0398893
0.00773507
-0.0384719
0.007082
-0.0370975
0.00645763
-0.0357436
0.00585255
-0.034425
0.00225527
-0.124775
0.0986539
-0.123591
0.0945722
-0.122311
0.0906646
-0.120926
0.0868934
-0.119428
0.0832593
-0.117842
0.0797629
-0.116168
0.0763954
-0.114419
0.073147
-0.112608
0.0700255
-0.110745
0.0670248
-0.108826
0.0641288
-0.106863
0.0613403
-0.104864
0.0586579
-0.102838
0.0560768
-0.100789
0.0535908
-0.0987178
0.0511976
-0.0966296
0.0488945
-0.0945416
0.0466843
-0.0924439
0.0445496
-0.0903407
0.0424915
-0.0882417
0.0405201
-0.0861549
0.0386204
-0.0840702
0.0367912
-0.0819979
0.0350276
-0.0799357
0.0333344
-0.0778923
0.0316982
-0.0758619
0.0301289
-0.0738617
0.0286236
-0.0718782
0.0271691
-0.0699156
0.0257716
-0.0679811
0.0244282
-0.0660677
0.023132
-0.0641864
0.02189
-0.0623299
0.0206935
-0.0605015
0.0195427
-0.0587064
0.0184364
-0.056937
0.017375
-0.0552052
0.0163533
-0.0534979
0.0153716
-0.0518219
0.0144295
-0.0501831
0.0135219
-0.0485687
0.0126488
-0.0469893
0.01181
-0.045442
0.0110101
-0.0439275
0.0102348
-0.0424426
0.00949347
-0.0409928
0.00878107
-0.0395698
0.0080975
-0.038184
0.00744722
-0.0368316
0.00681616
-0.0355041
0.00621809
-0.0342116
0.00563912
-0.0329504
0.00225811
-0.120519
0.0986189
-0.119525
0.0945874
-0.118424
0.0906849
-0.117193
0.0869323
-0.115854
0.0833194
-0.114421
0.0798388
-0.112895
0.0764898
-0.11129
0.0732663
-0.109622
0.0701606
-0.107885
0.0671659
-0.106088
0.064287
-0.104255
0.0615205
-0.102377
0.0588525
-0.100461
0.0562809
-0.0985173
0.0538056
-0.0965537
0.0514267
-0.0945663
0.0491343
-0.092573
0.0469259
-0.0905599
0.0448004
-0.0885512
0.0427601
-0.0865418
0.0407917
-0.0845271
0.0388923
-0.0825208
0.037071
-0.0805206
0.0353139
-0.078538
0.0336299
-0.076563
0.0320051
-0.0746045
0.0304409
-0.0726651
0.0289323
-0.0707402
0.0274856
-0.0688395
0.0260931
-0.0669657
0.0247561
-0.065108
0.0234684
-0.0632809
0.0222265
-0.0614703