/*--------------------------------*- C++ -*----------------------------------*\
  =========                 |
  \\      /  F ield         | OpenFOAM: The Open Source CFD Toolbox
   \\    /   O peration     | Website:  https://openfoam.org
    \\  /    A nd           | Version:  7
     \\/     M anipulation  |
\*---------------------------------------------------------------------------*/
FoamFile
{
    version     2.0;
    format      ascii;
    class       volVectorField;
    location    "2000";
    object      U;
}
// * * * * * * * * * * * * * * * * * * * * * * * * * * * * * * * * * * * * * //

dimensions      [0 1 -1 0 0 0 0];

internalField   nonuniform List<vector> 
23052
(
(49.5447 12.9157 -3.18611e-17)
(49.5799 12.9403 0)
(49.6392 13.1076 1.30463e-17)
(49.6051 12.9662 0)
(49.6311 13.1047 5.19195e-17)
(49.5988 13.1037 6.92388e-18)
(49.6201 12.9921 1.35757e-17)
(49.6293 13.1073 5.99308e-19)
(49.6108 13.1156 -7.34644e-18)
(49.6071 13.0961 2.35052e-17)
(49.6303 13.0168 9.6994e-17)
(49.6317 13.1134 -8.03715e-17)
(49.6186 13.1259 -1.45179e-17)
(49.6064 13.1035 1.55655e-17)
(49.5936 13.1017 8.33058e-18)
(49.5823 13.0927 9.03261e-18)
(49.6372 13.0397 -2.25841e-18)
(49.635 13.1215 0)
(49.624 13.1357 -9.66108e-17)
(49.6074 13.1123 1.51241e-17)
(49.5948 13.1105 2.48158e-17)
(49.5799 13.1016 2.66623e-17)
(49.5597 13.0885 -2.30683e-18)
(49.5401 13.0805 0)
(49.6421 13.061 1.80253e-17)
(49.6384 13.1307 1.30722e-16)
(49.6281 13.1454 1.10214e-16)
(49.6093 13.1219 -6.1765e-17)
(49.5956 13.1192 -1.32294e-16)
(49.579 13.1109 -7.12517e-17)
(49.559 13.0987 9.49336e-18)
(49.5389 13.0861 -2.56785e-18)
(49.5134 13.076 1.54433e-21)
(49.6458 13.0806 -1.32563e-16)
(49.6414 13.1404 -1.30604e-16)
(49.6314 13.1551 -5.55401e-17)
(49.6114 13.1317 4.61427e-17)
(49.5963 13.1281 -1.64456e-17)
(49.5786 13.1204 5.35323e-17)
(49.5582 13.1087 -9.74775e-18)
(49.5367 13.0964 0)
(49.5125 13.082 0)
(49.486 13.0718 0)
(49.6486 13.0987 1.98127e-17)
(49.644 13.1502 0)
(49.6342 13.1647 2.71289e-17)
(49.6133 13.1417 2.94858e-17)
(49.5971 13.1372 -4.88727e-17)
(49.5785 13.1299 -5.29888e-17)
(49.5574 13.1186 -9.50019e-17)
(49.5352 13.1068 -2.05326e-17)
(49.5106 13.0932 0)
(49.4848 13.0781 -2.41369e-17)
(49.4555 13.0671 -2.91806e-20)
(49.651 13.1154 -2.57271e-16)
(49.6461 13.1599 0)
(49.6366 13.1742 0)
(49.6151 13.1518 -1.21033e-16)
(49.5978 13.1464 1.47108e-16)
(49.5786 13.1395 8.8134e-17)
(49.5568 13.1286 7.60963e-17)
(49.5339 13.1172 -4.0831e-17)
(49.509 13.1042 -1.09257e-17)
(49.4825 13.0897 3.62887e-17)
(49.4543 13.0737 -2.93414e-17)
(49.4233 13.0623 2.65442e-20)
(49.6531 13.1308 2.06959e-16)
(49.6478 13.1694 0)
(49.6386 13.1835 -1.86026e-16)
(49.6168 13.1617 9.04691e-17)
(49.5986 13.1557 0)
(49.5787 13.149 1.22093e-16)
(49.5564 13.1385 -1.85916e-17)
(49.5328 13.1275 8.17907e-17)
(49.5075 13.1152 0)
(49.4806 13.1013 5.99045e-17)
(49.452 13.086 1.31959e-17)
(49.4221 13.0693 7.03262e-18)
(49.3891 13.0574 0)
(49.6549 13.1451 -3.9918e-17)
(49.6491 13.1786 5.56853e-17)
(49.6403 13.1925 -2.67708e-17)
(49.6182 13.1716 -2.89989e-17)
(49.5993 13.165 3.18795e-17)
(49.5789 13.1585 -6.38836e-19)
(49.556 13.1484 1.501e-16)
(49.532 13.1378 -2.0659e-17)
(49.5062 13.126 -8.77223e-17)
(49.4789 13.1127 -1.53306e-19)
(49.45 13.0981 5.18884e-17)
(49.4196 13.0821 0)
(49.3878 13.0648 -3.72824e-18)
(49.3532 13.0525 0)
(49.6567 13.1583 -2.52634e-16)
(49.6503 13.1875 0)
(49.6418 13.2013 1.85923e-16)
(49.6195 13.1812 2.88878e-17)
(49.6 13.1742 0)
(49.5791 13.1679 -2.76779e-16)
(49.5558 13.1582 -1.50091e-16)
(49.5313 13.148 2.05659e-17)
(49.5051 13.1368 1.09149e-16)
(49.4774 13.1241 -7.14891e-17)
(49.4482 13.1101 -1.70646e-19)
(49.4175 13.0949 -6.91466e-17)
(49.3853 13.0783 7.67494e-18)
(49.3519 13.0603 2.05168e-17)
(49.3155 13.0476 -3.96161e-20)
(49.6584 13.1706 -4.82906e-17)
(49.6513 13.196 -5.15655e-17)
(49.6431 13.2097 2.75471e-17)
(49.6206 13.1906 5.90122e-17)
(49.6006 13.1833 0)
(49.5794 13.1772 6.84612e-19)
(49.5557 13.1679 0)
(49.5307 13.1582 -1.60734e-16)
(49.5042 13.1475 -8.61599e-17)
(49.4761 13.1354 2.39609e-17)
(49.4466 13.1221 -1.40777e-16)
(49.4156 13.1075 1.246e-16)
(49.3832 13.0916 4.45907e-17)
(49.3493 13.0744 -1.6008e-17)
(49.3142 13.0558 -8.84826e-18)
(49.2762 13.0428 4.3912e-20)
(49.66 13.1819 2.52462e-16)
(49.6522 13.2042 2.1247e-16)
(49.6442 13.2178 5.37268e-17)
(49.6216 13.1997 -2.8704e-17)
(49.6012 13.1923 -3.1498e-17)
(49.5797 13.1865 1.72586e-16)
(49.5556 13.1776 -3.77401e-17)
(49.5302 13.1682 7.63631e-19)
(49.5034 13.158 1.0889e-16)
(49.475 13.1465 7.04781e-17)
(49.4452 13.1339 7.6724e-17)
(49.4139 13.12 -4.15606e-17)
(49.3812 13.1048 -1.18725e-16)
(49.3471 13.0883 7.6701e-18)
(49.3116 13.0705 -8.6372e-18)
(49.2749 13.0513 4.69356e-18)
(49.2353 13.038 -4.62426e-20)
(49.6616 13.1925 -2.08991e-16)
(49.6531 13.212 -2.09604e-16)
(49.6451 13.2255 1.08616e-16)
(49.6225 13.2085 -3.00403e-17)
(49.6017 13.2011 2.54229e-16)
(49.58 13.1956 1.36471e-16)
(49.5556 13.1871 -2.21513e-16)
(49.5299 13.1782 1.9948e-16)
(49.5028 13.1685 -1.72169e-16)
(49.4741 13.1576 -1.40253e-16)
(49.444 13.1456 2.57006e-17)
(49.4125 13.1324 -8.13471e-17)
(49.3795 13.1179 7.45179e-17)
(49.3452 13.1022 -1.58198e-17)
(49.3095 13.0851 2.63787e-17)
(49.2723 13.0667 0)
(49.2341 13.0469 1.53491e-17)
(49.1929 13.0333 5.12592e-20)
(49.6633 13.2023 2.59997e-16)
(49.6538 13.2195 0)
(49.646 13.233 5.47884e-17)
(49.6234 13.2171 -2.6241e-16)
(49.6023 13.2098 -2.55837e-16)
(49.5803 13.2045 -1.71436e-16)
(49.5557 13.1966 2.94687e-16)
(49.5297 13.1881 -1.26876e-18)
(49.5023 13.1789 8.79704e-19)
(49.4733 13.1686 0)
(49.443 13.1572 2.47429e-17)
(49.4112 13.1446 8.23475e-17)
(49.378 13.1309 -4.40429e-17)
(49.3434 13.1159 -6.3314e-17)
(49.3075 13.0996 0)
(49.2702 13.082 -1.02488e-19)
(49.2314 13.063 -1.00923e-17)
(49.1916 13.0426 5.71103e-18)
(49.1489 13.0286 -5.40221e-20)
(49.6649 13.2115 -3.23168e-16)
(49.6546 13.2267 1.54945e-16)
(49.6468 13.2401 0)
(49.6242 13.2254 4.13464e-16)
(49.6028 13.2183 -3.12334e-17)
(49.5806 13.2133 6.81498e-17)
(49.5558 13.2058 3.5292e-17)
(49.5295 13.1978 0)
(49.5019 13.1891 2.13879e-16)
(49.4727 13.1794 -1.84628e-16)
(49.4421 13.1686 0)
(49.4101 13.1567 -1.08136e-16)
(49.3767 13.1437 0)
(49.3419 13.1294 9.56707e-17)
(49.3057 13.1139 3.43711e-17)
(49.2682 13.0971 -1.12459e-16)
(49.2293 13.079 7.11041e-17)
(49.189 13.0595 -2.19146e-17)
(49.1476 13.0384 -3.00311e-17)
(49.1033 13.0241 -2.10053e-21)
(49.6665 13.22 4.57846e-16)
(49.6554 13.2335 -2.13728e-16)
(49.6475 13.2469 0)
(49.625 13.2334 5.82408e-17)
(49.6033 13.2265 0)
(49.5809 13.2219 -3.44724e-17)
(49.556 13.215 -1.45674e-16)
(49.5295 13.2074 1.57568e-16)
(49.5016 13.1993 0)
(49.4722 13.1901 1.84898e-16)
(49.4414 13.1799 0)
(49.4092 13.1687 8.07286e-17)
(49.3756 13.1564 -2.97517e-17)
(49.3406 13.1429 3.2258e-17)
(49.3042 13.1281 -1.54352e-16)
(49.2664 13.1121 1.86467e-17)
(49.2273 13.0948 -6.12438e-17)
(49.1869 13.0761 5.52072e-17)
(49.145 13.056 -2.08403e-19)
(49.102 13.0344 1.96923e-17)
(49.0562 13.0197 1.24004e-19)
(49.6682 13.228 -3.69484e-16)
(49.6562 13.24 -4.72476e-16)
(49.6482 13.2534 -2.65762e-16)
(49.6257 13.2411 -1.47284e-18)
(49.6038 13.2345 -3.02047e-17)
(49.5813 13.2304 0)
(49.5562 13.2239 7.30267e-17)
(49.5295 13.2168 -1.96786e-16)
(49.5014 13.2093 0)
(49.4718 13.2007 0)
(49.4408 13.1912 -1.9806e-16)
(49.4084 13.1806 2.73423e-17)
(49.3746 13.169 -8.74488e-17)
(49.3394 13.1562 6.3115e-17)
(49.3029 13.1422 3.49178e-17)
(49.2649 13.127 9.32748e-17)
(49.2256 13.1105 0)
(49.1849 13.0926 -2.23537e-17)
(49.1429 13.0734 4.75203e-17)
(49.0995 13.0527 1.2725e-17)
(49.0549 13.0304 -1.38523e-17)
(49.0074 13.0153 6.65678e-21)
(49.6698 13.2355 4.13671e-16)
(49.657 13.2462 8.96074e-16)
(49.6489 13.2596 3.35478e-19)
(49.6264 13.2485 -2.34731e-16)
(49.6043 13.2423 2.83329e-16)
(49.5817 13.2386 2.0152e-16)
(49.5564 13.2327 0)
(49.5296 13.2262 1.17856e-16)
(49.5013 13.2191 0)
(49.4716 13.2112 1.35901e-16)
(49.4404 13.2022 3.95691e-16)
(49.4078 13.1923 0)
(49.3738 13.1814 8.76839e-17)
(49.3385 13.1693 0)
(49.3017 13.1561 -1.69231e-16)
(49.2636 13.1417 0)
(49.2241 13.126 -1.97003e-17)
(49.1832 13.109 0)
(49.141 13.0906 -5.94749e-17)
(49.0974 13.0708 -1.31143e-17)
(49.0523 13.0495 0)
(49.0061 13.0266 -7.77151e-18)
(48.957 13.0111 -7.11561e-20)
(49.6715 13.2424 7.87246e-18)
(49.6578 13.2522 -8.45454e-16)
(49.6496 13.2655 1.59124e-16)
(49.6272 13.2556 5.69405e-17)
(49.6048 13.2499 -2.52606e-16)
(49.5821 13.2467 -3.03638e-16)
(49.5567 13.2413 -2.53576e-16)
(49.5297 13.2353 -3.13155e-16)
(49.5014 13.2288 0)
(49.4715 13.2215 -1.82975e-16)
(49.4401 13.2132 -3.45726e-16)
(49.4074 13.204 2.12568e-16)
(49.3732 13.1937 0)
(49.3377 13.1824 1.24641e-16)
(49.3008 13.1699 1.70335e-16)
(49.2625 13.1563 0)
(49.2228 13.1414 7.9552e-17)
(49.1818 13.1252 1.08463e-16)
(49.1393 13.1077 2.39749e-17)
(49.0955 13.0888 1.25689e-17)
(49.0503 13.0684 -5.09258e-19)
(49.0036 13.0464 0)
(48.9557 13.0229 -1.67692e-17)
(48.905 13.007 -7.98455e-20)
(49.6731 13.2489 4.49076e-16)
(49.6587 13.2579 4.21952e-16)
(49.6502 13.2712 -2.66955e-16)
(49.6279 13.2624 0)
(49.6054 13.2573 6.36594e-17)
(49.5825 13.2545 3.41559e-17)
(49.5571 13.2498 2.90639e-16)
(49.53 13.2443 4.28147e-16)
(49.5015 13.2384 0)
(49.4715 13.2316 -1.81168e-16)
(49.44 13.224 1.97061e-16)
(49.4071 13.2154 -2.83553e-17)
(49.3728 13.2059 0)
(49.3371 13.1953 -1.24829e-16)
(49.3001 13.1835 0)
(49.2616 13.1707 -3.59572e-17)
(49.2218 13.1566 -5.93453e-17)
(49.1805 13.1413 -8.63632e-17)
(49.1379 13.1246 -2.29967e-17)
(49.0938 13.1066 -8.87015e-17)
(49.0484 13.0871 0)
(49.0015 13.0661 1.47841e-17)
(48.9532 13.0435 1.64106e-17)
(48.9037 13.0193 1.78582e-17)
(48.8512 13.0029 -3.13758e-21)
(49.6748 13.255 4.53171e-17)
(49.6596 13.2633 0)
(49.6509 13.2766 5.29944e-16)
(49.6286 13.269 5.69192e-17)
(49.6059 13.2644 0)
(49.583 13.2621 1.67128e-16)
(49.5575 13.258 -7.23063e-17)
(49.5303 13.2531 -3.12606e-16)
(49.5017 13.2478 4.13524e-17)
(49.4716 13.2417 3.624e-16)
(49.44 13.2347 0)
(49.407 13.2268 -2.39262e-16)
(49.3726 13.2179 -2.00092e-16)
(49.3367 13.208 0)
(49.2995 13.197 -3.41933e-17)
(49.2609 13.185 0)
(49.2209 13.1717 0)
(49.1795 13.1572 6.44329e-17)
(49.1367 13.1414 9.28683e-17)
(49.0925 13.1243 1.51622e-16)
(49.0468 13.1057 2.7521e-17)
(48.9997 13.0857 0)
(48.9512 13.0641 -1.6588e-17)
(48.9011 13.0408 -4.44021e-17)
(48.8499 13.0158 -9.48185e-18)
(48.7957 12.999 -3.39608e-21)
(49.6765 13.2607 -8.06376e-16)
(49.6605 13.2685 -5.42912e-17)
(49.6516 13.2818 -2.4873e-18)
(49.6294 13.2754 3.48168e-16)
(49.6065 13.2714 0)
(49.5835 13.2696 -2.35025e-16)
(49.558 13.2661 3.22776e-16)
(49.5307 13.2618 3.47782e-16)
(49.502 13.2571 0)
(49.4718 13.2515 -1.81317e-16)
(49.4401 13.2452 -2.44056e-16)
(49.407 13.2379 5.36535e-17)
(49.3724 13.2298 2.56973e-16)
(49.3365 13.2206 3.14293e-17)
(49.2992 13.2104 3.40519e-17)
(49.2604 13.1991 7.2561e-17)
(49.2203 13.1866 1.16747e-16)
(49.1787 13.173 -2.3399e-16)
(49.1357 13.1581 -1.6167e-16)
(49.0913 13.1418 -5.02156e-19)
(49.0455 13.1242 0)
(48.9981 13.1051 4.47223e-17)
(48.9494 13.0844 -8.10372e-17)
(48.8992 13.0622 5.25708e-17)
(48.8474 13.0382 -2.88489e-17)
(48.7944 13.0125 -1.57459e-17)
(48.7383 12.9952 1.98351e-19)
(49.6781 13.266 4.66367e-18)
(49.6615 13.2734 3.68939e-16)
(49.6523 13.2868 -8.54463e-16)
(49.6301 13.2814 -2.33655e-16)
(49.6072 13.2781 1.87872e-16)
(49.584 13.2768 0)
(49.5585 13.274 -3.60877e-16)
(49.5312 13.2703 -2.42614e-18)
(49.5024 13.2662 0)
(49.4721 13.2613 0)
(49.4403 13.2555 2.44704e-16)
(49.4071 13.249 5.17309e-17)
(49.3725 13.2415 1.70616e-16)
(49.3365 13.2331 3.13114e-17)
(49.299 13.2236 1.15364e-18)
(49.2601 13.2131 -3.54982e-17)
(49.2199 13.2014 -3.9428e-17)
(49.1782 13.1886 6.43593e-17)
(49.135 13.1745 6.97892e-17)
(49.0904 13.1592 -1.24985e-16)
(49.0444 13.1424 -8.07953e-17)
(48.9968 13.1243 -5.92712e-17)
(48.9479 13.1046 4.80661e-17)
(48.8974 13.0834 -5.26355e-17)
(48.8454 13.0605 3.81623e-17)
(48.7918 13.0358 1.0389e-17)
(48.737 13.0093 5.54964e-18)
(48.6791 12.9915 -2.14524e-19)
(49.6798 13.271 4.07115e-16)
(49.6625 13.2781 -4.26552e-16)
(49.653 13.2915 5.74625e-17)
(49.6309 13.2873 -5.90743e-17)
(49.6079 13.2846 -1.87947e-16)
(49.5847 13.2839 6.78196e-17)
(49.5591 13.2817 0)
(49.5317 13.2786 -5.41126e-16)
(49.5029 13.2751 0)
(49.4725 13.2708 -1.3326e-16)
(49.4407 13.2658 -4.93134e-17)
(49.4074 13.2599 -5.15665e-17)
(49.3727 13.2531 -4.81973e-16)
(49.3366 13.2454 0)
(49.299 13.2367 -3.26417e-17)
(49.26 13.2269 -3.53595e-17)
(49.2196 13.2161 -1.56404e-16)
(49.1778 13.2041 1.69629e-16)
(49.1345 13.1909 -2.25505e-17)
(49.0897 13.1764 2.5383e-17)
(49.0435 13.1606 2.44048e-16)
(48.9958 13.1433 5.84591e-17)
(48.9466 13.1247 6.37918e-17)
(48.8959 13.1044 1.73924e-16)
(48.8436 13.0825 -5.62396e-17)
(48.7899 13.0589 0)
(48.7345 13.0335 0)
(48.6778 13.0062 -1.22031e-17)
(48.618 12.9878 -1.1883e-19)
(49.6814 13.2756 3.51663e-16)
(49.6635 13.2826 0)
(49.6537 13.2961 4.29755e-16)
(49.6317 13.2929 -5.19815e-16)
(49.6086 13.2909 -1.65847e-18)
(49.5853 13.2908 1.70654e-18)
(49.5597 13.2892 -1.07118e-16)
(49.5323 13.2868 4.17883e-17)
(49.5034 13.2839 -8.31605e-17)
(49.473 13.2803 5.82276e-16)
(49.4412 13.2759 9.58227e-17)
(49.4078 13.2706 5.14108e-17)
(49.373 13.2646 2.26695e-16)
(49.3368 13.2576 6.11412e-17)
(49.2992 13.2496 0)
(49.2601 13.2406 3.64772e-17)
(49.2196 13.2306 3.95446e-17)
(49.1776 13.2194 0)
(49.1342 13.207 0)
(49.0893 13.1934 -1.24156e-16)
(49.0429 13.1785 -2.41889e-16)
(48.995 13.1622 -2.92631e-16)
(48.9456 13.1445 -1.59398e-16)
(48.8947 13.1253 -3.35081e-19)
(48.8422 13.1044 5.69331e-17)
(48.7881 13.0819 7.56669e-19)
(48.7325 13.0576 0)
(48.6753 13.0314 -2.12479e-19)
(48.6167 13.0032 0)
(48.5548 12.9843 -9.29637e-21)
(49.683 13.2799 3.84076e-17)
(49.6646 13.2869 -3.69726e-16)
(49.6545 13.3004 5.46655e-17)
(49.6326 13.2983 4.66554e-16)
(49.6093 13.297 3.11879e-16)
(49.586 13.2975 -1.3194e-16)
(49.5604 13.2965 -7.06017e-17)
(49.533 13.2947 4.06447e-17)
(49.5041 13.2925 -8.29687e-17)
(49.4737 13.2895 -6.70791e-16)
(49.4417 13.2858 -9.81164e-17)
(49.4084 13.2813 5.12632e-17)
(49.3735 13.2759 0)
(49.3373 13.2696 3.09862e-17)
(49.2995 13.2624 -2.95026e-16)
(49.2604 13.2542 -3.63439e-17)
(49.2198 13.2449 1.55528e-16)
(49.1777 13.2346 -2.08405e-16)
(49.1341 13.2231 -2.27722e-16)
(49.0891 13.2103 9.90467e-17)
(49.0426 13.1963 1.33871e-16)
(48.9945 13.181 1.16788e-16)
(48.9449 13.1642 1.57991e-16)
(48.8938 13.146 -1.55116e-16)
(48.841 13.1261 7.46363e-17)
(48.7867 13.1047 0)
(48.7308 13.0815 4.50222e-17)
(48.6733 13.0564 -6.04294e-17)
(48.6141 13.0294 1.29047e-17)
(48.5535 13.0003 -1.42889e-17)
(48.4897 12.9808 2.66381e-19)
(49.6846 13.284 -4.04593e-16)
(49.6657 13.291 4.27659e-16)
(49.6553 13.3046 -4.27587e-16)
(49.6334 13.3035 -1.15922e-16)
(49.6102 13.3029 -1.87593e-16)
(49.5868 13.3039 2.01657e-16)
(49.5612 13.3037 -7.04996e-17)
(49.5338 13.3025 2.7884e-18)
(49.5048 13.3009 3.29356e-16)
(49.4744 13.2986 7.56951e-16)
(49.4424 13.2956 -2.42052e-16)
(49.409 13.2917 -1.55685e-16)
(49.3742 13.287 0)
(49.3378 13.2815 -3.08867e-17)
(49.3001 13.275 2.31426e-16)
(49.2608 13.2676 2.83425e-16)
(49.2201 13.2591 -1.16794e-16)
(49.178 13.2496 2.64787e-18)
(49.1343 13.2389 1.81832e-16)
(49.0891 13.2271 4.8323e-17)
(49.0424 13.214 0)
(48.9942 13.1996 1.45112e-16)
(48.9444 13.1838 0)
(48.8931 13.1665 6.86258e-17)
(48.8402 13.1477 3.68606e-17)
(48.7856 13.1273 8.07421e-17)
(48.7294 13.1052 -1.54444e-16)
(48.6716 13.0812 2.44927e-17)
(48.6122 13.0554 -4.83341e-19)
(48.5509 13.0276 2.87328e-17)
(48.4883 12.9976 -7.89605e-18)
(48.4223 12.9773 0)
(49.6861 13.2878 0)
(49.6668 13.2949 0)
(49.6561 13.3086 4.31517e-16)
(49.6343 13.3085 0)
(49.611 13.3086 1.24505e-16)
(49.5876 13.3103 -6.58228e-17)
(49.562 13.3107 -3.62057e-17)
(49.5346 13.3102 2.88376e-18)
(49.5057 13.3092 -6.18334e-16)
(49.4752 13.3076 -3.25086e-18)
(49.4433 13.3052 4.87691e-17)
(49.4098 13.302 5.27956e-17)
(49.3749 13.2981 -2.22835e-16)
(49.3386 13.2932 -3.07906e-17)
(49.3007 13.2875 2.93013e-16)
(49.2614 13.2809 -5.67063e-16)
(49.2207 13.2732 -3.91082e-17)
(49.1784 13.2645 2.09472e-16)
(49.1347 13.2547 1.61566e-18)
(49.0894 13.2437 -2.49472e-17)
(49.0425 13.2315 2.70793e-17)
(48.9942 13.218 -1.15767e-16)
(48.9442 13.2031 1.14742e-18)
(48.8927 13.1869 -1.70543e-16)
(48.8396 13.1691 -7.42341e-17)
(48.7848 13.1497 -1.80775e-16)
(48.7284 13.1287 8.77859e-17)
(48.6703 13.1059 2.34036e-17)
(48.6105 13.0812 1.32182e-17)
(48.549 13.0546 7.02328e-17)
(48.4857 13.0258 -1.51115e-17)
(48.421 12.9949 8.2342e-18)
(48.3528 12.974 0)
(49.6876 13.2914 4.47262e-16)
(49.6679 13.2987 -5.24115e-17)
(49.6569 13.3125 -4.28303e-16)
(49.6353 13.3134 0)
(49.6119 13.3141 -6.30044e-17)
(49.5884 13.3164 -6.57514e-17)
(49.5629 13.3175 0)
(49.5355 13.3177 3.84342e-16)
(49.5066 13.3173 3.16498e-18)
(49.4762 13.3164 -7.53437e-16)
(49.4442 13.3146 0)
(49.4107 13.3122 1.56649e-16)
(49.3758 13.3089 1.67381e-16)
(49.3394 13.3048 0)
(49.3016 13.2999 -5.23213e-16)
(49.2622 13.294 2.28933e-18)
(49.2214 13.2871 3.89748e-17)
(49.1791 13.2792 2.06033e-16)
(49.1352 13.2702 -4.42033e-17)
(49.0898 13.2601 1.75752e-18)
(49.0429 13.2488 -2.11969e-16)
(48.9944 13.2363 -2.82338e-17)
(48.9443 13.2224 0)
(48.8926 13.2071 -3.25013e-17)
(48.8392 13.1903 -1.10738e-16)
(48.7842 13.172 4.33288e-19)
(48.7276 13.1521 0)
(48.6692 13.1304 -1.18668e-16)
(48.6091 13.1069 0)
(48.5473 13.0814 -1.40328e-16)
(48.4838 13.0539 1.55759e-17)
(48.4183 13.0243 -5.01947e-17)
(48.3514 12.9924 9.24613e-18)
(48.281 12.9707 3.49595e-19)
(49.6891 13.2947 -4.07809e-16)
(49.6691 13.3022 -1.06179e-16)
(49.6577 13.3161 9.15846e-16)
(49.6362 13.318 -5.88187e-17)
(49.6128 13.3195 -6.29332e-17)
(49.5893 13.3224 3.29819e-16)
(49.5638 13.3241 -3.60852e-17)
(49.5365 13.325 0)
(49.5076 13.3253 3.31656e-16)
(49.4772 13.325 3.55815e-16)
(49.4452 13.324 0)
(49.4118 13.3222 -2.57449e-16)
(49.3769 13.3196 0)
(49.3405 13.3163 5.91925e-17)
(49.3026 13.3121 2.61399e-16)
(49.2632 13.307 3.17553e-16)
(49.2223 13.3009 0)
(49.1799 13.2938 -2.06602e-16)
(49.136 13.2857 -1.78542e-16)
(49.0905 13.2764 -1.93672e-16)
(49.0435 13.266 3.69992e-16)
(48.9948 13.2544 -1.0425e-18)
(48.9446 13.2414 0)
(48.8927 13.2271 1.69809e-16)
(48.8392 13.2114 1.47097e-16)
(48.784 13.1941 7.99284e-17)
(48.7271 13.1752 2.20846e-17)
(48.6685 13.1547 1.88475e-16)
(48.6081 13.1323 2.51804e-17)
(48.546 13.1081 2.58852e-19)
(48.4821 13.0818 4.58703e-17)
(48.4164 13.0535 -1.61062e-17)
(48.3488 13.0228 1.76963e-17)
(48.2796 12.9899 -9.64359e-18)
(48.2069 12.9674 -3.64355e-19)
(49.6906 13.2978 -9.38822e-17)
(49.6702 13.3056 5.2974e-16)
(49.6586 13.3197 -3.78459e-16)
(49.6372 13.3224 4.60883e-16)
(49.6138 13.3247 6.13291e-17)
(49.5903 13.3282 -2.00989e-16)
(49.5648 13.3306 -7.20608e-17)
(49.5375 13.3321 -1.09433e-18)
(49.5087 13.3331 0)
(49.4783 13.3335 -8.84173e-17)
(49.4464 13.3331 4.84095e-17)
(49.413 13.332 4.63298e-16)
(49.378 13.3302 5.46303e-17)
(49.3416 13.3276 0)
(49.3037 13.3241 0)
(49.2643 13.3198 0)
(49.2234 13.3145 0)
(49.181 13.3082 0)
(49.137 13.301 3.57228e-16)
(49.0914 13.2926 1.94431e-16)
(49.0443 13.2831 -2.10892e-16)
(48.9955 13.2723 0)
(48.9451 13.2604 1.53771e-16)
(48.8931 13.247 -1.33987e-16)
(48.8394 13.2323 -3.58672e-17)
(48.784 13.2161 -4.04363e-17)
(48.7269 13.1983 2.19771e-17)
(48.668 13.1788 -2.10547e-16)
(48.6074 13.1576 0)
(48.545 13.1345 5.56077e-17)
(48.4808 13.1095 6.02313e-17)
(48.4147 13.0824 -8.16754e-17)
(48.3468 13.0531 1.82399e-17)
(48.2769 13.0215 9.93496e-18)
(48.2054 12.9875 0)
(48.1303 12.9642 -4.08772e-19)
(49.6921 13.3007 0)
(49.6714 13.3089 -3.74707e-16)
(49.6595 13.3231 3.74482e-16)
(49.6382 13.3267 -4.65662e-16)
(49.6148 13.3297 -4.94317e-16)
(49.5913 13.3338 0)
(49.5659 13.3369 7.19644e-17)
(49.5386 13.3391 4.16841e-16)
(49.5098 13.3408 -2.85424e-16)
(49.4795 13.3418 0)
(49.4476 13.3421 -1.49358e-18)
(49.4142 13.3417 -2.56528e-16)
(49.3793 13.3406 1.82354e-18)
(49.343 13.3387 1.77255e-16)
(49.3051 13.336 0)
(49.2656 13.3324 -2.43144e-16)
(49.2247 13.328 3.01918e-16)
(49.1822 13.3225 1.63563e-16)
(49.1381 13.3161 -1.7876e-16)
(49.0925 13.3086 0)
(49.0453 13.3 -5.33447e-17)
(48.9964 13.2902 -1.97417e-16)
(48.9459 13.2791 -9.23227e-17)
(48.8938 13.2668 1.00221e-16)
(48.8399 13.253 -1.0788e-16)
(48.7843 13.2378 0)
(48.727 13.2211 -1.29004e-16)
(48.6679 13.2028 1.39256e-18)
(48.607 13.1827 2.58581e-17)
(48.5443 13.1608 -1.1007e-16)
(48.4798 13.137 -1.2006e-16)
(48.4134 13.1112 6.54816e-17)
(48.3451 13.0832 1.74681e-17)
(48.2749 13.053 -9.63164e-17)
(48.2026 13.0203 -1.03617e-17)
(48.1287 12.9851 0)
(48.0512 12.9609 8.67894e-19)
(49.6935 13.3034 -4.46743e-17)
(49.6726 13.312 0)
(49.6604 13.3263 -8.08675e-16)
(49.6392 13.3309 -4.60202e-16)
(49.6159 13.3346 4.99486e-16)
(49.5924 13.3393 0)
(49.567 13.3431 0)
(49.5398 13.3459 -3.42323e-16)
(49.5111 13.3482 2.4693e-16)
(49.4808 13.35 4.46934e-17)
(49.449 13.351 0)
(49.4156 13.3513 4.57302e-16)
(49.3808 13.3509 0)
(49.3444 13.3497 -5.96761e-16)
(49.3065 13.3478 6.34858e-17)
(49.2671 13.345 -3.29308e-17)
(49.2261 13.3413 -3.99153e-17)
(49.1836 13.3367 -4.9056e-16)
(49.1395 13.3311 1.76714e-16)
(49.0938 13.3244 1.42601e-16)
(49.0465 13.3167 -5.31649e-17)
(48.9976 13.3078 5.08431e-16)
(48.947 13.2977 -3.01812e-17)
(48.8947 13.2863 -6.67509e-17)
(48.8406 13.2736 3.65544e-17)
(48.7849 13.2595 -3.8641e-17)
(48.7274 13.2438 1.0606e-18)
(48.6681 13.2266 1.85765e-16)
(48.607 13.2076 -2.47991e-17)
(48.544 13.1869 1.92627e-16)
(48.4791 13.1644 5.98642e-17)
(48.4124 13.1398 -6.48055e-17)
(48.3437 13.1131 0)
(48.2731 13.0842 7.7134e-17)
(48.2006 13.053 0)
(48.1259 13.0192 0)
(48.0496 12.9829 0)
(47.9695 12.9577 -4.67912e-19)
(49.6949 13.3059 -3.48929e-16)
(49.6738 13.3149 0)
(49.6613 13.3295 4.89161e-16)
(49.6403 13.3348 4.0829e-16)
(49.617 13.3393 -4.30618e-16)
(49.5935 13.3446 6.69582e-17)
(49.5682 13.3491 2.8129e-16)
(49.5411 13.3526 0)
(49.5124 13.3556 -4.02431e-17)
(49.4822 13.358 4.32795e-17)
(49.4504 13.3597 2.81623e-16)
(49.4171 13.3607 -4.10332e-16)
(49.3823 13.361 -2.19164e-16)
(49.346 13.3606 -5.81279e-17)
(49.3081 13.3594 3.19443e-16)
(49.2687 13.3573 2.44407e-16)
(49.2278 13.3544 -2.65854e-16)
(49.1852 13.3506 3.2805e-16)
(49.1411 13.3459 -1.55911e-18)
(49.0954 13.3401 -1.92625e-16)
(49.048 13.3333 5.11079e-17)
(48.9989 13.3253 -1.71099e-16)
(48.9482 13.3162 -2.43922e-16)
(48.8958 13.3058 9.85357e-17)
(48.8417 13.294 -3.12517e-19)
(48.7858 13.2809 -1.56171e-16)
(48.7281 13.2663 1.2739e-16)
(48.6686 13.2502 9.1619e-17)
(48.6072 13.2324 -1.00216e-16)
(48.544 13.2129 -1.09579e-16)
(48.4788 13.1915 0)
(48.4118 13.1682 1.2924e-16)
(48.3428 13.1428 -1.79172e-17)
(48.2718 13.1153 0)
(48.1988 13.0854 0)
(48.1238 13.0531 2.31131e-17)
(48.0467 13.0182 -2.46526e-17)
(47.9678 12.9807 -6.8588e-18)
(47.8851 12.9545 0)
(49.6962 13.3083 3.99224e-16)
(49.675 13.3178 0)
(49.6622 13.3325 -4.84591e-16)
(49.6413 13.3387 -5.70884e-17)
(49.6181 13.3438 9.91587e-16)
(49.5946 13.3498 -6.53917e-17)
(49.5694 13.3549 -6.34951e-16)
(49.5424 13.3591 3.0142e-16)
(49.5138 13.3628 3.23883e-16)
(49.4837 13.3658 -4.45114e-17)
(49.452 13.3682 -4.27699e-16)
(49.4188 13.3699 -3.0307e-16)
(49.384 13.371 2.76899e-16)
(49.3477 13.3713 1.78305e-16)
(49.3099 13.3708 -4.50334e-16)
(49.2705 13.3696 0)
(49.2295 13.3675 3.69649e-17)
(49.187 13.3645 0)
(49.1429 13.3606 4.3324e-17)
(49.0971 13.3556 0)
(49.0497 13.3497 0)
(49.0006 13.3427 5.73067e-17)
(48.9498 13.3344 2.76094e-16)
(48.8972 13.325 -4.30533e-16)
(48.843 13.3143 1.42969e-16)
(48.7869 13.3022 1.55222e-16)
(48.729 13.2887 4.32129e-17)
(48.6693 13.2736 -1.39559e-16)
(48.6077 13.257 1.00393e-16)
(48.5443 13.2386 0)
(48.4789 13.2185 3.01391e-17)
(48.4115 13.1964 -1.92714e-16)
(48.3422 13.1723 -1.78224e-17)
(48.2708 13.1461 1.13978e-16)
(48.1975 13.1176 -8.26127e-17)
(48.122 13.0868 -6.7938e-17)
(48.0445 13.0534 1.29856e-17)
(47.9648 13.0173 -1.36208e-17)
(47.8833 12.9785 1.45755e-17)
(47.7979 12.9513 0)
(49.6975 13.3105 0)
(49.6762 13.3204 -3.69644e-16)
(49.6632 13.3353 4.35159e-16)
(49.6424 13.3424 -3.43571e-16)
(49.6193 13.3483 -4.98535e-16)
(49.5958 13.3548 -5.91328e-16)
(49.5707 13.3606 2.12402e-16)
(49.5438 13.3655 -3.04611e-16)
(49.5153 13.3698 -3.27189e-16)
(49.4852 13.3735 0)
(49.4536 13.3766 4.64196e-17)
(49.4205 13.379 8.62692e-16)
(49.3858 13.3808 -5.39829e-17)
(49.3496 13.3818 -1.18562e-16)
(49.3118 13.3821 5.75214e-16)
(49.2724 13.3816 3.52616e-17)
(49.2315 13.3803 0)
(49.189 13.3782 0)
(49.1448 13.3751 4.3146e-17)
(49.099 13.371 -2.36656e-16)
(49.0516 13.366 2.05815e-16)
(49.0024 13.3598 -5.713e-17)
(48.9515 13.3526 -5.97609e-17)
(48.8989 13.3441 2.32604e-16)
(48.8445 13.3344 3.51917e-17)
(48.7883 13.3234 -1.43713e-18)
(48.7303 13.3109 4.14896e-17)
(48.6704 13.2969 -9.18341e-17)
(48.6086 13.2814 -2.54052e-17)
(48.5449 13.2642 -1.07981e-16)
(48.4792 13.2453 0)
(48.4116 13.2244 1.90462e-18)
(48.342 13.2016 3.54701e-17)
(48.2703 13.1768 1.82051e-17)
(48.1965 13.1497 6.23183e-17)
(48.1207 13.1202 4.49076e-17)
(48.0427 13.0883 3.63854e-17)
(47.9626 13.0538 -6.604e-17)
(47.8803 13.0165 8.05112e-20)
(47.7961 12.9763 -1.57696e-17)
(47.7078 12.948 0)
(49.6988 13.3125 -3.42312e-16)
(49.6774 13.323 8.49401e-16)
(49.6641 13.3381 -1.09469e-16)
(49.6435 13.3459 4.6491e-16)
(49.6205 13.3525 -6.10886e-17)
(49.5971 13.3597 1.05457e-15)
(49.5721 13.3662 -2.10368e-16)
(49.5452 13.3717 3.6275e-17)
(49.5168 13.3767 -3.6384e-16)
(49.4869 13.3811 0)
(49.4554 13.3849 3.73784e-16)
(49.4223 13.388 -4.07858e-16)
(49.3877 13.3905 0)
(49.3516 13.3922 0)
(49.3138 13.3933 -1.2902e-16)
(49.2745 13.3936 2.74871e-16)
(49.2336 13.393 -3.34322e-16)
(49.1911 13.3917 4.124e-17)
(49.147 13.3894 -5.25472e-16)
(49.1012 13.3863 1.44308e-16)
(49.0537 13.3821 -1.88366e-18)
(49.0044 13.3769 0)
(48.9535 13.3706 2.70161e-16)
(48.9008 13.3631 0)
(48.8463 13.3544 0)
(48.79 13.3443 3.95089e-17)
(48.7318 13.3329 2.0906e-16)
(48.6717 13.3201 0)
(48.6098 13.3057 7.40791e-17)
(48.5458 13.2896 2.71866e-17)
(48.4799 13.2719 1.16871e-16)
(48.412 13.2523 2.54843e-16)
(48.3421 13.2308 -3.40206e-17)
(48.27 13.2072 -1.82007e-17)
(48.1959 13.1815 0)
(48.1197 13.1535 -2.27097e-17)
(48.0413 13.123 -7.30914e-17)
(47.9607 13.09 2.64773e-17)
(47.878 13.0543 4.34321e-17)
(47.7929 13.0158 -3.1321e-17)
(47.7059 12.9742 8.37606e-18)
(47.6148 12.9446 0)
(49.7001 13.3144 4.46807e-16)
(49.6787 13.3254 -4.80438e-16)
(49.6651 13.3408 -3.75372e-16)
(49.6446 13.3493 -4.0135e-16)
(49.6217 13.3567 0)
(49.5984 13.3645 -5.30241e-16)
(49.5735 13.3716 2.83323e-16)
(49.5467 13.3778 -2.99853e-16)
(49.5184 13.3834 3.66175e-16)
(49.4886 13.3885 4.29658e-17)
(49.4572 13.393 -4.65739e-18)
(49.4243 13.3968 0)
(49.3898 13.4 0)
(49.3537 13.4025 2.34424e-16)
(49.316 13.4043 2.5343e-16)
(49.2768 13.4053 -3.44999e-16)
(49.2359 13.4056 2.99949e-16)
(49.1934 13.4051 -4.11332e-17)
(49.1493 13.4037 3.08714e-16)
(49.1035 13.4013 -2.36998e-16)
(49.056 13.3981 -2.58912e-16)
(49.0067 13.3938 0)
(48.9557 13.3884 -3.29408e-17)
(48.9029 13.3819 3.22235e-17)
(48.8483 13.3742 2.83549e-16)
(48.7919 13.3652 0)
(48.7336 13.3548 -1.66848e-16)
(48.6734 13.343 0)
(48.6112 13.3298 0)
(48.5471 13.3149 5.40417e-17)
(48.4809 13.2983 -1.17142e-16)
(48.4128 13.28 -1.59622e-16)
(48.3425 13.2598 1.72662e-16)
(48.2702 13.2375 -2.24691e-16)
(48.1957 13.2131 -2.00203e-17)
(48.1191 13.1865 2.25927e-17)
(48.0403 13.1576 7.20235e-17)
(47.9593 13.1261 5.2518e-17)
(47.876 13.0919 1.40286e-17)
(47.7905 13.055 -1.52744e-17)
(47.7027 13.0151 1.66365e-17)
(47.6128 12.972 -9.20572e-18)
(47.5188 12.9412 0)
(49.7013 13.3162 -4.55643e-17)
(49.6799 13.3278 -5.25994e-16)
(49.6661 13.3433 4.35927e-16)
(49.6458 13.3526 3.49028e-16)
(49.623 13.3607 0)
(49.5997 13.3691 6.65542e-17)
(49.5749 13.3768 0)
(49.5483 13.3837 4.05187e-18)
(49.5202 13.39 0)
(49.4905 13.3958 0)
(49.4592 13.4009 -3.76954e-16)
(49.4263 13.4054 3.49914e-16)
(49.3919 13.4093 0)
(49.3559 13.4126 -2.3667e-16)
(49.3184 13.4151 -5.08549e-16)
(49.2792 13.4169 0)
(49.2384 13.418 0)
(49.1959 13.4183 3.20518e-16)
(49.1518 13.4177 3.45682e-16)
(49.106 13.4163 3.78248e-16)
(49.0585 13.4139 3.0662e-16)
(49.0092 13.4105 -2.2329e-16)
(48.9582 13.406 -2.42229e-16)
(48.9053 13.4005 2.92575e-16)
(48.8507 13.3938 -5.67743e-16)
(48.7941 13.3858 0)
(48.7357 13.3765 0)
(48.6753 13.3658 -2.25486e-16)
(48.613 13.3537 -1.96473e-16)
(48.5486 13.34 2.13421e-16)
(48.4823 13.3246 2.85687e-17)
(48.4139 13.3075 -3.22145e-17)
(48.3433 13.2885 -1.04033e-16)
(48.2707 13.2676 2.25046e-18)
(48.1959 13.2446 0)
(48.1189 13.2194 2.24834e-17)
(48.0397 13.1919 -2.3566e-17)
(47.9582 13.1619 -1.04124e-16)
(47.8745 13.1293 -8.4552e-17)
(47.7885 13.094 0)
(47.7002 13.0557 5.07136e-17)
(47.6094 13.0144 -1.84395e-17)
(47.5167 12.9699 0)
(47.4196 12.9376 5.84117e-21)
(49.7024 13.3179 0)
(49.6811 13.33 3.7437e-16)
(49.6671 13.3458 -3.75363e-16)
(49.647 13.3558 0)
(49.6242 13.3645 5.50758e-16)
(49.6011 13.3736 -6.64719e-17)
(49.5764 13.382 -1.04981e-16)
(49.55 13.3895 2.64832e-16)
(49.5219 13.3965 0)
(49.4924 13.4029 -3.00824e-16)
(49.4612 13.4087 0)
(49.4285 13.4139 -4.05522e-16)
(49.3942 13.4185 5.35187e-17)
(49.3583 13.4225 0)
(49.3208 13.4258 2.55223e-16)
(49.2817 13.4284 0)
(49.241 13.4303 0)
(49.1986 13.4313 -3.23231e-16)
(49.1545 13.4316 -3.745e-18)
(49.1088 13.431 -1.43271e-16)
(49.0612 13.4295 -4.08979e-16)
(49.012 13.427 1.6833e-16)
(48.9609 13.4236 1.20356e-16)
(48.908 13.419 -2.37602e-18)
(48.8532 13.4133 2.4863e-18)
(48.7966 13.4063 0)
(48.738 13.3981 0)
(48.6775 13.3885 1.81723e-16)
(48.615 13.3775 1.47189e-16)
(48.5505 13.3649 -2.14212e-16)
(48.484 13.3507 -1.15521e-16)
(48.4153 13.3349 -3.20958e-17)
(48.3445 13.3172 1.69977e-16)
(48.2716 13.2975 1.49126e-16)
(48.1964 13.2759 -1.59624e-16)
(48.1191 13.2521 2.23827e-17)
(48.0395 13.226 -2.34526e-17)
(47.9576 13.1975 7.76376e-17)
(47.8734 13.1665 5.66095e-17)
(47.7869 13.1327 6.13121e-17)
(47.698 13.0961 3.32248e-17)
(47.6068 13.0566 -1.81926e-17)
(47.5131 13.0138 9.73683e-18)
(47.4174 12.9676 1.0997e-17)
(47.3172 12.934 0)
(49.7035 13.3194 0)
(49.6823 13.3321 5.23738e-17)
(49.6681 13.3482 4.90977e-16)
(49.6481 13.3589 0)
(49.6256 13.3683 -4.96534e-16)
(49.6025 13.378 0)
(49.578 13.387 -2.08988e-16)
(49.5517 13.3951 7.51772e-17)
(49.5238 13.4028 -1.11507e-18)
(49.4944 13.4099 4.87827e-17)
(49.4633 13.4164 1.40927e-18)
(49.4308 13.4223 0)
(49.3966 13.4276 4.30984e-16)