# Residuals   
# Time        	p             	Ux            	Uy            
1             	1.000000e+00	1.000000e+00	1.000000e+00
2             	9.906372e-01	8.795862e-01	8.738662e-01
3             	6.919026e-01	9.523655e-01	9.525955e-01
