# Force coefficient bins
# bins        : 31
# start       : 2.395440e-05
# delta       : 3.221309e-02
# direction   : (1.000000e+00 0.000000e+00 0.000000e+00)
# x co-ords  :	3.223705e-02	6.445014e-02	9.666323e-02	1.288763e-01	1.610894e-01	1.933025e-01	2.255156e-01	2.577287e-01	2.899418e-01	3.221549e-01	3.543680e-01	3.865811e-01	4.187942e-01	4.510073e-01	4.832204e-01	5.154334e-01	5.476465e-01	5.798596e-01	6.120727e-01	6.442858e-01	6.764989e-01	7.087120e-01	7.409251e-01	7.731382e-01	8.053513e-01	8.375644e-01	8.697775e-01	9.019906e-01	9.342037e-01	9.664168e-01	9.986299e-01
# y co-ords  :	0.000000e+00	0.000000e+00	0.000000e+00	0.000000e+00	0.000000e+00	0.000000e+00	0.000000e+00	0.000000e+00	0.000000e+00	0.000000e+00	0.000000e+00	0.000000e+00	0.000000e+00	0.000000e+00	0.000000e+00	0.000000e+00	0.000000e+00	0.000000e+00	0.000000e+00	0.000000e+00	0.000000e+00	0.000000e+00	0.000000e+00	0.000000e+00	0.000000e+00	0.000000e+00	0.000000e+00	0.000000e+00	0.000000e+00	0.000000e+00	0.000000e+00
# z co-ords  :	0.000000e+00	0.000000e+00	0.000000e+00	0.000000e+00	0.000000e+00	0.000000e+00	0.000000e+00	0.000000e+00	0.000000e+00	0.000000e+00	0.000000e+00	0.000000e+00	0.000000e+00	0.000000e+00	0.000000e+00	0.000000e+00	0.000000e+00	0.000000e+00	0.000000e+00	0.000000e+00	0.000000e+00	0.000000e+00	0.000000e+00	0.000000e+00	0.000000e+00	0.000000e+00	0.000000e+00	0.000000e+00	0.000000e+00	0.000000e+00	0.000000e+00
# Time        	Cm(0)         	Cd(0)         	Cl(0)         	Cm(1)         	Cd(1)         	Cl(1)         	Cm(2)         	Cd(2)         	Cl(2)         	Cm(3)         	Cd(3)         	Cl(3)         	Cm(4)         	Cd(4)         	Cl(4)         	Cm(5)         	Cd(5)         	Cl(5)         	Cm(6)         	Cd(6)         	Cl(6)         	Cm(7)         	Cd(7)         	Cl(7)         	Cm(8)         	Cd(8)         	Cl(8)         	Cm(9)         	Cd(9)         	Cl(9)         	Cm(10)        	Cd(10)        	Cl(10)        	Cm(11)        	Cd(11)        	Cl(11)        	Cm(12)        	Cd(12)        	Cl(12)        	Cm(13)        	Cd(13)        	Cl(13)        	Cm(14)        	Cd(14)        	Cl(14)        	Cm(15)        	Cd(15)        	Cl(15)        	Cm(16)        	Cd(16)        	Cl(16)        	Cm(17)        	Cd(17)        	Cl(17)        	Cm(18)        	Cd(18)        	Cl(18)        	Cm(19)        	Cd(19)        	Cl(19)        	Cm(20)        	Cd(20)        	Cl(20)        	Cm(21)        	Cd(21)        	Cl(21)        	Cm(22)        	Cd(22)        	Cl(22)        	Cm(23)        	Cd(23)        	Cl(23)        	Cm(24)        	Cd(24)        	Cl(24)        	Cm(25)        	Cd(25)        	Cl(25)        	Cm(26)        	Cd(26)        	Cl(26)        	Cm(27)        	Cd(27)        	Cl(27)        	Cm(28)        	Cd(28)        	Cl(28)        	Cm(29)        	Cd(29)        	Cl(29)        	Cm(30)        	Cd(30)        	Cl(30)        
0             	-1.945336e-04	1.147680e+00	4.436768e-04	-4.714905e-04	2.041224e+00	2.341658e-04	-8.092287e-04	2.794197e+00	3.287937e-04	-2.744379e-04	3.504421e+00	1.499743e-03	-8.709040e-05	4.150642e+00	2.170404e-03	-1.318265e-04	4.779186e+00	2.565211e-03	-6.340536e-04	5.389063e+00	2.710297e-03	-6.844544e-05	6.043296e+00	2.973302e-03	2.637078e-04	6.605384e+00	3.087519e-03	2.202606e-04	7.235850e+00	3.122842e-03	-8.703854e-05	7.859832e+00	3.114593e-03	1.851378e-04	8.467158e+00	2.994659e-03	1.110259e-04	9.166133e+00	2.887113e-03	-1.810718e-04	9.753684e+00	2.857192e-03	-2.846071e-04	1.042795e+01	2.737522e-03	-2.045815e-04	1.101069e+01	2.563376e-03	-1.252867e-04	1.165349e+01	2.384292e-03	-8.698503e-05	1.228387e+01	2.224361e-03	-1.848408e-04	1.290641e+01	2.185113e-03	-1.782831e-04	1.351341e+01	2.073594e-03	-3.919487e-04	1.418387e+01	2.196756e-03	-4.848702e-04	1.485079e+01	2.232808e-03	-5.222226e-04	1.543321e+01	2.229188e-03	-5.666196e-04	1.606142e+01	2.237677e-03	-5.907121e-04	1.674345e+01	2.197851e-03	-6.032135e-04	1.734843e+01	1.910606e-03	-6.252741e-04	1.799817e+01	1.822058e-03	-6.480641e-04	1.864047e+01	1.812188e-03	-7.864327e-04	1.925940e+01	1.451409e-03	-7.503434e-04	1.992413e+01	1.521973e-03	-6.460427e-04	2.057169e+01	1.676599e-03
1             	5.938402e-04	2.365686e+01	-2.156129e-02	3.041265e-04	2.781293e+01	-1.564608e-02	-7.223708e-03	2.989682e+01	3.834020e-02	-1.473521e-02	3.118946e+01	1.065594e-01	-1.989323e-02	3.200140e+01	1.660516e-01	-2.300105e-02	3.257594e+01	2.167986e-01	-2.417771e-02	3.300040e+01	2.506900e-01	-2.405124e-02	3.339008e+01	2.759561e-01	-2.348990e-02	3.369369e+01	2.895111e-01	-2.291111e-02	3.402981e+01	2.988072e-01	-2.238656e-02	3.436227e+01	3.019329e-01	-2.247346e-02	3.469455e+01	2.999665e-01	-2.370369e-02	3.510338e+01	2.912023e-01	-2.567458e-02	3.547542e+01	2.808074e-01	-2.886563e-02	3.593582e+01	2.652980e-01	-3.241306e-02	3.637065e+01	2.500473e-01	-3.689948e-02	3.689684e+01	2.330813e-01	-4.128928e-02	3.746047e+01	2.189641e-01	-4.628543e-02	3.806222e+01	2.043123e-01	-4.988992e-02	3.869385e+01	1.943412e-01	-5.304038e-02	3.944163e+01	1.864963e-01	-5.636985e-02	4.022831e+01	1.789148e-01	-5.696416e-02	4.094950e+01	1.777062e-01	-5.645849e-02	4.177126e+01	1.787783e-01	-5.527429e-02	4.270347e+01	1.809916e-01	-5.552237e-02	4.355215e+01	1.804801e-01	-5.359012e-02	4.448442e+01	1.837133e-01	-5.019282e-02	4.539974e+01	1.889932e-01	-4.850737e-02	4.627945e+01	1.914090e-01	-4.236174e-02	4.718559e+01	2.002115e-01	-3.573209e-02	4.797737e+01	2.092679e-01
2             	-1.247544e-02	6.935918e+00	5.162983e-02	-1.966481e-02	9.085501e+00	9.108677e-02	-2.583094e-02	1.029586e+01	1.335854e-01	-3.040390e-02	1.107147e+01	1.739484e-01	-3.382235e-02	1.156717e+01	2.122969e-01	-3.593465e-02	1.191921e+01	2.465380e-01	-3.677738e-02	1.216936e+01	2.734349e-01	-3.685151e-02	1.239544e+01	2.939299e-01	-3.628110e-02	1.256789e+01	3.046519e-01	-3.567665e-02	1.276196e+01	3.125978e-01	-3.511370e-02	1.295837e+01	3.138320e-01	-3.476220e-02	1.315404e+01	3.168050e-01	-3.508973e-02	1.340424e+01	3.140663e-01	-3.549634e-02	1.363129e+01	3.116905e-01	-3.796591e-02	1.391663e+01	2.993778e-01	-4.066233e-02	1.419008e+01	2.873568e-01	-4.314036e-02	1.452120e+01	2.775133e-01	-4.249531e-02	1.487739e+01	2.797583e-01	-4.320092e-02	1.525881e+01	2.776443e-01	-4.539096e-02	1.565653e+01	2.714946e-01	-4.743753e-02	1.612645e+01	2.661849e-01	-5.028612e-02	1.661913e+01	2.596664e-01	-5.003409e-02	1.706680e+01	2.601977e-01	-4.671996e-02	1.757118e+01	2.668147e-01	-4.482546e-02	1.814145e+01	2.703295e-01	-4.631304e-02	1.865838e+01	2.676773e-01	-4.717856e-02	1.921896e+01	2.662486e-01	-4.558183e-02	1.976266e+01	2.687011e-01	-4.786034e-02	2.027913e+01	2.651703e-01	-4.625043e-02	2.080317e+01	2.674871e-01	-4.500014e-02	2.125024e+01	2.692043e-01
3             	-5.898230e-03	-9.729380e+00	3.624122e-02	-1.344136e-02	-1.082531e+01	7.332559e-02	-1.426945e-02	-1.119183e+01	7.553168e-02	-1.295716e-02	-1.132187e+01	6.230403e-02	-1.187421e-02	-1.132556e+01	4.852635e-02	-1.117822e-02	-1.126246e+01	3.666660e-02	-1.083725e-02	-1.117431e+01	2.824140e-02	-1.080532e-02	-1.106293e+01	2.212191e-02	-1.071672e-02	-1.096200e+01	1.780371e-02	-1.069008e-02	-1.083897e+01	1.522828e-02	-1.047474e-02	-1.071256e+01	1.308434e-02	-1.081088e-02	-1.059372e+01	1.069787e-02	-1.076724e-02	-1.045491e+01	1.077998e-02	-1.046148e-02	-1.034683e+01	1.289356e-02	-9.492951e-03	-1.022999e+01	1.695061e-02	-8.018632e-03	-1.013440e+01	2.243140e-02	-5.914534e-03	-1.004045e+01	2.965972e-02	-3.905231e-03	-9.959479e+00	3.669967e-02	-1.814610e-03	-9.890205e+00	4.297466e-02	3.168029e-04	-9.838091e+00	4.866530e-02	2.165293e-03	-9.795291e+00	5.309928e-02	3.068923e-03	-9.766090e+00	5.517842e-02	3.971151e-03	-9.754990e+00	5.716302e-02	5.182105e-03	-9.761792e+00	5.970755e-02	5.455588e-03	-9.780486e+00	6.025317e-02	4.018119e-03	-9.804579e+00	5.766778e-02	2.351987e-03	-9.844887e+00	5.485665e-02	8.643033e-04	-9.891483e+00	5.250182e-02	-2.107747e-03	-9.941203e+00	4.796738e-02	-5.134705e-03	-9.993131e+00	4.364434e-02	-8.742672e-03	-1.003763e+01	3.872632e-02
4             	-2.940616e-03	-1.349577e+01	2.179832e-02	-2.457293e-03	-1.560729e+01	1.599350e-02	1.089938e-03	-1.658025e+01	-1.150553e-02	5.046801e-03	-1.708312e+01	-4.815313e-02	8.131766e-03	-1.730353e+01	-8.485193e-02	1.018730e-02	-1.737137e+01	-1.188550e-01	1.114631e-02	-1.735752e+01	-1.458908e-01	1.129304e-02	-1.729899e+01	-1.683337e-01	1.111760e-02	-1.723078e+01	-1.809877e-01	1.064517e-02	-1.714045e+01	-1.921085e-01	1.051444e-02	-1.704711e+01	-1.977099e-01	1.011229e-02	-1.696447e+01	-2.007526e-01	1.040091e-02	-1.687920e+01	-1.991893e-01	1.089657e-02	-1.682688e+01	-1.959575e-01	1.338883e-02	-1.678832e+01	-1.846749e-01	1.617130e-02	-1.677454e+01	-1.735367e-01	1.928463e-02	-1.678772e+01	-1.624127e-01	2.038355e-02	-1.682929e+01	-1.581257e-01	2.231656e-02	-1.689726e+01	-1.522355e-01	2.546947e-02	-1.699462e+01	-1.436289e-01	2.897188e-02	-1.713386e+01	-1.349862e-01	3.240930e-02	-1.729985e+01	-1.271130e-01	3.303746e-02	-1.746954e+01	-1.256077e-01	3.143697e-02	-1.768381e+01	-1.285320e-01	3.079716e-02	-1.793873e+01	-1.296537e-01	3.157594e-02	-1.817707e+01	-1.283725e-01	3.202666e-02	-1.845023e+01	-1.277058e-01	3.050901e-02	-1.872059e+01	-1.300364e-01	3.130056e-02	-1.897943e+01	-1.288744e-01	2.871903e-02	-1.923749e+01	-1.325663e-01	2.554360e-02	-1.944988e+01	-1.368971e-01
5             	2.148974e-03	-5.173774e+00	-9.736812e-03	9.792823e-03	-5.806094e+00	-5.070640e-02	1.432424e-02	-6.139155e+00	-8.084152e-02	1.686460e-02	-6.308039e+00	-1.030891e-01	1.858217e-02	-6.369789e+00	-1.231325e-01	1.977700e-02	-6.367278e+00	-1.424380e-01	2.038135e-02	-6.332231e+00	-1.587749e-01	2.050098e-02	-6.274531e+00	-1.740630e-01	2.034886e-02	-6.216986e+00	-1.841634e-01	1.997971e-02	-6.144659e+00	-1.929099e-01	1.985022e-02	-6.070810e+00	-1.977556e-01	1.925999e-02	-6.003964e+00	-2.024719e-01	1.904622e-02	-5.931093e+00	-2.042858e-01	1.874844e-02	-5.879561e+00	-2.055992e-01	1.948207e-02	-5.830077e+00	-2.026147e-01	2.018484e-02	-5.794814e+00	-1.999476e-01	2.071826e-02	-5.767906e+00	-1.982029e-01	1.944436e-02	-5.753119e+00	-2.017374e-01	1.925786e-02	-5.748656e+00	-2.021662e-01	1.977470e-02	-5.757270e+00	-2.006782e-01	2.095889e-02	-5.778601e+00	-1.977851e-01	2.262487e-02	-5.809751e+00	-1.939768e-01	2.212859e-02	-5.846255e+00	-1.948680e-01	1.994312e-02	-5.896871e+00	-1.989866e-01	1.944140e-02	-5.957672e+00	-1.998821e-01	2.151857e-02	-6.013387e+00	-1.963089e-01	2.337691e-02	-6.077548e+00	-1.932900e-01	2.355665e-02	-6.137959e+00	-1.929324e-01	2.702000e-02	-6.190835e+00	-1.877418e-01	2.751820e-02	-6.235348e+00	-1.870298e-01	2.782624e-02	-6.260798e+00	-1.866096e-01
6             	-1.140554e-02	8.263094e+00	4.179394e-02	-6.743583e-03	9.339955e+00	1.871334e-02	-5.811584e-03	9.865697e+00	1.526158e-02	-6.796576e-03	1.017545e+01	2.478085e-02	-7.747013e-03	1.035902e+01	3.565342e-02	-8.277593e-03	1.048349e+01	4.472394e-02	-8.421431e-03	1.056688e+01	5.043223e-02	-8.416985e-03	1.064041e+01	5.412285e-02	-8.278731e-03	1.069546e+01	5.626994e-02	-8.198795e-03	1.075643e+01	5.638182e-02	-8.033496e-03	1.081738e+01	5.561099e-02	-8.142636e-03	1.087677e+01	5.476481e-02	-8.457145e-03	1.095195e+01	5.233168e-02	-9.060849e-03	1.101981e+01	4.897301e-02	-1.017823e-02	1.110592e+01	4.325680e-02	-1.150612e-02	1.119058e+01	3.750279e-02	-1.312918e-02	1.129524e+01	3.134087e-02	-1.487654e-02	1.140994e+01	2.595348e-02	-1.628875e-02	1.153603e+01	2.179031e-02	-1.803594e-02	1.166990e+01	1.704651e-02	-1.938078e-02	1.183163e+01	1.359251e-02	-2.069129e-02	1.200471e+01	1.058063e-02	-2.165304e-02	1.216486e+01	8.599245e-03	-2.220765e-02	1.234994e+01	7.586776e-03	-2.200021e-02	1.256417e+01	7.965898e-03	-2.096339e-02	1.276303e+01	9.753493e-03	-1.991003e-02	1.298386e+01	1.148436e-02	-1.869037e-02	1.320346e+01	1.342590e-02	-1.653057e-02	1.341870e+01	1.664759e-02	-1.436624e-02	1.364466e+01	1.974475e-02	-1.194997e-02	1.384704e+01	2.304106e-02
7             	-3.594164e-02	1.250416e+01	1.421549e-01	-3.824374e-02	1.376419e+01	1.555939e-01	-4.071201e-02	1.443446e+01	1.738901e-01	-4.305143e-02	1.483008e+01	1.946525e-01	-4.473478e-02	1.505946e+01	2.137507e-01	-4.574778e-02	1.520544e+01	2.306062e-01	-4.612074e-02	1.529505e+01	2.427889e-01	-4.616716e-02	1.536695e+01	2.531035e-01	-4.598871e-02	1.541701e+01	2.577328e-01	-4.571541e-02	1.547053e+01	2.616291e-01	-4.542723e-02	1.552434e+01	2.628327e-01	-4.537451e-02	1.557923e+01	2.632502e-01	-4.564702e-02	1.565252e+01	2.612084e-01	-4.605848e-02	1.572307e+01	2.587489e-01	-4.734945e-02	1.581666e+01	2.522809e-01	-4.872682e-02	1.591178e+01	2.462740e-01	-5.016756e-02	1.603329e+01	2.407835e-01	-5.069624e-02	1.616923e+01	2.391640e-01	-5.158801e-02	1.632059e+01	2.364872e-01	-5.301846e-02	1.648350e+01	2.325084e-01	-5.448730e-02	1.668136e+01	2.287082e-01	-5.643545e-02	1.689337e+01	2.242273e-01	-5.674368e-02	1.708958e+01	2.235612e-01	-5.568019e-02	1.731658e+01	2.256753e-01	-5.510288e-02	1.757768e+01	2.267318e-01	-5.583114e-02	1.781760e+01	2.254502e-01	-5.636216e-02	1.808150e+01	2.245833e-01	-5.570582e-02	1.833949e+01	2.255810e-01	-5.656498e-02	1.858713e+01	2.242568e-01	-5.548914e-02	1.883954e+01	2.257987e-01	-5.411697e-02	1.905490e+01	2.276713e-01
8             	5.997451e-02	3.837233e+00	-2.613416e-01	5.286655e-02	4.060598e+00	-2.241144e-01	4.848686e-02	4.210543e+00	-1.965551e-01	4.634825e-02	4.309109e+00	-1.801208e-01	4.525208e-02	4.381813e+00	-1.692835e-01	4.468268e-02	4.443388e+00	-1.608050e-01	4.447627e-02	4.492703e+00	-1.547066e-01	4.444325e-02	4.542223e+00	-1.491719e-01	4.457035e-02	4.582981e+00	-1.458850e-01	4.475258e-02	4.631508e+00	-1.434930e-01	4.503539e-02	4.682350e+00	-1.421295e-01	4.520805e-02	4.733602e+00	-1.407274e-01	4.533384e-02	4.797597e+00	-1.400841e-01	4.554659e-02	4.854075e+00	-1.390478e-01	4.569422e-02	4.922331e+00	-1.387096e-01	4.594322e-02	4.985953e+00	-1.380016e-01	4.642687e-02	5.060551e+00	-1.364243e-01	4.750029e-02	5.137271e+00	-1.328095e-01	4.822074e-02	5.216983e+00	-1.307033e-01	4.892311e-02	5.296604e+00	-1.289155e-01	4.941724e-02	5.387242e+00	-1.278138e-01	4.957289e-02	5.478770e+00	-1.274974e-01	5.044531e-02	5.558297e+00	-1.256381e-01	5.189365e-02	5.645162e+00	-1.227378e-01	5.255201e-02	5.740957e+00	-1.215093e-01	5.168657e-02	5.825715e+00	-1.230331e-01	5.096957e-02	5.913744e+00	-1.242125e-01	5.081820e-02	5.995285e+00	-1.244893e-01	4.904486e-02	6.069874e+00	-1.271821e-01	4.851099e-02	6.141397e+00	-1.279432e-01	4.792256e-02	6.194395e+00	-1.287443e-01
9             	1.121222e-01	-5.997573e+00	-4.824564e-01	1.088964e-01	-6.673697e+00	-4.664870e-01	1.065797e-01	-7.021084e+00	-4.541369e-01	1.061926e-01	-7.208949e+00	-4.537138e-01	1.063644e-01	-7.290178e+00	-4.578998e-01	1.066265e-01	-7.312947e+00	-4.634705e-01	1.067685e-01	-7.304162e+00	-4.682808e-01	1.067909e-01	-7.276594e+00	-4.729282e-01	1.067256e-01	-7.244182e+00	-4.765967e-01	1.066466e-01	-7.199476e+00	-4.790082e-01	1.067211e-01	-7.150736e+00	-4.799121e-01	1.066431e-01	-7.103097e+00	-4.806042e-01	1.068174e-01	-7.049259e+00	-4.796675e-01	1.071790e-01	-7.008306e+00	-4.776740e-01	1.082339e-01	-6.967378e+00	-4.730581e-01	1.094780e-01	-6.937055e+00	-4.681736e-01	1.109941e-01	-6.911267e+00	-4.627694e-01	1.122286e-01	-6.895074e+00	-4.585113e-01	1.136374e-01	-6.887546e+00	-4.543246e-01	1.154677e-01	-6.890686e+00	-4.494206e-01	1.172591e-01	-6.905110e+00	-4.450396e-01	1.192273e-01	-6.930098e+00	-4.405836e-01	1.204106e-01	-6.961836e+00	-4.380059e-01	1.210129e-01	-7.007005e+00	-4.367200e-01	1.214833e-01	-7.065127e+00	-4.358217e-01	1.218568e-01	-7.122917e+00	-4.351886e-01	1.221880e-01	-7.193748e+00	-4.346503e-01	1.220006e-01	-7.268388e+00	-4.349443e-01	1.218335e-01	-7.343523e+00	-4.352105e-01	1.210688e-01	-7.423822e+00	-4.363035e-01	1.198960e-01	-7.500154e+00	-4.379008e-01
10            	5.809831e-02	-9.000134e+00	-2.401661e-01	5.885618e-02	-9.638367e+00	-2.451045e-01	5.965907e-02	-9.988820e+00	-2.520700e-01	6.055938e-02	-1.017569e+01	-2.613219e-01	6.128688e-02	-1.026004e+01	-2.709865e-01	6.186370e-02	-1.028785e+01	-2.811523e-01	6.214917e-02	-1.028358e+01	-2.899182e-01	6.220526e-02	-1.026026e+01	-2.988485e-01	6.209901e-02	-1.023087e+01	-3.040594e-01	6.186557e-02	-1.018965e+01	-3.092017e-01	6.173998e-02	-1.014477e+01	-3.122836e-01	6.144247e-02	-1.010145e+01	-3.148324e-01	6.138566e-02	-1.005371e+01	-3.154506e-01	6.143140e-02	-1.001847e+01	-3.151458e-01	6.212231e-02	-9.984553e+00	-3.122300e-01	6.292051e-02	-9.960705e+00	-3.091130e-01	6.378553e-02	-9.942133e+00	-3.060478e-01	6.398361e-02	-9.932872e+00	-3.051194e-01	6.469110e-02	-9.931903e+00	-3.029830e-01	6.573241e-02	-9.940669e+00	-3.001597e-01	6.696595e-02	-9.960338e+00	-2.971316e-01	6.856477e-02	-9.989374e+00	-2.935120e-01	6.900227e-02	-1.002320e+01	-2.924979e-01	6.864485e-02	-1.006891e+01	-2.930956e-01	6.883912e-02	-1.012588e+01	-2.927120e-01	7.007845e-02	-1.018095e+01	-2.905684e-01	7.116661e-02	-1.024611e+01	-2.887857e-01	7.147549e-02	-1.031247e+01	-2.882684e-01	7.302213e-02	-1.037676e+01	-2.859517e-01	7.318112e-02	-1.044216e+01	-2.857243e-01	7.294788e-02	-1.050006e+01	-2.860403e-01
11            	-4.917017e-02	-3.068058e+00	2.118354e-01	-4.641323e-02	-3.087596e+00	1.971661e-01	-4.363922e-02	-3.087952e+00	1.796991e-01	-4.225376e-02	-3.069428e+00	1.687890e-01	-4.154813e-02	-3.048017e+00	1.611336e-01	-4.107501e-02	-3.021873e+00	1.539193e-01	-4.082418e-02	-2.994400e+00	1.471467e-01	-4.076233e-02	-2.961398e+00	1.397607e-01	-4.087605e-02	-2.930863e+00	1.342614e-01	-4.111903e-02	-2.892908e+00	1.290271e-01	-4.138269e-02	-2.853181e+00	1.245896e-01	-4.185870e-02	-2.814406e+00	1.205040e-01	-4.235572e-02	-2.768995e+00	1.169979e-01	-4.288392e-02	-2.731337e+00	1.141009e-01	-4.340260e-02	-2.688457e+00	1.113769e-01	-4.392887e-02	-2.650632e+00	1.090763e-01	-4.464589e-02	-2.608294e+00	1.063926e-01	-4.573718e-02	-2.566869e+00	1.030645e-01	-4.649179e-02	-2.525342e+00	1.008809e-01	-4.727209e-02	-2.485225e+00	9.878578e-02	-4.786774e-02	-2.440632e+00	9.727400e-02	-4.836747e-02	-2.396435e+00	9.611215e-02	-4.918191e-02	-2.358416e+00	9.443592e-02	-5.018034e-02	-2.316778e+00	9.252566e-02	-5.062677e-02	-2.270195e+00	9.170166e-02	-5.018052e-02	-2.227886e+00	9.245975e-02	-4.983253e-02	-2.182082e+00	9.301956e-02	-4.962362e-02	-2.137123e+00	9.337105e-02	-4.842567e-02	-2.092390e+00	9.516256e-02	-4.785484e-02	-2.044253e+00	9.597930e-02	-4.729112e-02	-2.000989e+00	9.674881e-02
12            	-9.138130e-02	3.934927e+00	3.858353e-01	-8.912091e-02	4.345071e+00	3.742969e-01	-8.686919e-02	4.608769e+00	3.613819e-01	-8.601915e-02	4.776295e+00	3.559944e-01	-8.568820e-02	4.875017e+00	3.533811e-01	-8.549026e-02	4.941662e+00	3.512544e-01	-8.536179e-02	4.987056e+00	3.485712e-01	-8.531734e-02	5.027624e+00	3.453306e-01	-8.535040e-02	5.058842e+00	3.429745e-01	-8.551006e-02	5.094083e+00	3.394036e-01	-8.575147e-02	5.129816e+00	3.354246e-01	-8.615146e-02	5.165419e+00	3.319528e-01	-8.675089e-02	5.209912e+00	3.278245e-01	-8.740915e-02	5.250445e+00	3.241453e-01	-8.843989e-02	5.301378e+00	3.190555e-01	-8.948921e-02	5.350757e+00	3.145870e-01	-9.072526e-02	5.411864e+00	3.100056e-01	-9.183794e-02	5.477836e+00	3.065098e-01	-9.295177e-02	5.549572e+00	3.032427e-01	-9.424457e-02	5.625318e+00	2.997268e-01	-9.548877e-02	5.715836e+00	2.965875e-01	-9.692703e-02	5.811468e+00	2.932809e-01	-9.785524e-02	5.899064e+00	2.913226e-01	-9.838434e-02	6.000038e+00	2.902971e-01	-9.883290e-02	6.115897e+00	2.894619e-01	-9.934567e-02	6.222244e+00	2.885504e-01	-9.982872e-02	6.339524e+00	2.877457e-01	-9.986638e-02	6.454427e+00	2.876822e-01	-9.996971e-02	6.565720e+00	2.875139e-01	-9.962933e-02	6.680515e+00	2.880017e-01	-9.906052e-02	6.779448e+00	2.887771e-01
13            	-1.468211e-01	6.500261e+00	6.263610e-01	-1.455071e-01	6.830982e+00	6.199384e-01	-1.454815e-01	7.048059e+00	6.206710e-01	-1.457391e-01	7.176024e+00	6.233459e-01	-1.458570e-01	7.253369e+00	6.249282e-01	-1.458976e-01	7.308787e+00	6.260293e-01	-1.458831e-01	7.348614e+00	6.261317e-01	-1.458627e-01	7.385511e+00	6.258624e-01	-1.458805e-01	7.414408e+00	6.245173e-01	-1.459485e-01	7.447631e+00	6.227034e-01	-1.460651e-01	7.481746e+00	6.203175e-01	-1.462935e-01	7.516092e+00	6.182996e-01	-1.466978e-01	7.559113e+00	6.154987e-01	-1.471107e-01	7.598129e+00	6.131546e-01	-1.477630e-01	7.646464e+00	6.098621e-01	-1.483693e-01	7.692474e+00	6.072002e-01	-1.490088e-01	7.748415e+00	6.047902e-01	-1.493741e-01	7.807521e+00	6.036848e-01	-1.498741e-01	7.870544e+00	6.022185e-01	-1.504242e-01	7.935757e+00	6.006875e-01	-1.510561e-01	8.012111e+00	5.990673e-01	-1.518690e-01	8.091178e+00	5.971807e-01	-1.521645e-01	8.162138e+00	5.965578e-01	-1.521088e-01	8.242437e+00	5.966819e-01	-1.523448e-01	8.332995e+00	5.962467e-01	-1.531592e-01	8.414663e+00	5.948120e-01	-1.538932e-01	8.502818e+00	5.935976e-01	-1.542083e-01	8.587100e+00	5.930835e-01	-1.551370e-01	8.666767e+00	5.916743e-01	-1.553744e-01	8.746268e+00	5.913357e-01	-1.554332e-01	8.810365e+00	5.912551e-01
14            	-1.043068e-01	2.898892e+00	4.483434e-01	-1.073436e-01	2.896874e+00	4.643296e-01	-1.107564e-01	2.885375e+00	4.853199e-01	-1.127402e-01	2.869529e+00	4.998276e-01	-1.136510e-01	2.870423e+00	5.081892e-01	-1.140917e-01	2.884400e+00	5.140676e-01	-1.142672e-01	2.904142e+00	5.182398e-01	-1.142868e-01	2.930137e+00	5.220338e-01	-1.142169e-01	2.954789e+00	5.246957e-01	-1.140823e-01	2.986481e+00	5.267121e-01	-1.138332e-01	3.020527e+00	5.286403e-01	-1.135894e-01	3.054867e+00	5.306634e-01	-1.132548e-01	3.096091e+00	5.327651e-01	-1.128724e-01	3.131002e+00	5.348094e-01	-1.122340e-01	3.170700e+00	5.375488e-01	-1.115342e-01	3.205134e+00	5.402303e-01	-1.106268e-01	3.243067e+00	5.434334e-01	-1.096304e-01	3.278853e+00	5.467576e-01	-1.086133e-01	3.313166e+00	5.497515e-01	-1.074520e-01	3.344599e+00	5.528364e-01	-1.062682e-01	3.377112e+00	5.557229e-01	-1.050528e-01	3.406635e+00	5.584532e-01	-1.040026e-01	3.429476e+00	5.607063e-01	-1.029586e-01	3.451733e+00	5.628185e-01	-1.021084e-01	3.473605e+00	5.644184e-01	-1.016788e-01	3.490719e+00	5.651661e-01	-1.012278e-01	3.505681e+00	5.659178e-01	-1.008737e-01	3.516642e+00	5.664688e-01	-1.008884e-01	3.524465e+00	5.664359e-01	-1.008028e-01	3.528961e+00	5.665591e-01	-1.008686e-01	3.525877e+00	5.664702e-01
15            	-5.087188e-03	-1.913321e+00	2.870663e-02	-9.928549e-03	-2.121927e+00	5.357491e-02	-1.344946e-02	-2.284546e+00	7.446330e-02	-1.523666e-02	-2.383163e+00	8.674282e-02	-1.605054e-02	-2.425477e+00	9.350396e-02	-1.641529e-02	-2.436202e+00	9.769992e-02	-1.656581e-02	-2.429306e+00	1.006557e-01	-1.658518e-02	-2.410762e+00	1.032153e-01	-1.655377e-02	-2.389204e+00	1.046518e-01	-1.642033e-02	-2.358960e+00	1.066625e-01	-1.611987e-02	-2.325507e+00	1.092450e-01	-1.581633e-02	-2.291731e+00	1.117913e-01	-1.528385e-02	-2.252423e+00	1.151815e-01	-1.466048e-02	-2.220722e+00	1.185741e-01	-1.352476e-02	-2.186902e+00	1.236333e-01	-1.232062e-02	-2.159768e+00	1.283929e-01	-1.083010e-02	-2.132597e+00	1.337138e-01	-9.444699e-03	-2.110168e+00	1.383186e-01	-7.821570e-03	-2.091801e+00	1.430957e-01	-5.996787e-03	-2.078570e+00	1.479846e-01	-3.974689e-03	-2.069079e+00	1.529578e-01	-1.777674e-03	-2.064963e+00	1.579254e-01	-2.161753e-04	-2.066190e+00	1.612797e-01	1.141724e-03	-2.072329e+00	1.640376e-01	2.635565e-03	-2.083384e+00	1.668422e-01	4.173476e-03	-2.096542e+00	1.695311e-01	5.658352e-03	-2.114944e+00	1.719941e-01	6.713159e-03	-2.136342e+00	1.736663e-01	7.930465e-03	-2.159117e+00	1.754881e-01	8.658549e-03	-2.185049e+00	1.765301e-01	9.006669e-03	-2.213268e+00	1.770070e-01
16            	9.710565e-02	-3.656750e+00	-4.148426e-01	9.326953e-02	-3.805690e+00	-3.953167e-01	9.193130e-02	-3.923902e+00	-3.878661e-01	9.162992e-02	-3.979726e+00	-3.864602e-01	9.146685e-02	-3.999185e+00	-3.857941e-01	9.144611e-02	-3.999291e+00	-3.862756e-01	9.146462e-02	-3.988535e+00	-3.875308e-01	9.147672e-02	-3.969041e+00	-3.892457e-01	9.145229e-02	-3.948021e+00	-3.902907e-01	9.142687e-02	-3.919343e+00	-3.912062e-01	9.149426e-02	-3.888011e+00	-3.912691e-01	9.151113e-02	-3.856337e+00	-3.911651e-01	9.166940e-02	-3.819289e+00	-3.902638e-01	9.189791e-02	-3.788849e+00	-3.890305e-01	9.243081e-02	-3.755298e+00	-3.867710e-01	9.298578e-02	-3.727164e+00	-3.846426e-01	9.364303e-02	-3.697129e+00	-3.823314e-01	9.412693e-02	-3.669892e+00	-3.806512e-01	9.483879e-02	-3.644733e+00	-3.785481e-01	9.562437e-02	-3.622599e+00	-3.764432e-01	9.659259e-02	-3.600698e+00	-3.740693e-01	9.767713e-02	-3.581766e+00	-3.716298e-01	9.831896e-02	-3.567866e+00	-3.702321e-01	9.884118e-02	-3.555033e+00	-3.691411e-01	9.964092e-02	-3.542980e+00	-3.676349e-01	1.007621e-01	-3.533846e+00	-3.656798e-01	1.018240e-01	-3.526090e+00	-3.639229e-01	1.026327e-01	-3.520415e+00	-3.626346e-01	1.038469e-01	-3.515833e+00	-3.608162e-01	1.045960e-01	-3.512114e+00	-3.597439e-01	1.050707e-01	-3.512289e+00	-3.590948e-01
17            	9.872177e-02	-1.285664e+00	-4.264430e-01	9.855630e-02	-1.279988e+00	-4.256439e-01	9.947967e-02	-1.263889e+00	-4.316123e-01	1.003422e-01	-1.230296e+00	-4.382004e-01	1.007198e-01	-1.203828e+00	-4.421860e-01	1.009794e-01	-1.180170e+00	-4.460904e-01	1.011340e-01	-1.158713e+00	-4.503614e-01	1.011736e-01	-1.134578e+00	-4.550768e-01	1.010815e-01	-1.112897e+00	-4.590445e-01	1.009170e-01	-1.085751e+00	-4.625179e-01	1.007249e-01	-1.057059e+00	-4.655035e-01	1.004079e-01	-1.028022e+00	-4.682506e-01	1.000492e-01	-9.931698e-01	-4.707612e-01	9.971373e-02	-9.629794e-01	-4.726284e-01	9.932088e-02	-9.273130e-01	-4.746621e-01	9.892048e-02	-8.949701e-01	-4.764224e-01	9.841362e-02	-8.571441e-01	-4.783178e-01	9.782210e-02	-8.188836e-01	-4.801454e-01	9.729935e-02	-7.794843e-01	-4.816679e-01	9.672200e-02	-7.399421e-01	-4.832308e-01	9.616790e-02	-6.949383e-01	-4.846198e-01	9.558950e-02	-6.494895e-01	-4.859630e-01	9.504502e-02	-6.094905e-01	-4.870992e-01	9.454805e-02	-5.648758e-01	-4.880564e-01	9.417117e-02	-5.150749e-01	-4.887505e-01	9.401468e-02	-4.704321e-01	-4.890367e-01	9.383570e-02	-4.222786e-01	-4.893398e-01	9.377152e-02	-3.761524e-01	-4.894363e-01	9.392859e-02	-3.320730e-01	-4.892068e-01	9.404788e-02	-2.873815e-01	-4.890354e-01	9.416489e-02	-2.512613e-01	-4.888753e-01
18            	-8.694460e-03	2.214763e+00	3.550876e-02	-6.713449e-03	2.293726e+00	2.555040e-02	-5.747544e-03	2.388398e+00	1.980689e-02	-5.370188e-03	2.459971e+00	1.729492e-02	-5.192435e-03	2.503427e+00	1.558359e-02	-5.024998e-03	2.535950e+00	1.325989e-02	-4.905960e-03	2.561473e+00	1.015724e-02	-4.871449e-03	2.587129e+00	6.618571e-03	-4.930989e-03	2.608625e+00	3.903033e-03	-5.082699e-03	2.634499e+00	7.279598e-04	-5.310423e-03	2.661480e+00	-2.591718e-03	-5.676432e-03	2.688835e+00	-5.760098e-03	-6.163030e-03	2.722173e+00	-9.093377e-03	-6.666071e-03	2.751877e+00	-1.188559e-02	-7.372428e-03	2.787906e+00	-1.535937e-02	-8.079298e-03	2.821350e+00	-1.836659e-02	-8.944910e-03	2.861399e+00	-2.155385e-02	-9.805245e-03	2.902843e+00	-2.427208e-02	-1.072564e-02	2.946312e+00	-2.696286e-02	-1.172468e-02	2.990764e+00	-2.966501e-02	-1.285096e-02	3.042132e+00	-3.246634e-02	-1.406453e-02	3.094699e+00	-3.525472e-02	-1.502384e-02	3.141516e+00	-3.728034e-02	-1.590923e-02	3.194202e+00	-3.902469e-02	-1.691051e-02	3.253254e+00	-4.088526e-02	-1.791158e-02	3.306227e+00	-4.265141e-02	-1.890535e-02	3.363379e+00	-4.430514e-02	-1.961597e-02	3.417908e+00	-4.543024e-02	-2.035559e-02	3.469478e+00	-4.654885e-02	-2.080308e-02	3.520911e+00	-4.718841e-02	-2.105605e-02	3.561545e+00	-4.753401e-02
19            	-6.866804e-02	2.891352e+00	2.942608e-01	-6.897442e-02	2.929284e+00	2.961051e-01	-6.956346e-02	2.991831e+00	2.999661e-01	-7.034891e-02	3.023118e+00	3.059284e-01	-7.063660e-02	3.042707e+00	3.085067e-01	-7.069573e-02	3.062285e+00	3.091570e-01	-7.068912e-02	3.081354e+00	3.087389e-01	-7.067732e-02	3.103209e+00	3.078690e-01	-7.070610e-02	3.122994e+00	3.066798e-01	-7.076653e-02	3.147921e+00	3.052503e-01	-7.086694e-02	3.174616e+00	3.034594e-01	-7.106144e-02	3.201895e+00	3.017497e-01	-7.130560e-02	3.235008e+00	3.000309e-01	-7.155872e-02	3.264172e+00	2.986079e-01	-7.185592e-02	3.298625e+00	2.970465e-01	-7.209425e-02	3.329605e+00	2.959488e-01	-7.233480e-02	3.365493e+00	2.950222e-01	-7.250357e-02	3.401208e+00	2.945350e-01	-7.265539e-02	3.437278e+00	2.940951e-01	-7.275858e-02	3.472711e+00	2.937972e-01	-7.289548e-02	3.511996e+00	2.934417e-01	-7.301545e-02	3.550530e+00	2.931403e-01	-7.307205e-02	3.583414e+00	2.930332e-01	-7.308819e-02	3.618958e+00	2.930209e-01	-7.322440e-02	3.657313e+00	2.927768e-01	-7.350487e-02	3.690459e+00	2.922782e-01	-7.376967e-02	3.724684e+00	2.918384e-01	-7.394345e-02	3.755748e+00	2.915596e-01	-7.426276e-02	3.783773e+00	2.910726e-01	-7.439559e-02	3.809872e+00	2.908830e-01	-7.446019e-02	3.826798e+00	2.907948e-01
20            	-5.585505e-02	7.242325e-01	2.400371e-01	-5.938003e-02	6.984676e-01	2.581743e-01	-6.111905e-02	6.807838e-01	2.688159e-01	-6.243104e-02	6.519531e-01	2.782128e-01	-6.298668e-02	6.409730e-01	2.830524e-01	-6.323603e-02	6.441134e-01	2.860811e-01	-6.333229e-02	6.548276e-01	2.879968e-01	-6.334181e-02	6.719009e-01	2.894507e-01	-6.331701e-02	6.897257e-01	2.906308e-01	-6.327147e-02	7.138199e-01	2.911999e-01	-6.317498e-02	7.404088e-01	2.917201e-01	-6.308603e-02	7.676934e-01	2.924285e-01	-6.289486e-02	8.004056e-01	2.935944e-01	-6.267367e-02	8.284270e-01	2.947736e-01	-6.222224e-02	8.601657e-01	2.966977e-01	-6.167783e-02	8.873818e-01	2.987900e-01	-6.094183e-02	9.173345e-01	3.013908e-01	-6.013606e-02	9.453221e-01	3.040577e-01	-5.917714e-02	9.718329e-01	3.068712e-01	-5.807613e-02	9.960131e-01	3.098104e-01	-5.681678e-02	1.020691e+00	3.129050e-01	-5.543990e-02	1.042732e+00	3.160090e-01	-5.432555e-02	1.059639e+00	3.183937e-01	-5.318996e-02	1.075941e+00	3.206833e-01	-5.200211e-02	1.091550e+00	3.229123e-01	-5.095274e-02	1.103363e+00	3.247494e-01	-4.988832e-02	1.113485e+00	3.265188e-01	-4.899275e-02	1.120510e+00	3.279325e-01	-4.816838e-02	1.125062e+00	3.291647e-01	-4.745901e-02	1.126773e+00	3.301798e-01	-4.695214e-02	1.122023e+00	3.308724e-01