/*--------------------------------*- C++ -*----------------------------------*\
  =========                 |
  \\      /  F ield         | OpenFOAM: The Open Source CFD Toolbox
   \\    /   O peration     | Website:  https://openfoam.org
    \\  /    A nd           | Version:  7
     \\/     M anipulation  |
\*---------------------------------------------------------------------------*/
FoamFile
{
    version     2.0;
    format      ascii;
    class       volScalarField;
    location    "800";
    object      nut;
}
// * * * * * * * * * * * * * * * * * * * * * * * * * * * * * * * * * * * * * //

dimensions      [0 2 -1 0 0 0 0];

internalField   nonuniform List<scalar> 
23023
(
5.44413e-06
5.44403e-06
5.45147e-06
5.41033e-06
5.45364e-06
5.45885e-06
5.38112e-06
5.41948e-06
5.46344e-06
5.46626e-06
5.38899e-06
5.42897e-06
5.47342e-06
5.47368e-06
5.36318e-06
5.39736e-06
5.43877e-06
5.48358e-06
5.48111e-06
5.37296e-06
5.36831e-06
5.40621e-06
5.44887e-06
5.49389e-06
5.48854e-06
5.44917e-06
5.37232e-06
5.37411e-06
5.41553e-06
5.45926e-06
5.50433e-06
5.49594e-06
5.54754e-06
5.44355e-06
5.37249e-06
5.38059e-06
5.42532e-06
5.46991e-06
5.51489e-06
5.5033e-06
5.62474e-06
5.546e-06
5.43763e-06
5.37344e-06
5.38774e-06
5.43554e-06
5.48081e-06
5.52555e-06
5.51062e-06
5.66858e-06
5.62923e-06
5.5436e-06
5.43155e-06
5.37519e-06
5.39554e-06
5.4462e-06
5.49195e-06
5.5363e-06
5.51789e-06
5.67867e-06
5.63301e-06
5.54031e-06
5.42552e-06
5.37777e-06
5.40399e-06
5.45727e-06
5.5033e-06
5.54711e-06
5.52508e-06
5.68809e-06
5.68832e-06
5.636e-06
5.53614e-06
5.41975e-06
5.38119e-06
5.41306e-06
5.46873e-06
5.51485e-06
5.55797e-06
5.53219e-06
5.65934e-06
5.70235e-06
5.69747e-06
5.63816e-06
5.53111e-06
5.41451e-06
5.38548e-06
5.42276e-06
5.48057e-06
5.52658e-06
5.56887e-06
5.5392e-06
5.60303e-06
5.67611e-06
5.71646e-06
5.70606e-06
5.63943e-06
5.52526e-06
5.40996e-06
5.39065e-06
5.43305e-06
5.49275e-06
5.53846e-06
5.57978e-06
5.54611e-06
5.53322e-06
5.62003e-06
5.69308e-06
5.73036e-06
5.71403e-06
5.63977e-06
5.51864e-06
5.40656e-06
5.39671e-06
5.44393e-06
5.50527e-06
5.55048e-06
5.59068e-06
5.5529e-06
5.54869e-06
5.63747e-06
5.71019e-06
5.744e-06
5.72133e-06
5.63913e-06
5.51134e-06
5.40431e-06
5.40365e-06
5.45537e-06
5.5181e-06
5.56261e-06
5.60157e-06
5.55956e-06
5.47494e-06
5.56472e-06
5.65533e-06
5.72741e-06
5.75731e-06
5.72789e-06
5.63746e-06
5.50349e-06
5.40325e-06
5.41147e-06
5.46735e-06
5.53122e-06
5.57484e-06
5.61242e-06
5.56608e-06
5.40735e-06
5.48847e-06
5.58131e-06
5.67359e-06
5.74469e-06
5.77024e-06
5.73364e-06
5.63475e-06
5.49521e-06
5.40338e-06
5.42014e-06
5.47985e-06
5.5446e-06
5.58715e-06
5.62321e-06
5.57245e-06
5.41793e-06
5.50259e-06
5.59846e-06
5.69222e-06
5.76199e-06
5.78272e-06
5.73853e-06
5.63097e-06
5.48667e-06
5.40469e-06
5.42963e-06
5.49284e-06
5.55822e-06
5.59952e-06
5.63393e-06
5.57866e-06
5.35851e-06
5.42907e-06
5.5173e-06
5.61615e-06
5.7112e-06
5.77925e-06
5.79469e-06
5.7425e-06
5.62611e-06
5.47809e-06
5.40714e-06
5.43994e-06
5.5063e-06
5.57206e-06
5.61192e-06
5.64456e-06
5.5847e-06
5.31435e-06
5.36655e-06
5.44078e-06
5.53262e-06
5.63439e-06
5.73048e-06
5.79641e-06
5.80609e-06
5.74547e-06
5.62018e-06
5.46972e-06
5.41073e-06
5.45102e-06
5.5202e-06
5.58609e-06
5.62434e-06
5.65509e-06
5.59056e-06
5.29178e-06
5.3192e-06
5.3751e-06
5.45308e-06
5.54854e-06
5.65315e-06
5.75005e-06
5.81342e-06
5.81683e-06
5.74739e-06
5.61321e-06
5.46177e-06
5.41546e-06
5.46286e-06
5.53452e-06
5.60029e-06
5.63675e-06
5.6655e-06
5.59623e-06
5.30076e-06
5.29318e-06
5.32452e-06
5.38419e-06
5.46597e-06
5.56508e-06
5.67243e-06
5.76986e-06
5.83021e-06
5.82686e-06
5.7482e-06
5.60523e-06
5.45461e-06
5.42133e-06
5.47542e-06
5.54922e-06
5.61463e-06
5.64914e-06
5.67577e-06
5.60171e-06
5.2988e-06
5.29499e-06
5.33032e-06
5.39383e-06
5.47946e-06
5.58223e-06
5.69222e-06
5.78986e-06
5.84673e-06
5.8361e-06
5.74786e-06
5.59632e-06
5.44852e-06
5.42835e-06
5.48867e-06
5.56428e-06
5.6291e-06
5.66149e-06
5.68588e-06
5.60697e-06
5.32411e-06
5.29695e-06
5.29722e-06
5.33663e-06
5.40403e-06
5.49356e-06
5.59999e-06
5.71248e-06
5.81002e-06
5.8629e-06
5.84448e-06
5.74631e-06
5.58658e-06
5.44388e-06
5.43649e-06
5.50259e-06
5.57967e-06
5.64366e-06
5.67377e-06
5.69583e-06
5.61203e-06
5.34066e-06
5.32253e-06
5.29528e-06
5.29991e-06
5.34344e-06
5.41479e-06
5.50829e-06
5.61837e-06
5.73321e-06
5.83029e-06
5.87865e-06
5.85192e-06
5.74351e-06
5.57614e-06
5.44088e-06
5.44573e-06
5.51713e-06
5.59536e-06
5.6583e-06
5.68597e-06
5.70559e-06
5.61686e-06
5.34064e-06
5.32075e-06
5.29388e-06
5.30307e-06
5.35079e-06
5.42614e-06
5.52365e-06
5.63736e-06
5.75438e-06
5.8506e-06
5.89392e-06
5.85836e-06
5.73944e-06
5.56515e-06
5.4395e-06
5.45606e-06
5.53228e-06
5.61133e-06
5.67298e-06
5.69807e-06
5.71516e-06
5.62147e-06
5.34693e-06
5.34043e-06
5.31878e-06
5.29281e-06
5.30673e-06
5.35866e-06
5.43808e-06
5.53965e-06
5.65695e-06
5.77595e-06
5.87091e-06
5.90862e-06
5.86371e-06
5.73409e-06
5.55379e-06
5.43983e-06
5.46742e-06
5.54799e-06
5.62754e-06
5.68768e-06
5.71004e-06
5.72451e-06
5.62584e-06
5.34446e-06
5.34789e-06
5.34002e-06
5.31663e-06
5.29221e-06
5.3109e-06
5.36709e-06
5.45063e-06
5.55629e-06
5.67715e-06
5.79791e-06
5.89116e-06
5.92268e-06
5.86792e-06
5.72743e-06
5.54231e-06
5.44177e-06
5.47979e-06
5.56422e-06
5.64395e-06
5.70238e-06
5.72188e-06
5.73364e-06
5.62997e-06
5.34608e-06
5.34873e-06
5.33939e-06
5.31434e-06
5.29211e-06
5.31559e-06
5.37608e-06
5.4638e-06
5.57359e-06
5.69794e-06
5.82021e-06
5.91127e-06
5.93602e-06
5.87091e-06
5.7195e-06
5.53093e-06
5.44526e-06
5.49311e-06
5.58095e-06
5.66056e-06
5.71705e-06
5.73356e-06
5.74253e-06
5.63385e-06
5.33808e-06
5.34763e-06
5.34942e-06
5.33855e-06
5.31194e-06
5.29251e-06
5.32082e-06
5.38564e-06
5.4776e-06
5.59154e-06
5.7193e-06
5.84281e-06
5.93119e-06
5.94856e-06
5.87261e-06
5.71032e-06
5.51996e-06
5.45027e-06
5.50735e-06
5.59813e-06
5.67732e-06
5.73168e-06
5.74506e-06
5.75117e-06
5.63747e-06
5.32669e-06
5.33995e-06
5.3491e-06
5.34997e-06
5.33747e-06
5.30947e-06
5.29346e-06
5.3266e-06
5.39578e-06
5.49203e-06
5.61016e-06
5.74124e-06
5.86567e-06
5.95084e-06
5.96022e-06
5.87296e-06
5.69996e-06
5.5097e-06
5.45676e-06
5.52246e-06
5.61573e-06
5.6942e-06
5.74623e-06
5.75637e-06
5.75955e-06
5.64084e-06
5.32859e-06
5.34179e-06
5.35049e-06
5.35036e-06
5.33617e-06
5.30698e-06
5.29494e-06
5.33293e-06
5.40652e-06
5.50711e-06
5.62943e-06
5.76372e-06
5.88875e-06
5.97014e-06
5.9709e-06
5.87191e-06
5.68848e-06
5.50054e-06
5.46471e-06
5.53839e-06
5.63372e-06
5.71117e-06
5.76069e-06
5.76748e-06
5.76765e-06
5.64395e-06
5.31598e-06
5.33049e-06
5.34359e-06
5.35179e-06
5.35058e-06
5.33463e-06
5.30452e-06
5.29695e-06
5.33983e-06
5.41786e-06
5.52285e-06
5.64937e-06
5.78673e-06
5.912e-06
5.98903e-06
5.98054e-06
5.86941e-06
5.67601e-06
5.49285e-06
5.47408e-06
5.5551e-06
5.65205e-06
5.72821e-06
5.77502e-06
5.77835e-06
5.77546e-06
5.64678e-06
5.30385e-06
5.31772e-06
5.33237e-06
5.34534e-06
5.35299e-06
5.35062e-06
5.33287e-06
5.30216e-06
5.2995e-06
5.34731e-06
5.42982e-06
5.53925e-06
5.66998e-06
5.81025e-06
5.93535e-06
6.00741e-06
5.98904e-06
5.86542e-06
5.66268e-06
5.48694e-06
5.48484e-06
5.57255e-06
5.67069e-06
5.74529e-06
5.78922e-06
5.78899e-06
5.78297e-06
5.64935e-06
5.30531e-06
5.31947e-06
5.33425e-06
5.34704e-06
5.35407e-06
5.35046e-06
5.33089e-06
5.29997e-06
5.30262e-06
5.35537e-06
5.4424e-06
5.55633e-06
5.69124e-06
5.83425e-06
5.95875e-06
6.0252e-06
5.99632e-06
5.85991e-06
5.64867e-06
5.48326e-06
5.49694e-06
5.59068e-06
5.6896e-06
5.76237e-06
5.80325e-06
5.79937e-06
5.79018e-06
5.65164e-06
5.29449e-06
5.3068e-06
5.32124e-06
5.33611e-06
5.34868e-06
5.35504e-06
5.3501e-06
5.3287e-06
5.29803e-06
5.3063e-06
5.36402e-06
5.45562e-06
5.5741e-06
5.71316e-06
5.8587e-06
5.98214e-06
6.04231e-06
6.00229e-06
5.85287e-06
5.63417e-06
5.48175e-06
5.51033e-06
5.60945e-06
5.70875e-06
5.77944e-06
5.8171e-06
5.80947e-06
5.79706e-06
5.65366e-06
5.28607e-06
5.29564e-06
5.3083e-06
5.32301e-06
5.33794e-06
5.35026e-06
5.35587e-06
5.34953e-06
5.32632e-06
5.29644e-06
5.31057e-06
5.37327e-06
5.46949e-06
5.59255e-06
5.73572e-06
5.88356e-06
6.00544e-06
6.05866e-06
6.00688e-06
5.84431e-06
5.61943e-06
5.48248e-06
5.52496e-06
5.62882e-06
5.7281e-06
5.79645e-06
5.83074e-06
5.81929e-06
5.80362e-06
5.65539e-06
5.28054e-06
5.2869e-06
5.29681e-06
5.30983e-06
5.32478e-06
5.33975e-06
5.35176e-06
5.35657e-06
5.34875e-06
5.32378e-06
5.29529e-06
5.31543e-06
5.38313e-06
5.48401e-06
5.6117e-06
5.75893e-06
5.9088e-06
6.02859e-06
6.07415e-06
6.01001e-06
5.83423e-06
5.60474e-06
5.48534e-06
5.54076e-06
5.64874e-06
5.74761e-06
5.81339e-06
5.84415e-06
5.82882e-06
5.80985e-06
5.65684e-06
5.2778e-06
5.28111e-06
5.28774e-06
5.298e-06
5.31137e-06
5.32655e-06
5.34153e-06
5.35318e-06
5.35711e-06
5.34774e-06
5.32109e-06
5.29465e-06
5.32092e-06
5.39361e-06
5.49921e-06
5.63154e-06
5.78276e-06
5.93438e-06
6.05151e-06
6.08869e-06
6.0116e-06
5.8227e-06
5.59037e-06
5.49024e-06
5.55767e-06
5.66915e-06
5.76725e-06
5.83022e-06
5.85732e-06
5.83802e-06
5.81573e-06
5.65801e-06
5.27714e-06
5.27827e-06
5.28169e-06
5.28859e-06
5.29922e-06
5.31292e-06
5.32832e-06
5.34326e-06
5.35451e-06
5.3575e-06
5.34649e-06
5.31831e-06
5.2947e-06
5.32702e-06
5.40472e-06
5.51508e-06
5.6521e-06
5.80721e-06
5.96024e-06
6.07411e-06
6.10218e-06
6.01159e-06
5.80977e-06
5.57668e-06
5.49708e-06
5.57563e-06
5.69002e-06
5.78698e-06
5.84692e-06
5.87022e-06
5.8469e-06
5.82125e-06
5.65889e-06
5.27735e-06
5.27765e-06
5.27872e-06
5.28227e-06
5.28945e-06
5.30045e-06
5.31448e-06
5.33007e-06
5.34495e-06
5.35575e-06
5.35771e-06
5.34502e-06
5.31546e-06
5.29543e-06
5.33376e-06
5.41647e-06
5.53163e-06
5.67335e-06
5.83225e-06
5.98634e-06
6.09632e-06
6.11453e-06
6.00992e-06
5.79554e-06
5.56406e-06
5.5058e-06
5.59457e-06
5.7113e-06
5.80677e-06
5.86346e-06
5.88284e-06
5.85545e-06
5.82642e-06
5.65948e-06
5.27804e-06
5.27815e-06
5.27917e-06
5.28285e-06
5.29033e-06
5.30169e-06
5.31605e-06
5.33181e-06
5.34659e-06
5.35688e-06
5.35775e-06
5.34332e-06
5.31261e-06
5.29686e-06
5.34113e-06
5.42887e-06
5.54888e-06
5.69532e-06
5.85787e-06
6.01263e-06
6.11804e-06
6.12563e-06
6.00654e-06
5.78014e-06
5.55288e-06
5.51632e-06
5.61444e-06
5.73294e-06
5.82657e-06
5.87982e-06
5.89515e-06
5.86364e-06
5.83122e-06
5.65978e-06
5.27808e-06
5.27871e-06
5.27863e-06
5.2796e-06
5.28343e-06
5.29122e-06
5.30295e-06
5.31763e-06
5.33353e-06
5.34817e-06
5.35789e-06
5.3576e-06
5.34139e-06
5.3098e-06
5.299e-06
5.34915e-06
5.44192e-06
5.56684e-06
5.71799e-06
5.88404e-06
6.03903e-06
6.13917e-06
6.1354e-06
6.00141e-06
5.76371e-06
5.54362e-06
5.52857e-06
5.63515e-06
5.75489e-06
5.84636e-06
5.89597e-06
5.90714e-06
5.87147e-06
5.83566e-06
5.6598e-06
5.27688e-06
5.27898e-06
5.27936e-06
5.27909e-06
5.28002e-06
5.28401e-06
5.29212e-06
5.30423e-06
5.31921e-06
5.33523e-06
5.34969e-06
5.35878e-06
5.35725e-06
5.33925e-06
5.3071e-06
5.30184e-06
5.35782e-06
5.45564e-06
5.58551e-06
5.74137e-06
5.91073e-06
6.0655e-06
6.15963e-06
6.14373e-06
5.99449e-06
5.74644e-06
5.53654e-06
5.5425e-06
5.65666e-06
5.77711e-06
5.86611e-06
5.91188e-06
5.91879e-06
5.87894e-06
5.83971e-06
5.65952e-06
5.27797e-06
5.27987e-06
5.27999e-06
5.27953e-06
5.28043e-06
5.2846e-06
5.29304e-06
5.30552e-06
5.32079e-06
5.3369e-06
5.35114e-06
5.35955e-06
5.35669e-06
5.3369e-06
5.30459e-06
5.30537e-06
5.36714e-06
5.47003e-06
5.6049e-06
5.76544e-06
5.93791e-06
6.09194e-06
6.17932e-06
6.15052e-06
5.9858e-06
5.72856e-06
5.5323e-06
5.55803e-06
5.67891e-06
5.79955e-06
5.88577e-06
5.92754e-06
5.93008e-06
5.88602e-06
5.84339e-06
5.65896e-06
5.27542e-06
5.27907e-06
5.28075e-06
5.2806e-06
5.27994e-06
5.28082e-06
5.28518e-06
5.29396e-06
5.30682e-06
5.32236e-06
5.33854e-06
5.35251e-06
5.36017e-06
5.35593e-06
5.33436e-06
5.30234e-06
5.3096e-06
5.37711e-06
5.48511e-06
5.62501e-06
5.79021e-06
5.96554e-06
6.1183e-06
6.19812e-06
6.1557e-06
5.97532e-06
5.71032e-06
5.53088e-06
5.57507e-06
5.70182e-06
5.82217e-06
5.90532e-06
5.94291e-06
5.94101e-06
5.89271e-06
5.84667e-06
5.65811e-06
5.27182e-06
5.27662e-06
5.28017e-06
5.28162e-06
5.28119e-06
5.28033e-06
5.2812e-06
5.28576e-06
5.2949e-06
5.30813e-06
5.32393e-06
5.34014e-06
5.35379e-06
5.36064e-06
5.35495e-06
5.33165e-06
5.30046e-06
5.31451e-06
5.38775e-06
5.50088e-06
5.64586e-06
5.81566e-06
5.99359e-06
6.14449e-06
6.21594e-06
6.15917e-06
5.9631e-06
5.69202e-06
5.53225e-06
5.59356e-06
5.72535e-06
5.84493e-06
5.92473e-06
5.95799e-06
5.95155e-06
5.89901e-06
5.84957e-06
5.65698e-06
5.26803e-06
5.27302e-06
5.27785e-06
5.28127e-06
5.28247e-06
5.28175e-06
5.28069e-06
5.28157e-06
5.28635e-06
5.29584e-06
5.30944e-06
5.32549e-06
5.34169e-06
5.35498e-06
5.36095e-06
5.35375e-06
5.32881e-06
5.299e-06
5.32012e-06
5.39906e-06
5.51736e-06
5.66745e-06
5.84178e-06
6.02201e-06
6.17042e-06
6.23267e-06
6.16085e-06
5.94918e-06
5.67397e-06
5.53636e-06
5.61339e-06
5.74942e-06
5.86777e-06
5.94395e-06
5.97273e-06
5.96169e-06
5.9049e-06
5.85208e-06
5.65556e-06
5.26478e-06
5.26916e-06
5.27425e-06
5.27909e-06
5.28237e-06
5.2833e-06
5.28228e-06
5.28102e-06
5.28192e-06
5.28693e-06
5.2968e-06
5.31076e-06
5.32703e-06
5.3432e-06
5.35607e-06
5.3611e-06
5.35233e-06
5.32585e-06
5.29811e-06
5.32644e-06
5.41104e-06
5.53454e-06
5.68978e-06
5.86856e-06
6.05075e-06
6.19601e-06
6.24819e-06
6.16066e-06
5.93364e-06
5.65653e-06
5.54303e-06
5.63449e-06
5.77399e-06
5.89067e-06
5.96297e-06
5.98712e-06
5.97141e-06
5.91037e-06
5.85419e-06
5.65385e-06
5.26231e-06
5.26582e-06
5.27032e-06
5.27551e-06
5.28035e-06
5.28347e-06
5.2841e-06
5.28277e-06
5.28133e-06
5.28225e-06
5.28752e-06
5.29776e-06
5.31208e-06
5.32855e-06
5.34464e-06
5.35705e-06
5.36107e-06
5.35069e-06
5.32283e-06
5.29787e-06
5.33346e-06
5.42371e-06
5.55245e-06
5.71285e-06
5.89598e-06
6.07976e-06
6.22116e-06
6.2624e-06
6.15855e-06
5.91659e-06
5.6401e-06
5.55213e-06
5.65677e-06
5.79899e-06
5.91357e-06
5.98175e-06
6.00115e-06
5.98071e-06
5.91543e-06
5.85591e-06
5.65187e-06
5.26044e-06
5.26328e-06
5.26689e-06
5.27151e-06
5.2768e-06
5.28161e-06
5.28455e-06
5.28488e-06
5.28323e-06
5.2816e-06
5.28257e-06
5.28811e-06
5.29874e-06
5.31341e-06
5.33005e-06
5.34603e-06
5.35792e-06
5.36087e-06
5.34883e-06
5.31978e-06
5.2984e-06
5.34119e-06
5.43706e-06
5.57108e-06
5.73667e-06
5.92402e-06
6.10897e-06
6.24577e-06
6.27518e-06
6.15445e-06
5.89817e-06
5.62514e-06
5.56354e-06
5.68015e-06
5.82436e-06
5.93643e-06
6.00026e-06
6.01479e-06
5.98956e-06
5.92006e-06
5.85723e-06
5.6496e-06
5.25886e-06
5.26137e-06
5.26428e-06
5.26799e-06
5.27274e-06
5.27811e-06
5.28288e-06
5.28563e-06
5.28563e-06
5.28365e-06
5.28185e-06
5.28287e-06
5.2887e-06
5.29972e-06
5.31473e-06
5.33152e-06
5.34735e-06
5.35866e-06
5.36047e-06
5.34677e-06
5.31676e-06
5.29979e-06
5.34964e-06
5.45111e-06
5.59045e-06
5.76123e-06
5.95265e-06
6.13832e-06
6.26974e-06
6.28643e-06
6.14834e-06
5.87854e-06
5.612e-06
5.57714e-06
5.70453e-06
5.85004e-06
5.95922e-06
6.01847e-06
6.02801e-06
5.99797e-06
5.92426e-06
5.85814e-06
5.64706e-06
5.25741e-06
5.25977e-06
5.26233e-06
5.2653e-06
5.26912e-06
5.27399e-06
5.27943e-06
5.28416e-06
5.28668e-06
5.28634e-06
5.28404e-06
5.28206e-06
5.28316e-06
5.28928e-06
5.3007e-06
5.31604e-06
5.33295e-06
5.34859e-06
5.35928e-06
5.35989e-06
5.3445e-06
5.31383e-06
5.30203e-06
5.35881e-06
5.46586e-06
5.61057e-06
5.78654e-06
5.98184e-06
6.16774e-06
6.29295e-06
6.29603e-06
6.14017e-06
5.85791e-06
5.60123e-06
5.59282e-06
5.72984e-06
5.87599e-06
5.9819e-06
6.03636e-06
6.04081e-06
6.00591e-06
5.92803e-06
5.85866e-06
5.64424e-06
5.25605e-06
5.25829e-06
5.26071e-06
5.26332e-06
5.26636e-06
5.27027e-06
5.27526e-06
5.28078e-06
5.28544e-06
5.28772e-06
5.28702e-06
5.28438e-06
5.28224e-06
5.28343e-06
5.28987e-06
5.30169e-06
5.31735e-06
5.33435e-06
5.34975e-06
5.35975e-06
5.3591e-06
5.34205e-06
5.31104e-06
5.30515e-06
5.36869e-06
5.48131e-06
5.63144e-06
5.81258e-06
6.01157e-06
6.19716e-06
6.3153e-06
6.30388e-06
6.12995e-06
5.83651e-06
5.59325e-06
5.61048e-06
5.75599e-06
5.90214e-06
6.00442e-06
6.05389e-06
6.05317e-06
6.01338e-06
5.93136e-06
5.85878e-06
5.64116e-06
5.25482e-06
5.2569e-06
5.25921e-06
5.26168e-06
5.26434e-06
5.26745e-06
5.27146e-06
5.27656e-06
5.28214e-06
5.28672e-06
5.28873e-06
5.28766e-06
5.28467e-06
5.28238e-06
5.28369e-06
5.29046e-06
5.30268e-06
5.31864e-06
5.33571e-06
5.35083e-06
5.36009e-06
5.35812e-06
5.33943e-06
5.30848e-06
5.30912e-06
5.37928e-06
5.49749e-06
5.65306e-06
5.83936e-06
6.04179e-06
6.22649e-06
6.33667e-06
6.30988e-06
6.11769e-06
5.81461e-06
5.58859e-06
5.63001e-06
5.78291e-06
5.92844e-06
6.02674e-06
6.07105e-06
6.06506e-06
6.02036e-06
5.93425e-06
5.85851e-06
5.6378e-06
5.25376e-06
5.25565e-06
5.25779e-06
5.26016e-06
5.26268e-06
5.26538e-06
5.26856e-06
5.27267e-06
5.27789e-06
5.28352e-06
5.28799e-06
5.28972e-06
5.28825e-06
5.28492e-06
5.28249e-06
5.28394e-06
5.29106e-06
5.30368e-06
5.31992e-06
5.33702e-06
5.35181e-06
5.36027e-06
5.35694e-06
5.33666e-06
5.30622e-06
5.31392e-06
5.3906e-06
5.51439e-06
5.67546e-06
5.86686e-06
6.07247e-06
6.25565e-06
6.35694e-06
6.31392e-06
6.10342e-06
5.79254e-06
5.58744e-06
5.65131e-06
5.81052e-06
5.95483e-06
6.04883e-06
6.0878e-06
6.07648e-06
6.02686e-06
5.93669e-06
5.85783e-06
5.63419e-06
5.25286e-06
5.25457e-06
5.25651e-06
5.25872e-06
5.26114e-06
5.2637e-06
5.26645e-06
5.26969e-06
5.27391e-06
5.27924e-06
5.2849e-06
5.28925e-06
5.29067e-06
5.2888e-06
5.28512e-06
5.28257e-06
5.28417e-06
5.29165e-06
5.30468e-06
5.32119e-06
5.33828e-06
5.3527e-06
5.3603e-06
5.35555e-06
5.33377e-06
5.30435e-06
5.31953e-06
5.40264e-06
5.53203e-06
5.69862e-06
5.89507e-06
6.10355e-06
6.28455e-06
6.37599e-06
6.31592e-06
6.08721e-06
5.77062e-06
5.58969e-06
5.67425e-06
5.83874e-06
5.98127e-06
6.07066e-06
6.10412e-06
6.0874e-06
6.03286e-06
5.93868e-06
5.85678e-06
5.63028e-06
5.25214e-06
5.25365e-06
5.25541e-06
5.25741e-06
5.25967e-06
5.26215e-06
5.26476e-06
5.26755e-06
5.27085e-06
5.27517e-06
5.2806e-06
5.2863e-06
5.2905e-06
5.29159e-06
5.2893e-06
5.28528e-06
5.28261e-06
5.28438e-06
5.29224e-06
5.30567e-06
5.32243e-06
5.33949e-06
5.35348e-06
5.36016e-06
5.35396e-06
5.33079e-06
5.30298e-06
5.32595e-06
5.41539e-06
5.55041e-06
5.72256e-06
5.92398e-06
6.13498e-06
6.31307e-06
6.3937e-06
6.31579e-06
6.06914e-06
5.74922e-06
5.59534e-06
5.69873e-06
5.8675e-06
6.0077e-06
6.09218e-06
6.11999e-06
6.09781e-06
6.03834e-06
5.94024e-06
5.85527e-06
5.62611e-06
5.25161e-06
5.25292e-06
5.25448e-06
5.25628e-06
5.25835e-06
5.26067e-06
5.26319e-06
5.26584e-06
5.26867e-06
5.27204e-06
5.27645e-06
5.28199e-06
5.28769e-06
5.29174e-06
5.29247e-06
5.28974e-06
5.28538e-06
5.28262e-06
5.28458e-06
5.29283e-06
5.30667e-06
5.32365e-06
5.34063e-06
5.35415e-06
5.35986e-06
5.35218e-06
5.32776e-06
5.30216e-06
5.33317e-06
5.42888e-06
5.56953e-06
5.74727e-06
5.95357e-06
6.16672e-06
6.34113e-06
6.40994e-06
6.31347e-06
6.04933e-06
5.72879e-06
5.60414e-06
5.72464e-06
5.89672e-06
6.03408e-06
6.11336e-06
6.13538e-06
6.10769e-06
6.04334e-06
5.94131e-06
5.85335e-06
5.62179e-06
5.25128e-06
5.25238e-06
5.25373e-06
5.25533e-06
5.25719e-06
5.25931e-06
5.26169e-06
5.26426e-06
5.26695e-06
5.26982e-06
5.27324e-06
5.27775e-06
5.28339e-06
5.28909e-06
5.29295e-06
5.29331e-06
5.29013e-06
5.28543e-06
5.28259e-06
5.28478e-06
5.29343e-06
5.30765e-06
5.32484e-06
5.34171e-06
5.3547e-06
5.35939e-06
5.35021e-06
5.32472e-06
5.30205e-06
5.34118e-06
5.44309e-06
5.58942e-06
5.77277e-06
5.98382e-06
6.19869e-06
6.36862e-06
6.42457e-06
6.30889e-06
6.02793e-06
5.70973e-06
5.61591e-06
5.75187e-06
5.92634e-06
6.06034e-06
6.13418e-06
6.15026e-06
6.11707e-06
6.04777e-06
5.94187e-06
5.85112e-06
5.61726e-06
5.25118e-06
5.25206e-06
5.25319e-06
5.25458e-06
5.25623e-06
5.25814e-06
5.26031e-06
5.26274e-06
5.26536e-06
5.26808e-06
5.27098e-06
5.27447e-06
5.27907e-06
5.2848e-06
5.29049e-06
5.29414e-06
5.2941e-06
5.29046e-06
5.28543e-06
5.28253e-06
5.28495e-06
5.29402e-06
5.30864e-06
5.326e-06
5.34271e-06
5.35513e-06
5.35874e-06
5.34806e-06
5.32172e-06
5.30273e-06
5.34998e-06
5.45803e-06
5.61007e-06
5.79904e-06
6.0147e-06
6.23082e-06
6.39541e-06
6.43749e-06
6.30202e-06
6.00512e-06
5.69253e-06
5.63047e-06
5.7803e-06
5.95627e-06
6.08645e-06
6.15458e-06
6.16466e-06
6.12586e-06
6.0516e-06
5.94206e-06
5.84856e-06
5.61254e-06
5.25198e-06
5.25287e-06
5.25403e-06
5.25546e-06
5.25715e-06
5.25912e-06
5.26134e-06
5.26382e-06
5.26648e-06
5.26924e-06
5.27217e-06
5.27571e-06
5.28041e-06
5.28622e-06
5.29189e-06
5.2953e-06
5.29485e-06
5.29073e-06
5.28537e-06
5.28243e-06
5.28512e-06
5.29461e-06
5.30961e-06
5.32713e-06
5.34364e-06
5.35543e-06
5.35791e-06
5.34574e-06
5.31881e-06
5.30432e-06
5.35956e-06
5.47371e-06
5.6315e-06
5.82609e-06
6.04619e-06
6.26305e-06
6.42138e-06
6.44857e-06
6.29281e-06
5.98112e-06
5.67764e-06
5.64764e-06
5.80982e-06
5.98645e-06
6.11235e-06
6.17457e-06
6.17849e-06
6.13397e-06
6.05496e-06
5.94187e-06
5.84566e-06
5.60763e-06
5.25217e-06
5.25281e-06
5.25372e-06
5.25491e-06
5.25637e-06
5.25812e-06
5.26013e-06
5.2624e-06
5.26493e-06
5.26763e-06
5.27041e-06
5.27337e-06
5.27697e-06
5.28177e-06
5.28766e-06
5.29328e-06
5.29643e-06
5.29553e-06
5.29094e-06
5.28526e-06
5.28231e-06
5.28528e-06
5.29521e-06
5.31058e-06
5.32822e-06
5.34449e-06
5.3556e-06
5.35691e-06
5.34328e-06
5.31605e-06
5.30692e-06
5.36993e-06
5.49013e-06
5.6537e-06
5.85391e-06
6.07825e-06
6.29528e-06
6.44642e-06
6.45768e-06
6.28128e-06
5.95619e-06
5.66563e-06
5.66728e-06
5.84035e-06
6.01681e-06
6.13802e-06
6.19409e-06
6.19161e-06
6.14155e-06
6.05786e-06
5.94128e-06
5.84242e-06
5.60255e-06
5.25303e-06
5.25368e-06
5.25461e-06
5.25582e-06
5.25732e-06
5.25911e-06
5.26117e-06
5.26349e-06
5.26607e-06
5.2688e-06
5.27161e-06
5.27459e-06
5.27824e-06
5.28314e-06
5.2891e-06
5.29465e-06
5.29753e-06
5.29616e-06
5.29108e-06
5.28509e-06
5.28215e-06
5.28543e-06
5.29581e-06
5.31154e-06
5.32927e-06
5.34525e-06
5.35564e-06
5.35573e-06
5.34068e-06
5.3135e-06
5.31048e-06
5.38107e-06
5.5073e-06
5.67669e-06
5.8825e-06
6.11084e-06
6.32744e-06
6.47039e-06
6.4647e-06
6.26743e-06
5.93062e-06
5.65699e-06
5.68924e-06
5.87175e-06
6.04729e-06
6.16342e-06
6.21291e-06
6.20414e-06
6.14863e-06
6.06027e-06
5.94029e-06
5.83886e-06
5.5973e-06
5.2536e-06
5.25393e-06
5.25458e-06
5.25552e-06
5.25676e-06
5.2583e-06
5.26013e-06
5.26224e-06
5.26461e-06
5.26723e-06
5.27e-06
5.27282e-06
5.27582e-06
5.27953e-06
5.28452e-06
5.29054e-06
5.29602e-06
5.29858e-06
5.29673e-06
5.29115e-06
5.28487e-06
5.28196e-06
5.28557e-06
5.2964e-06
5.31248e-06
5.33027e-06
5.34593e-06
5.35553e-06
5.35438e-06
5.33797e-06
5.31125e-06
5.31505e-06
5.39298e-06
5.52522e-06
5.70048e-06
5.91185e-06
6.14392e-06
6.35943e-06
6.49317e-06
6.46954e-06
6.2513e-06
5.90472e-06
5.65213e-06
5.71336e-06
5.90395e-06
6.07789e-06
6.18825e-06
6.23115e-06
6.21615e-06
6.15516e-06
6.06219e-06
5.93892e-06
5.83498e-06
5.59188e-06
5.25453e-06
5.25485e-06
5.25551e-06
5.25647e-06
5.25774e-06
5.25931e-06
5.26119e-06
5.26334e-06
5.26576e-06
5.26842e-06
5.27122e-06
5.27405e-06
5.27707e-06
5.28084e-06
5.28591e-06
5.29199e-06
5.29736e-06
5.2996e-06
5.29724e-06
5.29116e-06
5.2846e-06
5.28174e-06
5.28571e-06
5.297e-06
5.31341e-06
5.33122e-06
5.3465e-06
5.35528e-06
5.35286e-06
5.33519e-06
5.30937e-06
5.32059e-06
5.40566e-06
5.54391e-06
5.72506e-06
5.94194e-06
6.17744e-06
6.39116e-06
6.5146e-06
6.47209e-06
6.23297e-06
5.87886e-06
5.65152e-06
5.73951e-06
5.93696e-06
6.10822e-06
6.21256e-06
6.24891e-06
6.22758e-06
6.16113e-06
6.06362e-06
5.93715e-06
5.83078e-06
5.58631e-06
5.2555e-06
5.25581e-06
5.25647e-06
5.25745e-06
5.25874e-06
5.26036e-06
5.26227e-06
5.26447e-06
5.26694e-06
5.26963e-06
5.27245e-06
5.2753e-06
5.27833e-06
5.28215e-06
5.28731e-06
5.29344e-06
5.29868e-06
5.30056e-06
5.29768e-06
5.2911e-06
5.28427e-06
5.2815e-06
5.28584e-06
5.2976e-06
5.31432e-06
5.33212e-06
5.34698e-06
5.35489e-06
5.35117e-06
5.33235e-06
5.30794e-06
5.32705e-06
5.41912e-06
5.56337e-06
5.75044e-06
5.97277e-06
6.21136e-06
6.4225e-06
6.53457e-06
6.47225e-06
6.21253e-06
5.85344e-06
5.65496e-06
5.76767e-06
5.9703e-06
6.13824e-06
6.2365e-06
6.26609e-06
6.23841e-06
6.16654e-06
6.06457e-06
5.93501e-06
5.82628e-06
5.58059e-06
5.25649e-06
5.2568e-06
5.25746e-06
5.25845e-06
5.25978e-06
5.26143e-06
5.26339e-06
5.26563e-06
5.26814e-06
5.27087e-06
5.27371e-06
5.27656e-06
5.27961e-06
5.28348e-06
5.28872e-06
5.29488e-06
5.29998e-06
5.30148e-06
5.29805e-06
5.29096e-06
5.28388e-06
5.28123e-06
5.28597e-06
5.29819e-06
5.31521e-06
5.33297e-06
5.34736e-06
5.35434e-06
5.34932e-06
5.3295e-06
5.30706e-06
5.33442e-06
5.43333e-06
5.5836e-06
5.77663e-06
6.00431e-06
6.2456e-06
6.45336e-06
6.55292e-06
6.46995e-06
6.19009e-06
5.8289e-06
5.66258e-06
5.79735e-06
6.00384e-06
6.16815e-06
6.25996e-06
6.28266e-06
6.24861e-06
6.17139e-06
6.06503e-06
5.9325e-06
5.82147e-06
5.57474e-06
5.25764e-06
5.25751e-06
5.25781e-06
5.25848e-06
5.25949e-06
5.26084e-06
5.26253e-06
5.26453e-06
5.26681e-06
5.26936e-06
5.27212e-06
5.27498e-06
5.27783e-06
5.28089e-06
5.28481e-06
5.29014e-06
5.29632e-06
5.30125e-06
5.30233e-06
5.29834e-06
5.29075e-06
5.28344e-06
5.28093e-06
5.28609e-06
5.29879e-06
5.31608e-06
5.33375e-06
5.34763e-06
5.35365e-06
5.34733e-06
5.32668e-06
5.30683e-06
5.34268e-06
5.44832e-06
5.60462e-06
5.80363e-06
6.03655e-06
6.28011e-06
6.48361e-06
6.56952e-06
6.4651e-06
6.1659e-06
5.80558e-06
5.67396e-06
5.82829e-06
6.03778e-06
6.19778e-06
6.28287e-06
6.2986e-06
6.2582e-06
6.17567e-06
6.06501e-06
5.92962e-06
5.81638e-06
5.56876e-06
5.25869e-06
5.25855e-06
5.25885e-06
5.25953e-06
5.26056e-06
5.26194e-06
5.26366e-06
5.2657e-06
5.26802e-06
5.27061e-06
5.2734e-06
5.27626e-06
5.27911e-06
5.28218e-06
5.28615e-06
5.29156e-06
5.29774e-06
5.30249e-06
5.30313e-06
5.29856e-06
5.29046e-06
5.28296e-06
5.28062e-06
5.28622e-06
5.29939e-06
5.31693e-06
5.33447e-06
5.34779e-06
5.35281e-06
5.3452e-06
5.32394e-06
5.30735e-06
5.3518e-06
5.46407e-06
5.62642e-06
5.83143e-06
6.06946e-06
6.31481e-06
6.51314e-06
6.58421e-06
6.45775e-06
6.13985e-06
5.78424e-06
5.68862e-06
5.86061e-06
6.07191e-06
6.22707e-06
6.3052e-06
6.3139e-06
6.26716e-06
6.1794e-06
6.06453e-06
5.92639e-06
5.81101e-06
5.56268e-06
5.26048e-06
5.25977e-06
5.25962e-06
5.25992e-06
5.2606e-06
5.26165e-06
5.26306e-06
5.26482e-06
5.2669e-06
5.26926e-06
5.27187e-06
5.27469e-06
5.27756e-06
5.2804e-06
5.28347e-06
5.28749e-06
5.29298e-06
5.29916e-06
5.30369e-06
5.30387e-06
5.2987e-06
5.29011e-06
5.28242e-06
5.28028e-06
5.28635e-06
5.29998e-06
5.31776e-06
5.33513e-06
5.34783e-06
5.35182e-06
5.34296e-06
5.32132e-06
5.30874e-06
5.36178e-06
5.4806e-06
5.64902e-06
5.86004e-06
6.103e-06
6.34963e-06
6.54178e-06
6.59692e-06
6.44759e-06
6.11251e-06
5.76544e-06
5.70649e-06
5.89407e-06
6.10614e-06
6.25597e-06
6.32693e-06
6.32854e-06
6.27549e-06
6.18257e-06
6.06359e-06
5.92281e-06
5.80535e-06
5.55651e-06
5.2616e-06
5.26087e-06
5.26071e-06
5.26101e-06
5.2617e-06
5.26277e-06
5.26421e-06
5.26601e-06
5.26812e-06
5.27052e-06
5.27316e-06
5.276e-06
5.27887e-06
5.2817e-06
5.28477e-06
5.28884e-06
5.29439e-06
5.30056e-06
5.30485e-06
5.30454e-06
5.29875e-06
5.28967e-06
5.28183e-06
5.27993e-06
5.28648e-06
5.30058e-06
5.31855e-06
5.33571e-06
5.34777e-06
5.35068e-06
5.34061e-06
5.31888e-06
5.31106e-06
5.3726e-06
5.49789e-06
5.67243e-06
5.88945e-06
6.13716e-06
6.38446e-06
6.56946e-06
6.60736e-06
6.43475e-06
6.0845e-06
5.7495e-06
5.72726e-06
5.92852e-06
6.14038e-06
6.28442e-06
6.34804e-06
6.34252e-06
6.28319e-06
6.18518e-06
6.0622e-06
5.91889e-06
5.79943e-06
5.55027e-06
5.26274e-06
5.26199e-06
5.26183e-06
5.26212e-06
5.26282e-06
5.26391e-06
5.26539e-06
5.26722e-06
5.26937e-06
5.2718e-06
5.27447e-06
5.27732e-06
5.28019e-06
5.283e-06
5.28607e-06
5.29019e-06
5.29581e-06
5.30194e-06
5.30597e-06
5.30514e-06
5.29873e-06
5.28917e-06
5.2812e-06
5.27957e-06
5.28662e-06
5.30118e-06
5.31932e-06
5.33623e-06
5.34758e-06
5.34941e-06
5.33819e-06
5.31669e-06
5.31449e-06
5.38426e-06
5.51597e-06
5.69664e-06
5.91965e-06
6.17188e-06
6.41925e-06
6.596e-06
6.6153e-06
6.41969e-06
6.05585e-06
5.73689e-06
5.75068e-06
5.9638e-06
6.17456e-06
6.31239e-06
6.36851e-06
6.35582e-06
6.29026e-06
6.18726e-06
6.06035e-06
5.91465e-06
5.79325e-06
5.54399e-06
5.2639e-06
5.26314e-06
5.26297e-06
5.26326e-06
5.26397e-06
5.26508e-06
5.26659e-06
5.26846e-06
5.27064e-06
5.2731e-06
5.2758e-06
5.27866e-06
5.28152e-06
5.2843e-06
5.28738e-06
5.29154e-06
5.29722e-06
5.3033e-06
5.30704e-06
5.30566e-06
5.29862e-06
5.28859e-06
5.28053e-06
5.2792e-06
5.28676e-06
5.30178e-06
5.32005e-06
5.33666e-06
5.34727e-06
5.348e-06
5.33571e-06
5.31481e-06
5.31898e-06
5.39674e-06
5.53482e-06
5.72167e-06
5.95064e-06
6.20712e-06
6.45395e-06
6.62096e-06
6.62096e-06
6.40228e-06
6.02693e-06
5.72811e-06
5.77651e-06
5.99981e-06
6.2086e-06
6.33985e-06
6.38832e-06
6.36845e-06
6.2967e-06
6.18879e-06
6.05808e-06
5.91009e-06
5.78682e-06
5.53769e-06
5.26508e-06
5.26431e-06
5.26413e-06
5.26443e-06
5.26515e-06
5.26628e-06
5.26781e-06
5.26972e-06
5.27194e-06
5.27442e-06
5.27714e-06
5.28001e-06
5.28285e-06
5.28561e-06
5.28868e-06
5.29289e-06
5.29863e-06
5.30464e-06
5.30806e-06
5.30611e-06
5.29842e-06
5.28794e-06
5.27982e-06
5.27882e-06
5.28692e-06
5.30237e-06
5.32075e-06
5.33702e-06
5.34685e-06
5.34646e-06
5.33321e-06
5.31332e-06
5.32455e-06
5.41004e-06
5.55446e-06
5.74752e-06
5.9824e-06
6.24295e-06
6.48807e-06
6.64438e-06
6.62423e-06
6.38261e-06
5.99811e-06
5.72338e-06
5.80455e-06
6.0364e-06
6.24244e-06
6.36675e-06
6.40745e-06
6.3804e-06
6.30252e-06
6.18979e-06
6.05537e-06
5.90521e-06
5.78014e-06
5.53139e-06
5.26627e-06
5.26549e-06
5.26531e-06
5.26561e-06
5.26634e-06
5.2675e-06
5.26906e-06
5.271e-06
5.27325e-06
5.27576e-06
5.27849e-06
5.28137e-06
5.28419e-06
5.28692e-06
5.28998e-06
5.29424e-06
5.30002e-06
5.30595e-06
5.30902e-06
5.30648e-06
5.29813e-06
5.28721e-06
5.27908e-06
5.27845e-06
5.28709e-06
5.30296e-06
5.32142e-06
5.3373e-06
5.34631e-06
5.3448e-06
5.33072e-06
5.31229e-06
5.33117e-06
5.42415e-06
5.57489e-06
5.77419e-06
6.01504e-06
6.27891e-06
6.52155e-06
6.6663e-06
6.62501e-06
6.36083e-06
5.96978e-06
5.72332e-06
5.83459e-06
6.07348e-06
6.27602e-06
6.39306e-06
6.42588e-06
6.39165e-06
6.30771e-06
6.19026e-06
6.05225e-06
5.90003e-06
5.77322e-06
5.52514e-06
5.26749e-06
5.2667e-06
5.26651e-06
5.26682e-06
5.26756e-06
5.26874e-06
5.27034e-06
5.27231e-06
5.27458e-06
5.27712e-06
5.27986e-06
5.28273e-06
5.28554e-06
5.28823e-06
5.29128e-06
5.29558e-06
5.3014e-06
5.30722e-06
5.30992e-06
5.30676e-06
5.29775e-06
5.28643e-06
5.2783e-06
5.27807e-06
5.28727e-06
5.30356e-06
5.32204e-06
5.3375e-06
5.34565e-06
5.34303e-06