/*--------------------------------*- C++ -*----------------------------------*\
  =========                 |
  \\      /  F ield         | OpenFOAM: The Open Source CFD Toolbox
   \\    /   O peration     | Website:  https://openfoam.org
    \\  /    A nd           | Version:  7
     \\/     M anipulation  |
\*---------------------------------------------------------------------------*/
FoamFile
{
    version     2.0;
    format      ascii;
    class       volScalarField;
    location    "800";
    object      nuTilda;
}
// * * * * * * * * * * * * * * * * * * * * * * * * * * * * * * * * * * * * * //

dimensions      [0 2 -1 0 0 0 0];

internalField   nonuniform List<scalar> 
23023
(
3.47497e-05
3.47451e-05
3.4763e-05
3.46828e-05
3.47624e-05
3.47765e-05
3.46315e-05
3.4699e-05
3.478e-05
3.479e-05
3.46448e-05
3.47158e-05
3.4798e-05
3.48036e-05
3.46053e-05
3.46591e-05
3.47332e-05
3.48162e-05
3.48171e-05
3.46416e-05
3.4613e-05
3.46744e-05
3.47512e-05
3.48348e-05
3.48307e-05
3.47988e-05
3.46377e-05
3.46219e-05
3.46905e-05
3.47697e-05
3.48537e-05
3.48443e-05
3.49708e-05
3.47892e-05
3.46354e-05
3.46321e-05
3.47075e-05
3.47887e-05
3.48727e-05
3.48578e-05
3.50979e-05
3.497e-05
3.47786e-05
3.46347e-05
3.46436e-05
3.47254e-05
3.48082e-05
3.4892e-05
3.48712e-05
3.51636e-05
3.51077e-05
3.49676e-05
3.47674e-05
3.46355e-05
3.46564e-05
3.47441e-05
3.48281e-05
3.49114e-05
3.48845e-05
3.51828e-05
3.51163e-05
3.49637e-05
3.47556e-05
3.46378e-05
3.46704e-05
3.47635e-05
3.48484e-05
3.4931e-05
3.48977e-05
3.51871e-05
3.52014e-05
3.51236e-05
3.49581e-05
3.47436e-05
3.46417e-05
3.46856e-05
3.47837e-05
3.48691e-05
3.49506e-05
3.49108e-05
3.51267e-05
3.52132e-05
3.52191e-05
3.51295e-05
3.49509e-05
3.4732e-05
3.46471e-05
3.4702e-05
3.48046e-05
3.48902e-05
3.49703e-05
3.49237e-05
3.50215e-05
3.51566e-05
3.5239e-05
3.5236e-05
3.51339e-05
3.49421e-05
3.47208e-05
3.46542e-05
3.47195e-05
3.48262e-05
3.49115e-05
3.49901e-05
3.49364e-05
3.48954e-05
3.50514e-05
3.51869e-05
3.52646e-05
3.52518e-05
3.51368e-05
3.49316e-05
3.47108e-05
3.46629e-05
3.47382e-05
3.48484e-05
3.49331e-05
3.50099e-05
3.4949e-05
3.49224e-05
3.5082e-05
3.52174e-05
3.52898e-05
3.52666e-05
3.51379e-05
3.49197e-05
3.47025e-05
3.46733e-05
3.47579e-05
3.48712e-05
3.4955e-05
3.50296e-05
3.49613e-05
3.47912e-05
3.49504e-05
3.51134e-05
3.52482e-05
3.53145e-05
3.52802e-05
3.51374e-05
3.49065e-05
3.46963e-05
3.46854e-05
3.47787e-05
3.48945e-05
3.4977e-05
3.50493e-05
3.49733e-05
3.46718e-05
3.48147e-05
3.49794e-05
3.51455e-05
3.52792e-05
3.53386e-05
3.52925e-05
3.51349e-05
3.4892e-05
3.46928e-05
3.46991e-05
3.48004e-05
3.49183e-05
3.49991e-05
3.50689e-05
3.49852e-05
3.46901e-05
3.48392e-05
3.50093e-05
3.51783e-05
3.53102e-05
3.53621e-05
3.53033e-05
3.51306e-05
3.48766e-05
3.46916e-05
3.47145e-05
3.48231e-05
3.49426e-05
3.50214e-05
3.50883e-05
3.49967e-05
3.45862e-05
3.47094e-05
3.48648e-05
3.50401e-05
3.52116e-05
3.53412e-05
3.53847e-05
3.53126e-05
3.51244e-05
3.48604e-05
3.46926e-05
3.47314e-05
3.48467e-05
3.49673e-05
3.50438e-05
3.51077e-05
3.50079e-05
3.45111e-05
3.45998e-05
3.47296e-05
3.48914e-05
3.50719e-05
3.52456e-05
3.53721e-05
3.54064e-05
3.53203e-05
3.51162e-05
3.4844e-05
3.46958e-05
3.47498e-05
3.48711e-05
3.49924e-05
3.50662e-05
3.51268e-05
3.50188e-05
3.44785e-05
3.4519e-05
3.46145e-05
3.47509e-05
3.4919e-05
3.51046e-05
3.528e-05
3.54028e-05
3.54271e-05
3.53263e-05
3.5106e-05
3.48275e-05
3.47012e-05
3.47697e-05
3.48963e-05
3.50178e-05
3.50886e-05
3.51457e-05
3.50294e-05
3.45065e-05
3.448e-05
3.45276e-05
3.463e-05
3.47732e-05
3.49477e-05
3.51381e-05
3.53149e-05
3.54332e-05
3.54467e-05
3.53303e-05
3.50938e-05
3.48116e-05
3.47088e-05
3.47909e-05
3.49222e-05
3.50434e-05
3.51109e-05
3.51644e-05
3.50396e-05
3.45026e-05
3.44821e-05
3.45372e-05
3.46465e-05
3.47965e-05
3.49774e-05
3.51726e-05
3.53501e-05
3.54632e-05
3.5465e-05
3.53325e-05
3.50798e-05
3.47967e-05
3.47185e-05
3.48135e-05
3.49488e-05
3.50693e-05
3.51332e-05
3.51829e-05
3.50495e-05
3.45494e-05
3.44986e-05
3.4485e-05
3.45477e-05
3.46641e-05
3.4821e-05
3.50082e-05
3.52079e-05
3.53857e-05
3.54927e-05
3.54819e-05
3.53326e-05
3.5064e-05
3.47834e-05
3.47303e-05
3.48374e-05
3.49761e-05
3.50954e-05
3.51554e-05
3.5201e-05
3.5059e-05
3.45765e-05
3.4547e-05
3.44947e-05
3.44887e-05
3.45591e-05
3.46826e-05
3.48464e-05
3.50401e-05
3.52439e-05
3.54215e-05
3.55216e-05
3.54973e-05
3.53306e-05
3.50465e-05
3.47724e-05
3.47443e-05
3.48625e-05
3.50039e-05
3.51216e-05
3.51775e-05
3.52188e-05
3.50682e-05
3.45769e-05
3.45442e-05
3.44911e-05
3.44932e-05
3.45714e-05
3.47021e-05
3.4873e-05
3.5073e-05
3.52807e-05
3.54574e-05
3.55497e-05
3.55111e-05
3.53263e-05
3.50276e-05
3.47641e-05
3.47603e-05
3.48887e-05
3.50322e-05
3.51479e-05
3.51993e-05
3.52363e-05
3.50769e-05
3.45856e-05
3.4577e-05
3.4541e-05
3.44878e-05
3.44986e-05
3.45847e-05
3.47227e-05
3.49007e-05
3.51069e-05
3.53183e-05
3.54933e-05
3.5577e-05
3.55232e-05
3.53198e-05
3.50075e-05
3.47594e-05
3.47784e-05
3.4916e-05
3.5061e-05
3.51742e-05
3.5221e-05
3.52534e-05
3.50852e-05
3.45788e-05
3.45877e-05
3.45768e-05
3.45374e-05
3.44851e-05
3.4505e-05
3.45989e-05
3.47443e-05
3.49294e-05
3.51418e-05
3.53565e-05
3.55292e-05
3.56032e-05
3.55333e-05
3.5311e-05
3.49865e-05
3.4758e-05
3.47985e-05
3.49444e-05
3.50901e-05
3.52006e-05
3.52424e-05
3.52701e-05
3.5093e-05
3.45821e-05
3.45896e-05
3.45762e-05
3.45334e-05
3.44831e-05
3.45122e-05
3.46142e-05
3.4767e-05
3.49593e-05
3.51777e-05
3.53952e-05
3.55649e-05
3.56284e-05
3.55415e-05
3.52999e-05
3.49649e-05
3.47598e-05
3.48204e-05
3.49736e-05
3.51196e-05
3.52269e-05
3.52636e-05
3.52864e-05
3.51005e-05
3.45656e-05
3.45852e-05
3.45913e-05
3.45752e-05
3.45291e-05
3.4482e-05
3.45205e-05
3.46305e-05
3.47908e-05
3.49903e-05
3.52146e-05
3.54346e-05
3.56004e-05
3.56523e-05
3.55476e-05
3.52864e-05
3.49432e-05
3.47645e-05
3.48441e-05
3.50037e-05
3.51495e-05
3.52531e-05
3.52844e-05
3.53022e-05
3.51075e-05
3.45436e-05
3.45692e-05
3.45881e-05
3.45927e-05
3.45738e-05
3.45246e-05
3.4482e-05
3.45298e-05
3.46478e-05
3.48157e-05
3.50224e-05
3.52525e-05
3.54743e-05
3.56355e-05
3.56748e-05
3.55514e-05
3.52706e-05
3.49219e-05
3.47721e-05
3.48695e-05
3.50346e-05
3.51795e-05
3.52792e-05
3.53049e-05
3.53176e-05
3.5114e-05
3.45471e-05
3.45728e-05
3.4591e-05
3.45938e-05
3.45719e-05
3.45199e-05
3.4483e-05
3.45401e-05
3.46661e-05
3.48417e-05
3.50557e-05
3.52913e-05
3.55145e-05
3.56701e-05
3.56958e-05
3.55529e-05
3.52526e-05
3.49015e-05
3.47825e-05
3.48965e-05
3.50663e-05
3.52097e-05
3.53052e-05
3.53251e-05
3.53326e-05
3.51201e-05
3.45233e-05
3.45507e-05
3.45763e-05
3.45937e-05
3.45947e-05
3.45697e-05
3.4515e-05
3.44851e-05
3.45514e-05
3.46856e-05
3.48689e-05
3.509e-05
3.5331e-05
3.5555e-05
3.57041e-05
3.57151e-05
3.5552e-05
3.52326e-05
3.48827e-05
3.47957e-05
3.4925e-05
3.50986e-05
3.52401e-05
3.53309e-05
3.53448e-05
3.5347e-05
3.51257e-05
3.45007e-05
3.45265e-05
3.45543e-05
3.45797e-05
3.45962e-05
3.45952e-05
3.4567e-05
3.45101e-05
3.44882e-05
3.45638e-05
3.47061e-05
3.48972e-05
3.51255e-05
3.53715e-05
3.55957e-05
3.57373e-05
3.57326e-05
3.55485e-05
3.52105e-05
3.4866e-05
3.48115e-05
3.49549e-05
3.51314e-05
3.52705e-05
3.53564e-05
3.53642e-05
3.53609e-05
3.51308e-05
3.45034e-05
3.45298e-05
3.45579e-05
3.45831e-05
3.45985e-05
3.45955e-05
3.45638e-05
3.45054e-05
3.44924e-05
3.45772e-05
3.47277e-05
3.49266e-05
3.51621e-05
3.54128e-05
3.56365e-05
3.57696e-05
3.57482e-05
3.55424e-05
3.51868e-05
3.48523e-05
3.48299e-05
3.49862e-05
3.51648e-05
3.53009e-05
3.53816e-05
3.53831e-05
3.53743e-05
3.51355e-05
3.44835e-05
3.45061e-05
3.45331e-05
3.45614e-05
3.45863e-05
3.46006e-05
3.45953e-05
3.45602e-05
3.45008e-05
3.44976e-05
3.45917e-05
3.47504e-05
3.49572e-05
3.51997e-05
3.54549e-05
3.56774e-05
3.58009e-05
3.57617e-05
3.55337e-05
3.51616e-05
3.48421e-05
3.48509e-05
3.50186e-05
3.51986e-05
3.53313e-05
3.54065e-05
3.54015e-05
3.53871e-05
3.51396e-05
3.44683e-05
3.44856e-05
3.45089e-05
3.45364e-05
3.4565e-05
3.45895e-05
3.46025e-05
3.45948e-05
3.45563e-05
3.44966e-05
3.45038e-05
3.46073e-05
3.47743e-05
3.49889e-05
3.52385e-05
3.54977e-05
3.57181e-05
3.5831e-05
3.5773e-05
3.55223e-05
3.51352e-05
3.48364e-05
3.48743e-05
3.50522e-05
3.52328e-05
3.53616e-05
3.54311e-05
3.54194e-05
3.53993e-05
3.51433e-05
3.44585e-05
3.44698e-05
3.44878e-05
3.45117e-05
3.45398e-05
3.45684e-05
3.45925e-05
3.46042e-05
3.45939e-05
3.45519e-05
3.44929e-05
3.45112e-05
3.4624e-05
3.47993e-05
3.50219e-05
3.52783e-05
3.55411e-05
3.57587e-05
3.58598e-05
3.57819e-05
3.55081e-05
3.51081e-05
3.48351e-05
3.49e-05
3.50869e-05
3.52673e-05
3.53918e-05
3.54552e-05
3.54368e-05
3.5411e-05
3.51464e-05
3.44538e-05
3.44596e-05
3.44713e-05
3.449e-05
3.45146e-05
3.45431e-05
3.45719e-05
3.45954e-05
3.46056e-05
3.45926e-05
3.45472e-05
3.44899e-05
3.45196e-05
3.46418e-05
3.48254e-05
3.5056e-05
3.53191e-05
3.55851e-05
3.57989e-05
3.58872e-05
3.57883e-05
3.54912e-05
3.50807e-05
3.4838e-05
3.49278e-05
3.51225e-05
3.53021e-05
3.54218e-05
3.54789e-05
3.54537e-05
3.5422e-05
3.5149e-05
3.44527e-05
3.44547e-05
3.44606e-05
3.44729e-05
3.44922e-05
3.45175e-05
3.45465e-05
3.45753e-05
3.45981e-05
3.46068e-05
3.45909e-05
3.45422e-05
3.44878e-05
3.45292e-05
3.46607e-05
3.48527e-05
3.50913e-05
3.5361e-05
3.56296e-05
3.58387e-05
3.59129e-05
3.57921e-05
3.54717e-05
3.50535e-05
3.48448e-05
3.49578e-05
3.51589e-05
3.5337e-05
3.54516e-05
3.55021e-05
3.547e-05
3.54325e-05
3.51512e-05
3.4453e-05
3.44537e-05
3.44556e-05
3.44617e-05
3.44745e-05
3.44945e-05
3.45204e-05
3.45498e-05
3.45786e-05
3.46007e-05
3.46076e-05
3.45888e-05
3.45369e-05
3.44867e-05
3.454e-05
3.46808e-05
3.48812e-05
3.51277e-05
3.54038e-05
3.56745e-05
3.5878e-05
3.59368e-05
3.57932e-05
3.54496e-05
3.50272e-05
3.48553e-05
3.49896e-05
3.51961e-05
3.5372e-05
3.54811e-05
3.55249e-05
3.54857e-05
3.54423e-05
3.51528e-05
3.44543e-05
3.44547e-05
3.44564e-05
3.44628e-05
3.44761e-05
3.44968e-05
3.45234e-05
3.45531e-05
3.45818e-05
3.46031e-05
3.46082e-05
3.45862e-05
3.45315e-05
3.4487e-05
3.4552e-05
3.4702e-05
3.49109e-05
3.51654e-05
3.54476e-05
3.57197e-05
3.59165e-05
3.59588e-05
3.57914e-05
3.54251e-05
3.50022e-05
3.48694e-05
3.50232e-05
3.5234e-05
3.5407e-05
3.55103e-05
3.55471e-05
3.55008e-05
3.54515e-05
3.51539e-05
3.4454e-05
3.44556e-05
3.44556e-05
3.44572e-05
3.44638e-05
3.44777e-05
3.44991e-05
3.45263e-05
3.45564e-05
3.45849e-05
3.46053e-05
3.46084e-05
3.45832e-05
3.4526e-05
3.44887e-05
3.45651e-05
3.47243e-05
3.49417e-05
3.52042e-05
3.54923e-05
3.57652e-05
3.59541e-05
3.59787e-05
3.57867e-05
3.53983e-05
3.49795e-05
3.48868e-05
3.50585e-05
3.52725e-05
3.5442e-05
3.55391e-05
3.55688e-05
3.55153e-05
3.546e-05
3.51545e-05
3.44513e-05
3.44557e-05
3.44568e-05
3.44565e-05
3.4458e-05
3.44649e-05
3.44794e-05
3.45015e-05
3.45293e-05
3.45597e-05
3.45879e-05
3.46073e-05
3.46083e-05
3.45798e-05
3.45205e-05
3.44918e-05
3.45794e-05
3.47478e-05
3.49738e-05
3.52442e-05
3.55379e-05
3.58108e-05
3.59907e-05
3.59964e-05
3.57789e-05
3.53696e-05
3.49595e-05
3.49075e-05
3.50953e-05
3.53115e-05
3.5477e-05
3.55675e-05
3.55899e-05
3.55291e-05
3.54679e-05
3.51546e-05
3.44533e-05
3.44574e-05
3.44581e-05
3.44573e-05
3.44588e-05
3.4466e-05
3.44811e-05
3.45039e-05
3.45323e-05
3.45629e-05
3.45908e-05
3.46091e-05
3.46078e-05
3.45759e-05
3.45151e-05
3.44963e-05
3.4595e-05
3.47725e-05
3.50071e-05
3.52853e-05
3.55842e-05
3.58564e-05
3.60262e-05
3.60116e-05
3.57681e-05
3.5339e-05
3.49433e-05
3.49313e-05
3.51336e-05
3.53509e-05
3.55118e-05
3.55954e-05
3.56104e-05
3.55423e-05
3.54751e-05
3.51542e-05
3.44482e-05
3.44554e-05
3.44591e-05
3.44592e-05
3.44581e-05
3.44595e-05
3.4467e-05
3.44828e-05
3.45063e-05
3.45353e-05
3.45661e-05
3.45936e-05
3.46106e-05
3.46069e-05
3.45716e-05
3.45099e-05
3.4502e-05
3.46117e-05
3.47984e-05
3.50416e-05
3.53275e-05
3.56313e-05
3.59019e-05
3.60603e-05
3.60243e-05
3.57542e-05
3.53071e-05
3.49316e-05
3.49581e-05
3.51731e-05
3.53906e-05
3.55464e-05
3.56229e-05
3.56302e-05
3.55548e-05
3.54817e-05
3.51532e-05
3.44412e-05
3.44504e-05
3.44574e-05
3.44607e-05
3.44604e-05
3.44589e-05
3.44602e-05
3.44681e-05
3.44845e-05
3.45087e-05
3.45382e-05
3.45692e-05
3.45963e-05
3.46119e-05
3.46057e-05
3.4567e-05
3.45052e-05
3.45091e-05
3.46296e-05
3.48255e-05
3.50773e-05
3.53709e-05
3.56791e-05
3.59471e-05
3.60929e-05
3.60343e-05
3.57372e-05
3.52742e-05
3.49252e-05
3.49877e-05
3.52137e-05
3.54305e-05
3.55807e-05
3.56498e-05
3.56494e-05
3.55667e-05
3.54876e-05
3.51518e-05
3.44341e-05
3.44434e-05
3.44526e-05
3.44595e-05
3.44624e-05
3.44615e-05
3.44596e-05
3.44609e-05
3.44692e-05
3.44862e-05
3.45112e-05
3.45412e-05
3.45722e-05
3.45987e-05
3.46129e-05
3.4604e-05
3.4562e-05
3.4501e-05
3.45176e-05
3.46487e-05
3.48538e-05
3.51142e-05
3.54153e-05
3.57275e-05
3.59921e-05
3.61239e-05
3.60414e-05
3.57171e-05
3.52408e-05
3.49245e-05
3.502e-05
3.52554e-05
3.54707e-05
3.56147e-05
3.56762e-05
3.56678e-05
3.55778e-05
3.54928e-05
3.51498e-05
3.44281e-05
3.44361e-05
3.44456e-05
3.44549e-05
3.44616e-05
3.44639e-05
3.44625e-05
3.44603e-05
3.44616e-05
3.44703e-05
3.4488e-05
3.45136e-05
3.45441e-05
3.45752e-05
3.4601e-05
3.46136e-05
3.46019e-05
3.45567e-05
3.44974e-05
3.45273e-05
3.46691e-05
3.48833e-05
3.51524e-05
3.54609e-05
3.57764e-05
3.60365e-05
3.6153e-05
3.60455e-05
3.56939e-05
3.52074e-05
3.4929e-05
3.50548e-05
3.5298e-05
3.55109e-05
3.56484e-05
3.5702e-05
3.56856e-05
3.55882e-05
3.54973e-05
3.51473e-05
3.44236e-05
3.443e-05
3.44382e-05
3.44479e-05
3.44573e-05
3.44637e-05
3.44655e-05
3.44635e-05
3.44609e-05
3.44622e-05
3.44714e-05
3.44898e-05
3.45161e-05
3.45471e-05
3.4578e-05
3.46032e-05
3.4614e-05
3.45995e-05
3.45512e-05
3.44948e-05
3.45383e-05
3.46907e-05
3.4914e-05
3.51918e-05
3.55074e-05
3.58257e-05
3.60802e-05
3.61801e-05
3.60465e-05
3.56678e-05
3.51747e-05
3.49384e-05
3.50919e-05
3.53415e-05
3.55511e-05
3.56816e-05
3.57271e-05
3.57026e-05
3.55979e-05
3.55011e-05
3.51443e-05
3.44201e-05
3.44253e-05
3.44319e-05
3.44404e-05
3.44503e-05
3.44596e-05
3.44657e-05
3.4467e-05
3.44644e-05
3.44615e-05
3.44628e-05
3.44724e-05
3.44916e-05
3.45186e-05
3.45499e-05
3.45808e-05
3.46051e-05
3.46141e-05
3.45966e-05
3.45455e-05
3.44933e-05
3.45507e-05
3.47134e-05
3.4946e-05
3.52325e-05
3.5555e-05
3.58754e-05
3.61232e-05
3.62051e-05
3.60442e-05
3.56389e-05
3.51433e-05
3.49525e-05
3.51311e-05
3.53856e-05
3.55913e-05
3.57144e-05
3.57516e-05
3.57189e-05
3.56068e-05
3.55042e-05
3.51408e-05
3.44172e-05
3.44218e-05
3.44271e-05
3.44339e-05
3.44426e-05
3.44527e-05
3.4462e-05
3.44677e-05
3.44685e-05
3.44653e-05
3.4462e-05
3.44634e-05
3.44735e-05
3.44934e-05
3.45211e-05
3.45528e-05
3.45835e-05
3.46068e-05
3.46139e-05
3.45933e-05
3.45397e-05
3.44931e-05
3.45643e-05
3.47374e-05
3.49792e-05
3.52743e-05
3.56035e-05
3.59253e-05
3.61653e-05
3.62276e-05
3.60386e-05
3.56075e-05
3.5114e-05
3.49709e-05
3.51723e-05
3.54303e-05
3.56313e-05
3.57467e-05
3.57753e-05
3.57344e-05
3.5615e-05
3.55066e-05
3.51368e-05
3.44144e-05
3.44188e-05
3.44235e-05
3.44289e-05
3.44359e-05
3.44449e-05
3.44551e-05
3.44644e-05
3.44698e-05
3.44699e-05
3.44661e-05
3.44624e-05
3.4464e-05
3.44746e-05
3.44952e-05
3.45236e-05
3.45556e-05
3.4586e-05
3.46083e-05
3.46133e-05
3.45896e-05
3.45338e-05
3.44943e-05
3.45793e-05
3.47627e-05
3.50137e-05
3.53174e-05
3.56529e-05
3.59754e-05
3.62062e-05
3.62477e-05
3.60295e-05
3.55737e-05
3.50874e-05
3.49934e-05
3.52152e-05
3.54755e-05
3.56711e-05
3.57783e-05
3.57984e-05
3.57491e-05
3.56225e-05
3.55083e-05
3.51324e-05
3.44119e-05
3.4416e-05
3.44205e-05
3.44253e-05
3.44308e-05
3.4438e-05
3.44472e-05
3.44576e-05
3.44668e-05
3.44717e-05
3.44712e-05
3.44668e-05
3.44628e-05
3.44645e-05
3.44757e-05
3.44971e-05
3.45261e-05
3.45583e-05
3.45884e-05
3.46096e-05
3.46124e-05
3.45855e-05
3.4528e-05
3.44973e-05
3.45957e-05
3.47892e-05
3.50494e-05
3.53616e-05
3.57032e-05
3.60255e-05
3.62458e-05
3.6265e-05
3.6017e-05
3.55378e-05
3.50645e-05
3.50198e-05
3.52598e-05
3.5521e-05
3.57106e-05
3.58094e-05
3.58206e-05
3.5763e-05
3.56292e-05
3.55093e-05
3.51274e-05
3.44096e-05
3.44134e-05
3.44176e-05
3.44222e-05
3.44271e-05
3.44328e-05
3.44401e-05
3.44496e-05
3.44601e-05
3.44692e-05
3.44737e-05
3.44725e-05
3.44674e-05
3.44631e-05
3.4465e-05
3.44768e-05
3.44989e-05
3.45286e-05
3.4561e-05
3.45907e-05
3.46106e-05
3.46111e-05
3.4581e-05
3.45225e-05
3.4502e-05
3.46133e-05
3.48169e-05
3.50864e-05
3.5407e-05
3.57542e-05
3.60755e-05
3.6284e-05
3.62794e-05
3.6001e-05
3.55003e-05
3.50462e-05
3.50499e-05
3.53058e-05
3.55668e-05
3.57498e-05
3.58398e-05
3.58421e-05
3.57761e-05
3.56351e-05
3.55097e-05
3.51219e-05
3.44076e-05
3.4411e-05
3.4415e-05
3.44193e-05
3.4424e-05
3.4429e-05
3.44348e-05
3.44423e-05
3.4452e-05
3.44627e-05
3.44715e-05
3.44756e-05
3.44737e-05
3.4468e-05
3.44634e-05
3.44655e-05
3.44779e-05
3.45008e-05
3.4531e-05
3.45636e-05
3.45928e-05
3.46114e-05
3.46094e-05
3.45762e-05
3.45172e-05
3.45084e-05
3.46323e-05
3.48459e-05
3.51247e-05
3.54536e-05
3.5806e-05
3.61253e-05
3.63205e-05
3.62908e-05
3.59814e-05
3.54615e-05
3.50333e-05
3.50835e-05
3.53532e-05
3.56128e-05
3.57886e-05
3.58696e-05
3.58627e-05
3.57883e-05
3.56403e-05
3.55093e-05
3.5116e-05
3.44058e-05
3.4409e-05
3.44125e-05
3.44166e-05
3.44211e-05
3.44258e-05
3.44309e-05
3.44368e-05
3.44446e-05
3.44544e-05
3.44652e-05
3.44739e-05
3.44775e-05
3.44748e-05
3.44685e-05
3.44636e-05
3.44659e-05
3.4479e-05
3.45027e-05
3.45334e-05
3.45661e-05
3.45947e-05
3.46118e-05
3.46074e-05
3.45711e-05
3.45124e-05
3.45164e-05
3.46526e-05
3.48761e-05
3.51642e-05
3.55014e-05
3.58584e-05
3.61747e-05
3.63552e-05
3.62989e-05
3.59583e-05
3.54221e-05
3.50265e-05
3.51203e-05
3.54017e-05
3.56589e-05
3.58269e-05
3.58986e-05
3.58826e-05
3.57997e-05
3.56447e-05
3.55082e-05
3.51095e-05
3.44044e-05
3.44072e-05
3.44104e-05
3.44141e-05
3.44183e-05
3.44229e-05
3.44277e-05
3.44329e-05
3.44389e-05
3.44468e-05
3.44569e-05
3.44678e-05
3.44763e-05
3.44793e-05
3.44759e-05
3.44688e-05
3.44637e-05
3.44663e-05
3.44801e-05
3.45046e-05
3.45358e-05
3.45685e-05
3.45964e-05
3.4612e-05
3.46049e-05
3.45658e-05
3.45082e-05
3.45259e-05
3.46741e-05
3.49076e-05
3.5205e-05
3.55502e-05
3.59114e-05
3.62235e-05
3.63879e-05
3.63037e-05
3.59318e-05
3.53824e-05
3.50267e-05
3.51601e-05
3.54512e-05
3.57049e-05
3.58647e-05
3.59268e-05
3.59015e-05
3.58102e-05
3.56483e-05
3.55064e-05
3.51026e-05
3.44034e-05
3.44058e-05
3.44087e-05
3.4412e-05
3.44158e-05
3.44201e-05
3.44247e-05
3.44297e-05
3.44349e-05
3.44411e-05
3.44492e-05
3.44595e-05
3.44704e-05
3.44787e-05
3.4481e-05
3.44768e-05
3.44691e-05
3.44638e-05
3.44667e-05
3.44812e-05
3.45064e-05
3.45382e-05
3.45708e-05
3.4598e-05
3.46119e-05
3.46021e-05
3.45602e-05
3.45048e-05
3.4537e-05
3.4697e-05
3.49404e-05
3.5247e-05
3.56001e-05
3.59648e-05
3.62717e-05
3.64184e-05
3.6305e-05
3.5902e-05
3.53432e-05
3.50333e-05
3.52027e-05
3.55015e-05
3.57509e-05
3.59019e-05
3.59542e-05
3.59196e-05
3.58199e-05
3.56511e-05
3.55038e-05
3.50953e-05
3.44027e-05
3.44047e-05
3.44072e-05
3.44102e-05
3.44136e-05
3.44175e-05
3.44219e-05
3.44267e-05
3.44317e-05
3.4437e-05
3.44433e-05
3.44516e-05
3.44621e-05
3.4473e-05
3.4481e-05
3.44827e-05
3.44776e-05
3.44693e-05
3.44638e-05
3.44671e-05
3.44823e-05
3.45083e-05
3.45405e-05
3.4573e-05
3.45993e-05
3.46115e-05
3.4599e-05
3.45545e-05
3.45024e-05
3.45496e-05
3.47212e-05
3.49745e-05
3.52904e-05
3.56511e-05
3.60186e-05
3.63191e-05
3.64464e-05
3.63027e-05
3.5869e-05
3.53051e-05
3.5046e-05
3.52479e-05
3.55526e-05
3.57966e-05
3.59385e-05
3.59807e-05
3.59368e-05
3.58286e-05
3.5653e-05
3.55007e-05
3.50877e-05
3.44024e-05
3.4404e-05
3.44061e-05
3.44087e-05
3.44117e-05
3.44153e-05
3.44193e-05
3.44238e-05
3.44286e-05
3.44337e-05
3.44391e-05
3.44455e-05
3.4454e-05
3.44647e-05
3.44757e-05
3.44833e-05
3.44842e-05
3.44784e-05
3.44694e-05
3.44637e-05
3.44674e-05
3.44834e-05
3.45102e-05
3.45428e-05
3.45751e-05
3.46005e-05
3.46107e-05
3.45954e-05
3.45487e-05
3.4501e-05
3.45636e-05
3.47467e-05
3.50098e-05
3.53349e-05
3.5703e-05
3.60727e-05
3.63654e-05
3.64719e-05
3.62966e-05
3.58331e-05
3.5269e-05
3.50643e-05
3.52954e-05
3.56042e-05
3.58421e-05
3.59743e-05
3.60064e-05
3.59529e-05
3.58363e-05
3.56542e-05
3.54969e-05
3.50797e-05
3.44038e-05
3.44055e-05
3.44076e-05
3.44103e-05
3.44134e-05
3.4417e-05
3.44211e-05
3.44257e-05
3.44307e-05
3.44358e-05
3.44412e-05
3.44478e-05
3.44564e-05
3.44673e-05
3.44783e-05
3.44855e-05
3.44857e-05
3.4479e-05
3.44694e-05
3.44636e-05
3.44677e-05
3.44845e-05
3.4512e-05
3.4545e-05
3.4577e-05
3.46014e-05
3.46097e-05
3.45915e-05
3.45429e-05
3.45011e-05
3.45792e-05
3.47735e-05
3.50464e-05
3.53808e-05
3.57559e-05
3.6127e-05
3.64105e-05
3.64945e-05
3.62866e-05
3.57945e-05
3.52356e-05
3.50878e-05
3.5345e-05
3.56564e-05
3.58872e-05
3.60094e-05
3.60311e-05
3.5968e-05
3.58431e-05
3.56548e-05
3.54926e-05
3.50714e-05
3.4404e-05
3.44052e-05
3.44069e-05
3.44092e-05
3.44119e-05
3.44151e-05
3.44188e-05
3.4423e-05
3.44277e-05
3.44327e-05
3.44379e-05
3.44434e-05
3.44501e-05
3.44589e-05
3.447e-05
3.44809e-05
3.44877e-05
3.44871e-05
3.44795e-05
3.44693e-05
3.44634e-05
3.4468e-05
3.44857e-05
3.45139e-05
3.45472e-05
3.45789e-05
3.46021e-05
3.46083e-05
3.45873e-05
3.45372e-05
3.45027e-05
3.45961e-05
3.48016e-05
3.50844e-05
3.54278e-05
3.58097e-05
3.61813e-05
3.64542e-05
3.65141e-05
3.62728e-05
3.57535e-05
3.52057e-05
3.51162e-05
3.53965e-05
3.57088e-05
3.59318e-05
3.60438e-05
3.60547e-05
3.59821e-05
3.58492e-05
3.56546e-05
3.54877e-05
3.50627e-05
3.44055e-05
3.44067e-05
3.44085e-05
3.44108e-05
3.44135e-05
3.44169e-05
3.44207e-05
3.4425e-05
3.44298e-05
3.44349e-05
3.44401e-05
3.44457e-05
3.44524e-05
3.44614e-05
3.44726e-05
3.44835e-05
3.44898e-05
3.44884e-05
3.44799e-05
3.44691e-05
3.44631e-05
3.44683e-05
3.44868e-05
3.45157e-05
3.45492e-05
3.45805e-05
3.46025e-05
3.46066e-05
3.45828e-05
3.45317e-05
3.4506e-05
3.46146e-05
3.4831e-05
3.51236e-05
3.54761e-05
3.58644e-05
3.62355e-05
3.64964e-05
3.65306e-05
3.6255e-05
3.57106e-05
3.51803e-05
3.51491e-05
3.54497e-05
3.57614e-05
3.5976e-05
3.60769e-05
3.60772e-05
3.59954e-05
3.58544e-05
3.56538e-05
3.54822e-05
3.50537e-05
3.44064e-05
3.44071e-05
3.44083e-05
3.44101e-05
3.44124e-05
3.44153e-05
3.44187e-05
3.44226e-05
3.4427e-05
3.44319e-05
3.4437e-05
3.44423e-05
3.44479e-05
3.44548e-05
3.4464e-05
3.44753e-05
3.44861e-05
3.44919e-05
3.44896e-05
3.44802e-05
3.44688e-05
3.44628e-05
3.44686e-05
3.44879e-05
3.45175e-05
3.45513e-05
3.4582e-05
3.46027e-05
3.46045e-05
3.4578e-05
3.45265e-05
3.45114e-05
3.46344e-05
3.48617e-05
3.51642e-05
3.55256e-05
3.59197e-05
3.62895e-05
3.65368e-05
3.65437e-05
3.62333e-05
3.56662e-05
3.51604e-05
3.51863e-05
3.55044e-05
3.58142e-05
3.60192e-05
3.6109e-05
3.60988e-05
3.60077e-05
3.58588e-05
3.56523e-05
3.54761e-05
3.50444e-05
3.44081e-05
3.44087e-05
3.441e-05
3.44118e-05
3.44142e-05
3.44171e-05
3.44206e-05
3.44246e-05
3.44291e-05
3.4434e-05
3.44392e-05
3.44446e-05
3.44502e-05
3.44572e-05
3.44665e-05
3.4478e-05
3.44886e-05
3.44939e-05
3.44907e-05
3.44804e-05
3.44684e-05
3.44625e-05
3.44689e-05
3.4489e-05
3.45193e-05
3.45532e-05
3.45834e-05
3.46026e-05
3.46021e-05
3.4573e-05
3.45217e-05
3.45187e-05
3.46557e-05
3.48937e-05
3.5206e-05
3.55763e-05
3.59758e-05
3.6343e-05
3.65752e-05
3.65532e-05
3.62077e-05
3.56208e-05
3.51468e-05
3.52275e-05
3.55606e-05
3.58666e-05
3.60615e-05
3.61403e-05
3.61195e-05
3.60191e-05
3.58623e-05
3.56501e-05
3.54694e-05
3.50349e-05
3.44098e-05
3.44104e-05
3.44117e-05
3.44135e-05
3.4416e-05
3.4419e-05
3.44225e-05
3.44266e-05
3.44312e-05
3.44362e-05
3.44415e-05
3.44468e-05
3.44525e-05
3.44596e-05
3.44691e-05
3.44807e-05
3.44911e-05
3.44958e-05
3.44917e-05
3.44804e-05
3.44678e-05
3.44621e-05
3.44691e-05
3.44901e-05
3.45211e-05
3.4555e-05
3.45845e-05
3.46023e-05
3.45994e-05
3.45678e-05
3.45176e-05
3.45279e-05
3.46784e-05
3.4927e-05
3.52492e-05
3.56281e-05
3.60325e-05
3.63961e-05
3.66115e-05
3.6559e-05
3.61783e-05
3.55749e-05
3.51402e-05
3.52726e-05
3.56175e-05
3.59184e-05
3.61032e-05
3.61706e-05
3.61391e-05
3.60295e-05
3.5865e-05
3.56472e-05
3.54622e-05
3.5025e-05
3.44116e-05
3.44122e-05
3.44135e-05
3.44153e-05
3.44178e-05
3.44209e-05
3.44245e-05
3.44287e-05
3.44333e-05
3.44384e-05
3.44438e-05
3.44492e-05
3.44549e-05
3.4462e-05
3.44717e-05
3.44834e-05
3.44936e-05
3.44976e-05
3.44925e-05
3.44803e-05
3.44672e-05
3.44616e-05
3.44693e-05
3.44913e-05
3.45228e-05
3.45568e-05
3.45855e-05
3.46017e-05
3.45964e-05
3.45625e-05
3.45142e-05
3.45388e-05
3.47025e-05
3.49617e-05
3.52936e-05
3.5681e-05
3.60897e-05
3.64484e-05
3.66453e-05
3.6561e-05
3.61451e-05
3.55293e-05
3.51419e-05
3.53207e-05
3.56747e-05
3.597e-05
3.6144e-05
3.61999e-05
3.61577e-05
3.6039e-05
3.58669e-05
3.56437e-05
3.54545e-05
3.50148e-05
3.44136e-05
3.44134e-05
3.4414e-05
3.44153e-05
3.44172e-05
3.44197e-05
3.44228e-05
3.44266e-05
3.44308e-05
3.44356e-05
3.44407e-05
3.44461e-05
3.44515e-05
3.44572e-05
3.44645e-05
3.44743e-05
3.44861e-05
3.44961e-05
3.44993e-05
3.44933e-05
3.448e-05
3.44665e-05
3.44611e-05
3.44696e-05
3.44924e-05
3.45245e-05
3.45584e-05
3.45863e-05
3.46008e-05
3.45931e-05
3.4557e-05
3.45117e-05
3.45515e-05
3.47279e-05
3.49976e-05
3.53394e-05
3.5735e-05
3.61473e-05
3.64998e-05
3.66765e-05
3.65588e-05
3.61086e-05
3.54845e-05
3.51514e-05
3.53714e-05
3.57327e-05
3.60211e-05
3.61838e-05
3.62281e-05
3.61752e-05
3.60475e-05
3.58679e-05
3.56396e-05
3.54462e-05
3.50044e-05
3.44155e-05
3.44152e-05
3.44159e-05
3.44171e-05
3.44191e-05
3.44217e-05
3.44249e-05
3.44287e-05
3.4433e-05
3.44378e-05
3.4443e-05
3.44485e-05
3.44538e-05
3.44596e-05
3.44669e-05
3.4477e-05
3.44888e-05
3.44985e-05
3.4501e-05
3.44938e-05
3.44796e-05
3.44657e-05
3.44605e-05
3.44698e-05
3.44935e-05
3.45262e-05
3.45599e-05
3.45869e-05
3.45996e-05
3.45895e-05
3.45516e-05
3.45102e-05
3.45659e-05
3.47548e-05
3.50349e-05
3.53864e-05
3.57901e-05
3.62051e-05
3.65502e-05
3.67049e-05
3.65527e-05
3.60683e-05
3.54417e-05
3.51678e-05
3.54247e-05
3.5791e-05
3.60716e-05
3.62227e-05
3.62552e-05
3.61917e-05
3.60551e-05
3.58682e-05
3.56348e-05
3.54374e-05
3.49938e-05
3.44187e-05
3.44174e-05
3.44172e-05
3.44178e-05
3.44191e-05
3.4421e-05
3.44237e-05
3.4427e-05
3.44308e-05
3.44352e-05
3.44401e-05
3.44454e-05
3.44508e-05
3.44562e-05
3.4462e-05
3.44694e-05
3.44796e-05
3.44915e-05
3.45008e-05
3.45025e-05
3.44943e-05
3.44791e-05
3.44648e-05
3.44599e-05
3.447e-05
3.44946e-05
3.45278e-05
3.45614e-05
3.45873e-05
3.45982e-05
3.45856e-05
3.45463e-05
3.45101e-05
3.45819e-05
3.4783e-05
3.50735e-05
3.54347e-05
3.58461e-05
3.62632e-05
3.65993e-05
3.67303e-05
3.65421e-05
3.6025e-05
3.54019e-05
3.51905e-05
3.54803e-05
3.58495e-05
3.61213e-05
3.62605e-05
3.62811e-05
3.62071e-05
3.60617e-05
3.58676e-05
3.56294e-05
3.54281e-05
3.4983e-05
3.44207e-05
3.44194e-05
3.44191e-05
3.44197e-05
3.4421e-05
3.44231e-05
3.44257e-05
3.44291e-05
3.4433e-05
3.44375e-05
3.44425e-05
3.44478e-05
3.44532e-05
3.44586e-05
3.44644e-05
3.44719e-05
3.44823e-05
3.44941e-05
3.4503e-05
3.45039e-05
3.44946e-05
3.44785e-05
3.44637e-05
3.44593e-05
3.44703e-05
3.44958e-05
3.45294e-05
3.45626e-05
3.45875e-05
3.45964e-05
3.45814e-05
3.45411e-05
3.45113e-05
3.45995e-05
3.48125e-05
3.51134e-05
3.54843e-05
3.59031e-05
3.63213e-05
3.6647e-05
3.67524e-05
3.6527e-05
3.59799e-05
3.53658e-05
3.52191e-05
3.55377e-05
3.5908e-05
3.61703e-05
3.62972e-05
3.6306e-05
3.62214e-05
3.60674e-05
3.58662e-05
3.56233e-05
3.54183e-05
3.4972e-05
3.44227e-05
3.44214e-05
3.44211e-05
3.44217e-05
3.44231e-05
3.44251e-05
3.44279e-05
3.44313e-05
3.44353e-05
3.44398e-05
3.44448e-05
3.44502e-05
3.44557e-05
3.4461e-05
3.44668e-05
3.44744e-05
3.44849e-05
3.44967e-05
3.45052e-05
3.45052e-05
3.44947e-05
3.44777e-05
3.44626e-05
3.44586e-05
3.44705e-05
3.44969e-05
3.45309e-05
3.45638e-05
3.45875e-05
3.45944e-05
3.45771e-05
3.45362e-05
3.45143e-05
3.46187e-05
3.48434e-05
3.51547e-05
3.55351e-05
3.59609e-05
3.63794e-05
3.6693e-05
3.67705e-05
3.65081e-05
3.59328e-05
3.53341e-05
3.5253e-05
3.55968e-05
3.59663e-05
3.62185e-05
3.63329e-05
3.63298e-05
3.62347e-05
3.60721e-05
3.58641e-05
3.56167e-05
3.54081e-05
3.49608e-05
3.44248e-05
3.44235e-05
3.44232e-05
3.44238e-05
3.44251e-05
3.44272e-05
3.443e-05
3.44335e-05
3.44376e-05
3.44422e-05
3.44473e-05
3.44527e-05
3.44581e-05
3.44634e-05
3.44692e-05
3.44769e-05
3.44875e-05
3.44993e-05
3.45073e-05
3.45063e-05
3.44947e-05
3.44767e-05
3.44615e-05
3.44579e-05
3.44708e-05
3.4498e-05
3.45324e-05
3.45648e-05
3.45872e-05
3.45921e-05
3.45726e-05
3.45317e-05
3.45191e-05
3.46394e-05
3.48757e-05
3.51973e-05
3.55872e-05
3.60195e-05
3.64373e-05
3.67367e-05
3.67852e-05
3.64852e-05
3.58842e-05
3.53077e-05
3.52918e-05
3.56573e-05
3.60244e-05
3.62657e-05
3.63674e-05
3.63524e-05
3.62469e-05
3.60759e-05
3.58612e-05
3.56096e-05
3.53973e-05
3.49495e-05
3.4427e-05
3.44256e-05
3.44253e-05
3.44259e-05
3.44272e-05
3.44294e-05
3.44322e-05
3.44358e-05
3.44399e-05
3.44446e-05
3.44497e-05
3.44551e-05
3.44606e-05
3.44658e-05
3.44716e-05
3.44794e-05
3.44902e-05
3.45019e-05
3.45094e-05
3.45073e-05
3.44945e-05
3.44757e-05
3.44602e-05
3.44572e-05
3.4471e-05
3.44991e-05
3.45338e-05
3.45657e-05
3.45868e-05
3.45896e-05
3.45679e-05
3.45276e-05
3.45261e-05
3.46617e-05
3.49093e-05
3.52412e-05
3.56405e-05
3.6079e-05
3.64943e-05
3.67781e-05
3.67963e-05
3.64583e-05
3.58348e-05
3.52873e-05
3.53349e-05
3.57188e-05
3.60822e-05
3.6312e-05
3.64008e-05
3.63738e-05
3.62581e-05
3.60788e-05
3.58575e-05
3.56018e-05
3.53862e-05
3.49382e-05
3.44291e-05
3.44277e-05
3.44274e-05
3.4428e-05
3.44294e-05
3.44316e-05
3.44345e-05
3.44381e-05
3.44423e-05
3.4447e-05
3.44522e-05
3.44576e-05
3.44631e-05
3.44683e-05
3.4474e-05
3.44819e-05
3.44928e-05
3.45044e-05
3.45113e-05
3.45082e-05
3.44941e-05
3.44745e-05
3.44589e-05
3.44565e-05
3.44713e-05
3.45003e-05
3.45352e-05
3.45665e-05
3.45861e-05
3.45868e-05
3.45632e-05
3.45242e-05
3.45351e-05
3.46854e-05
3.49443e-05
3.52865e-05
3.56951e-05
3.61387e-05
3.65504e-05
3.68173e-05
3.68034e-05
3.64276e-05
3.5785e-05
3.52738e-05
3.5382e-05
3.57813e-05
3.61395e-05
3.63572e-05
3.6433e-05
3.63941e-05
3.62682e-05
3.60808e-05
3.58531e-05
3.55935e-05
3.53745e-05
3.49269e-05
3.44313e-05
3.44299e-05
3.44296e-05
3.44302e-05
3.44316e-05
3.44338e-05
3.44368e-05
3.44405e-05
3.44448e-05
3.44495e-05
3.44547e-05
3.44602e-05
3.44655e-05
3.44707e-05
3.44764e-05
3.44844e-05
3.44954e-05
3.45068e-05
3.45131e-05
3.45089e-05
3.44936e-05
3.44731e-05
3.44575e-05
3.44557e-05
3.44716e-05
3.45014e-05
3.45364e-05
3.45671e-05
3.45851e-05
3.45838e-05
3.45584e-05
3.45215e-05