/*--------------------------------*- C++ -*----------------------------------*\
  =========                 |
  \\      /  F ield         | OpenFOAM: The Open Source CFD Toolbox
   \\    /   O peration     | Website:  https://openfoam.org
    \\  /    A nd           | Version:  7
     \\/     M anipulation  |
\*---------------------------------------------------------------------------*/
FoamFile
{
    version     2.0;
    format      ascii;
    class       volScalarField;
    location    "800";
    object      p;
}
// * * * * * * * * * * * * * * * * * * * * * * * * * * * * * * * * * * * * * //

dimensions      [0 2 -2 0 0 0 0];

internalField   nonuniform List<scalar> 
23023
(
-20.6198
-22.8046
-20.4757
-24.032
-22.6059
-20.3281
-20.599
-23.7342
-22.3986
-20.1773
-20.2903
-23.4292
-22.1834
-20.0233
-13.8876
-19.9742
-23.1173
-21.9607
-19.8665
-5.38426
-13.5805
-19.651
-22.7988
-21.7307
-19.7068
4.94568
-5.11864
-13.2667
-19.321
-22.4741
-21.4938
-19.5446
16.1814
5.15046
-4.84731
-12.9466
-18.9845
-22.1434
-21.2501
-19.3798
27.745
16.3101
5.3596
-4.57041
-12.6203
-18.6417
-21.8068
-20.9998
-19.2127
38.7385
27.7906
16.4413
5.57303
-4.28813
-12.2882
-18.2928
-21.4647
-20.7432
-19.0432
38.701
27.8369
16.5753
5.79066
-4.00065
-11.9504
-17.938
-21.1172
-20.4805
-18.8716
48.2682
38.6622
27.8839
16.7119
6.01233
-3.70818
-11.6072
-17.5776
-20.7645
-20.212
-18.698
55.7307
48.1507
38.6221
27.9318
16.8511
6.23793
-3.41086
-11.2587
-17.2118
-20.4068
-19.9378
-18.5225
60.5926
55.5455
48.0301
38.5809
27.9804
16.9927
6.46735
-3.10884
-10.905
-16.8407
-20.0442
-19.6582
-18.3452
62.5945
60.3528
55.3556
47.9064
38.5386
28.0299
17.1368
6.70048
-2.80228
-10.5465
-16.4646
-19.677
-19.3734
-18.1663
62.3128
60.1071
55.1613
47.78
38.4952
28.0801
17.2833
6.9372
-2.4913
-10.1832
-16.0835
-19.3054
-19.0836
-17.9858
61.3936
62.0246
59.8559
54.9625
47.6507
38.4509
28.1311
17.4321
7.17745
-2.17601
-9.81519
-15.6977
-18.9294
-18.7891
-17.8037
57.7156
61.0742
61.7301
59.5992
54.7596
47.5188
38.4056
28.183
17.5833
7.42112
-1.85654
-9.44272
-15.3074
-18.5492
-18.4899
-17.6202
57.3755
60.7483
61.4295
59.3371
54.5524
47.3843
38.3596
28.2357
17.7367
7.66815
-1.53304
-9.06592
-14.9126
-18.1651
-18.1864
-17.4353
51.2122
57.0291
60.4161
61.1228
59.0699
54.3413
47.2474
38.3127
28.2892
17.8924
7.91843
-1.20561
-8.68493
-14.5137
-17.7772
-17.8786
-17.249
43.0622
50.8558
56.6765
60.0776
60.8103
58.7975
54.1264
47.1081
38.2652
28.3436
18.0502
8.17187
-0.874399
-8.29993
-14.1107
-17.3855
-17.5667
-17.0614
33.6356
42.7089
50.4937
56.3176
59.7331
60.4921
58.5204
53.9078
46.9666
38.217
28.3989
18.2102
8.42838
-0.539537
-7.91105
-13.7037
-16.9904
-17.2509
-16.8726
23.8364
33.3008
42.3509
50.126
55.9527
59.3825
60.1684
58.2386
53.6857
46.823
38.1682
28.455
18.3722
8.68787
-0.201134
-7.51842
-13.2931
-16.5918
-16.9314
-16.6826
23.5362
32.9626
41.9882
49.7528
55.5819
59.0263
59.8395
57.9524
53.4602
46.6774
38.1189
28.512
18.5363
8.95026
0.140702
-7.12218
-12.8788
-16.19
-16.6082
-16.4915
14.4038
23.2344
32.6209
41.6207
49.3741
55.2054
58.6644
59.5054
57.6618
53.2315
46.5298
38.0691
28.5698
18.7024
9.21548
0.485848
-6.72246
-12.4611
-15.785
-16.2816
-16.2993
6.80857
14.1523
22.9307
32.2756
41.2483
48.99
54.8234
58.2972
59.1665
57.367
52.9997
46.3805
38.0188
28.6286
18.8705
9.48343
0.834183
-6.3194
-12.0401
-15.3771
-15.9517
-16.1061
6.61695
13.9011
22.625
31.9266
40.8714
48.6007
54.436
57.9248
58.8228
57.0683
52.7648
46.2293
37.9682
28.6882
19.0405
9.75404
1.18561
-5.9131
-11.6158
-14.9662
-15.6187
-15.9119
1.27034
6.42735
13.6498
22.3172
31.5742
40.4899
48.2064
54.0434
57.5475
58.4746
56.7657
52.5272
46.0766
37.9172
28.7487
19.2123
10.0272
1.54002
-5.5037
-11.1885
-14.5526
-15.2826
-15.7169
-1.64545
1.1434
6.2395
13.3982
22.0073
31.2183
40.1041
47.8072
53.6459
57.1652
58.1219
56.4593
52.2868
45.9223
37.866
28.8102
19.3861
10.3029
1.89729
-5.09131
-10.7582
-14.1363
-14.9437
-15.521
-1.71543
1.01984
6.05313
13.1463
21.6954
30.859
39.7141
47.4033
53.2436
56.7783
57.765
56.1495
52.0437
45.7665
37.8145
28.8725
19.5616
10.581
2.25734
-4.67604
-10.3251
-13.7174
-14.6019
-15.3244
-2.35553
-1.78115
0.899365
5.86807
12.894
21.3815
30.4966
39.32
46.9949
52.8365
56.3869
57.404
55.8362
51.7982
45.6094
37.7629
28.9357
19.7388
10.8614
2.62006
-4.25798
-9.88918
-13.296
-14.2575
-15.127
-1.31841
-2.37551
-1.84287
0.781687
5.68428
12.6413
21.0658
30.131
38.9219
46.5822
52.425
55.9912
57.039
55.5196
51.5504
45.451
37.7111
28.9998
19.9178
11.1441
2.98538
-3.83723
-9.45065
-12.8723
-13.9105
-14.929
-1.30659
-2.39108
-1.90087
0.666637
5.50168
12.3883
20.7482
29.7624
38.5201
46.1652
52.0091
55.5912
56.6702
55.1999
51.3002
45.2914
37.6592
29.0647
20.0983
11.429
3.3532
-3.4139
-9.00957
-12.4462
-13.561
-14.7303
0.773652
-1.29054
-2.40248
-1.95533
0.554106
5.32024
12.1348
20.4287
29.3908
38.1145
45.744
51.589
55.1871
56.2978
54.8771
51.0479
45.1307
37.6072
29.1305
20.2805
11.7159
3.72342
-2.98806
-8.56601
-12.018
-13.2092
-14.5311
3.32709
0.807553
-1.27045
-2.40996
-2.00639
0.444016
5.13992
11.881
20.1076
29.0165
37.7054
45.3189
51.1649
54.7792
55.9218
54.5514
50.7935
44.9688
37.5551
29.1971
20.4642
12.005
4.096
-2.55979
-8.1201
-11.5876
-12.8551
-14.3312
3.36793
0.845125
-1.24657
-2.4137
-2.05415
0.336297
4.96067
11.6268
19.7848
28.6394
37.2928
44.89
50.7367
54.3675
55.5425
54.223
50.5372
44.806
37.5029
29.2645
20.6495
12.296
4.47086
-2.12919
-7.67191
-11.1552
-12.4989
-14.1308
6.05358
3.41192
0.886172
-1.21905
-2.41383
-2.0987
0.230874
4.78247
11.3723
19.4603
28.2596
36.8768
44.4573
50.3048
53.9521
55.1598
53.8918
50.2789
44.6421
37.4507
29.3327
20.8362
12.589
4.84791
-1.69634
-7.22154
-10.7208
-12.1406
-13.9298
8.6635
6.09616
3.45888
0.930486
-1.18803
-2.41044
-2.14014
0.127672
4.60527
11.1174
19.1342
27.8771
36.4575
44.021
49.8692
53.5331
54.774
53.558
50.0188
44.4773
37.3984
29.4017
21.0244
12.8839
5.22707
-1.26133
-6.76906
-10.2846
-11.7803
-13.7283
11.0228
8.70005
6.14128
3.50861
0.977913
-1.15358
-2.40362
-2.17857
0.0266129
4.429
10.8621
18.8064
27.4921
36.035
43.5811
49.43
53.1108
54.3852
53.2218
49.7569
44.3116
37.3462
29.4715
21.214
13.1805
5.60827
-0.824223
-6.31456
-9.84653
-11.4181
-13.5264
12.9429
11.051
8.73867
6.18876
3.56095
1.02837
-1.11578
-2.39347
-2.21408
-0.0723895
4.2536
10.6064
18.4771
27.1046
35.6095
43.1379
48.9874
52.6852
53.9934
52.8832
49.4934
44.1451
37.294
29.5421
21.4049
13.479
5.99144
-0.385104
-5.85813
-9.40678
-11.0541
-13.324
14.2762
12.9622
11.0808
8.77914
6.23837
3.61585
1.0818
-1.07472
-2.38009
-2.2468
-0.169433
4.079
10.3503
18.1462
26.7147
35.1809
42.6914
48.5415
52.2564
53.5988
52.5423
49.2283
43.9778
37.2418
29.6135
21.5972
13.7791
6.37652
0.055928
-5.39986
-8.96538
-10.6884
-13.1211
15.0062
14.2875
12.9828
11.112
8.8212
6.29
3.67328
1.13816
-1.03051
-2.3636
-2.27682
-0.264614
3.90515
10.0937
17.8137
26.3224
34.7495
42.2418
48.0924
51.8246
53.2015
52.1991
48.9617
43.8098
37.1897
29.6857
21.7908
14.081
6.76342
0.498805
-4.93981
-8.52239
-10.321
-12.9178
15.0113
14.2999
13.0044
11.1443
8.86477
6.34361
3.73321
1.19736
-0.983256
-2.34412
-2.30428
-0.35803
3.73197
9.83664
17.4798
25.9278
34.3152
41.7891
47.6402
51.3899
52.8015
51.8539
48.6936
43.6411
37.1377
29.7586
21.9857
14.3844
7.15207
0.943463
-4.47805
-8.07788
-9.95198
-12.7141
15.2984
15.0176
14.3131
13.0267
11.1776
8.90984
6.39922
3.79558
1.25932
-0.933066
-2.32175
-2.32927
-0.449781
3.55941
9.57911
17.1444
25.531
33.8782
41.3334
47.185
50.9523
52.3991
51.5066
48.4241
43.4718
37.0858
29.8323
22.1818
14.6893
7.54241
1.38984
-4.01464
-7.63191
-9.58145
-12.5101
15.4562
15.3008
15.0249
14.3268
13.0495
11.2119
8.95645
6.45682
3.86032
1.32393
-0.880052
-2.29662
-2.35193
-0.539955
3.38744
9.3211
16.8076
25.132
33.4386
40.8749
46.7269
50.5119
51.9942
51.1574
48.1534
43.3018
37.0341
29.9066
22.3791
14.9957
7.93439
1.83785
-3.54967
-7.18453
-9.20945
-12.3057
15.4579
15.3049
15.0327
14.3408
13.073
11.2473
9.00461
6.51638
3.92732
1.39108
-0.824323
-2.26885
-2.37235
-0.628627
3.21601
9.06262
16.4694
24.731
32.9965
40.4136
46.266
50.069
51.5869
50.8063
47.8814
43.1314
36.9824
29.9817
22.5775
15.3035
8.32793
2.28745
-3.08317
-6.73579
-8.83605
-12.101
15.8255
15.4617
15.3101
15.0408
14.3553
13.0973
11.2839
9.0543
6.57782
3.9965
1.46069
-0.765982
-2.23854
-2.39064
-0.71587
3.04511
8.80369
16.1299
24.328
32.552
39.9497
45.8024
49.6234
51.1774
50.4535
47.6082
42.9604
36.9309
30.0575
22.777
15.6127
8.72298
2.73857
-2.6152
-6.28575
-8.46129
-11.8959
16.6197
15.8303
15.4671
15.3161
15.0495
14.3703
13.1223
11.3215
9.10545
6.64104
4.06777
1.53266
-0.70514
-2.20581
-2.40688
-0.801745
2.87469
8.5443
15.7891
23.923
32.105
39.4832
45.3362
49.1754
50.7658
50.0989
47.3338
42.7889
36.8796
30.134
22.9776
15.9233
9.1195
3.19116
-2.14582
-5.83445
-8.08524
-11.6906
17.8438
16.6264
15.8375
15.4738
15.3228
15.0587
14.3859
13.148
11.3602
9.15798
6.70598
4.14107
1.60691
-0.641901
-2.17076
-2.42117
-0.886308
2.70473
8.28448
15.447
23.5161
31.6557
39.0141
44.8675
48.725
50.352
49.7427
47.0585
42.617
36.8283
30.2111
23.1793
16.2351
9.51743
3.64518
-1.67508
-5.38193
-7.70794
-11.4849
19.3155
17.8516
16.6359
15.8467
15.4815
15.3302
15.0686
14.4021
13.1745
11.3999
9.21182
6.77257
4.21632
1.68334
-0.576366
-2.1335
-2.43357
-0.969614
2.53522
8.02421
15.1037
23.1074
31.2043
38.5427
44.3963
48.2723
49.9363
49.3849
46.7821
42.4447
36.7773
30.2888
23.3819
16.5482
9.91672
4.10057
-1.20303
-4.92824
-7.32944
-11.279
20.8083
19.3225
17.8622
16.6476
15.8575
15.4904
15.3384
15.079
14.4188
13.2016
11.4405
9.26693
6.84075
4.29343
1.76186
-0.508629
-2.09409
-2.44416
-1.05171
2.36611
7.76349
14.7592
22.6969
30.7506
38.0689
43.9228
47.8174
49.5186
49.0256
46.5047
42.272
36.7264
30.3672
23.5856
16.8625
10.3173
4.5573
-0.729701
-4.47342
-6.94979
-11.0728
22.1958
20.8123
19.3321
17.875
16.6612
15.8698
15.5006
15.3475
15.09
14.4359
13.2293
11.482
9.32326
6.91046
4.37235
1.84238
-0.438776
-2.05263
-2.453
-1.13264
2.19738
7.50234
14.4136
22.2846
30.2949
37.5928
43.447
47.3603
49.0991
48.6649
46.2264
42.0989
36.6756
30.4462
23.7902
17.1779
10.7192
5.01531
-0.255151
-4.0175
-6.56904
-10.8664
23.4902
22.1954
20.8189
19.3439
17.8898
16.6766
15.8836
15.512
15.3574
15.1014
14.4534
13.2575
11.5243
9.38077
6.98166
4.45299
1.92483
-0.366882
-2.00918
-2.46015
-1.21247
2.02901
7.24075
14.0667
21.8707
29.8371
37.1145
42.969
46.9012
48.6778
48.3028
45.9472
41.9254
36.625
30.5258
23.9957
17.4945
11.1224
5.47456
0.220578
-3.56054
-6.18722
-10.6598
24.7737
23.4847
22.1974
20.8275
19.3575
17.9064
16.6937
15.899
15.5246
15.368
15.1133
14.4713
13.2863
11.5675
9.43942
7.05428
4.53528
2.00912
-0.293017
-1.9638
-2.46568
-1.29124
1.86098
6.97873
13.7188
21.4551
29.3773
36.634
42.4888
46.4401
48.2548
47.9394
45.6672
41.7517
36.5746
30.606
24.2021
17.8123
11.5267
5.93502
0.697446
-3.10255
-5.80439
-10.4529
26.1109
24.7632
23.4818
22.2016
20.8379
19.3729
17.9249
16.7127
15.916
15.5383
15.3793
15.1256
14.4895
13.3156
11.6114
9.49917
7.12825
4.61915
2.0952
-0.217238
-1.91657
-2.46966
-1.369
1.69325
6.71627
13.3697
21.0379
28.9156
36.1515
42.0066
45.9771
47.8301
47.5748
45.3864
41.5776
36.5244
30.6868
24.4094
18.131
11.9322
6.39663
1.17541
-2.64359
-5.42058
-10.2458
27.5197
26.0956
24.7554
23.4811
22.2075
20.85
19.3901
17.9452
16.7334
15.9345
15.5531
15.3913
15.1382
14.5081
13.3454
11.6562
9.55996
7.20353
4.70456
2.18302
-0.139608
-1.86755
-2.47214
-1.44579
1.52579
6.45337
13.0196
20.6192
28.452
35.667
41.5224
45.5122
47.4039
47.2089
45.1048
41.4033
36.4744
30.7682
24.6176
18.4509
12.3388
6.85936
1.65444
-2.18368
-5.03583
-10.0385
28.9941
27.4995
26.0833
24.7501
23.4823
22.2152
20.8638
19.4091
17.9674
16.756
15.9544
15.5688
15.4038
15.1512
14.527
13.3758
11.7016
9.62175
7.28007
4.79147
2.27252
-0.0601864
-1.8168
-2.4732
-1.52167
1.35859
6.19004
12.6685
20.1989
27.9866
35.1805
41.0362
45.0455
46.9761
46.8418
44.8225
41.2287
36.4245
30.8501
24.8266
18.7717
12.7465
7.32317
2.1345
-1.72288
-4.65014
-9.83107
30.5328
28.9687
27.4824
26.0735
24.7468
23.4854
22.2246
20.8794
19.4299
17.9914
16.7802
15.9757
15.5855
15.4168
15.1645
14.5463
13.4065
11.7478
9.68451
7.35783
4.87983
2.36365
0.0209623
-1.76439
-2.47288
-1.59669
1.19162
5.92628
12.3163
19.7772
27.5194
34.6922
40.5483
44.5772
46.5469
46.4737
44.5395
41.0538
36.3749
30.9326
25.0364
19.0935
13.1552
7.78804
2.61552
-1.26113
-4.26381
-9.62345
32.1443
30.5017
28.9465
27.4681
26.066
24.7456
23.4903
22.2357
20.8966
19.4523
18.0171
16.8059
15.9982
15.603
15.4304
15.1782
14.5658
13.4377
11.7946
9.74822
7.43678
4.9696
2.45637
0.103776
-1.7104
-2.47126
-1.67087
1.02487
5.66208
11.9631
19.354
27.0506
34.202
40.0585
44.1071
46.1162
46.1044
44.2558
40.8788
36.3254
31.0156
25.2471
19.4162
13.565
8.25389
3.09757
-0.798819
-3.87658
-9.41456
33.8385
32.107
30.474
28.9273
27.4563
26.0606
24.7463
23.4969
22.2485
20.9154
19.4764
18.0444
16.8332
16.022
15.6214
15.4445
15.1921
14.5856
13.4693
11.8421
9.81285
7.51689
5.06074
2.55061
0.188193
-1.65487
-2.46838
-1.74427
0.8583
5.39743
11.6089
18.9294
26.5801
33.7101
39.5669
43.6355
45.6842
45.7342
43.9716
40.7035
36.2762
31.0991
25.4584
19.7398
13.9757
8.72079
3.58023
-0.335607
-3.48639
-9.20436
35.6227
33.7945
32.0734
30.4495
28.9108
27.4467
26.0574
24.7489
23.5054
22.2628
20.9357
19.502
18.0732
16.8618
16.0469
15.6406
15.459
15.2063
14.6057
13.5013
11.8902
9.87839
7.59815
5.15321
2.64633
0.27415
-1.59788
-2.4643
-1.81692
0.691891
5.13235
11.2537
18.5035
26.108
33.2165
39.0737
43.1623
45.2509
45.363
43.6867
40.5281
36.2271
31.1831
25.6705
20.0643
14.3874
9.18833
4.06388
0.131172
-3.09387
-8.99512
37.5048
35.5715
33.7544
32.0431
30.4278
28.8967
27.4394
26.0562
24.7535
23.5155
22.2787
20.9575
19.529
18.1034
16.8918
16.0729
15.6605
15.474
15.2208
14.626
13.5337
11.939
9.94481
7.6805
5.24697
2.74348
0.361585
-1.53949
-2.45907
-1.88887
0.525623
4.86683
10.8976
18.0762
25.6343
32.7212
38.5788
42.6876
44.8163
44.9908
43.4013
40.3525
36.1782
31.2677
25.8833
20.3898
14.7998
9.65688
4.5514
0.600775
-2.70433
-8.78757
37.4457
35.5244
33.7179
32.0159
30.4088
28.8851
27.4344
26.0572
24.7599
23.5273
22.296
20.9807
19.5575
18.1351
16.9231
16.1
15.6812
15.4895
15.2355
14.6466
13.5666
11.9884
10.0121
7.76394
5.34197
2.84198
0.45044
-1.47975
-2.45275
-1.96016
0.359474
4.60087
10.5406
17.6477
25.1591
32.2243
38.0824
42.2114
44.3805
44.6177
43.1154
40.1768
36.1295
31.3526
26.0968
20.7158
15.2131
10.1294
5.04188
1.06664
-2.31886
-8.58068
39.429
37.3911
35.4812
33.6847
31.9915
30.3925
28.8758
27.4316
26.06
24.768
23.5405
22.3147
21.0051
19.5873
18.1682
16.9557
16.1281
15.7026
15.5053
15.2505
14.6674
13.5998
12.0385
10.0803
7.8484
5.43816
2.94179
0.54066
-1.41871
-2.44538
-2.03082
0.19342
4.33447
10.1827
17.2179
24.6825
31.7259
37.5844
41.7339
43.9436
44.2438
42.8289
40.0008
36.081
31.4381
26.3108
21.0426
15.6301
10.6047
5.52815
1.5277
-1.93467
-8.37376
39.3659
37.3405
35.4416
33.6547
31.9701
30.3787
28.869
27.4308
26.0648
24.7777
23.5552
22.3347
21.0309
19.6184
18.2025
16.9896
16.1573
15.7247
15.5216
15.2657
14.6885
13.6334
12.0891
10.1492
7.93386
5.53549
3.04287
0.632193
-1.35644
-2.43702
-2.1009
0.0274406
4.06762
9.82387
16.7869
24.2044
31.2259
37.085
41.255
43.5055
43.8691
42.542
39.8248
36.0327
31.524
26.5256
21.3727
16.0497
11.0756
6.00923
1.98765
-1.55059
-8.16676
41.4651
39.3073
37.2939
35.4054
33.6277
31.9514
30.3674
28.8643
27.4321
26.0713
24.789
23.5713
22.356
21.0578
19.6507
18.2382
17.0246
16.1873
15.7475
15.5382
15.2811
14.7098
13.6674
12.1403
10.219
8.02028
5.63391
3.14516
0.724984
-1.29298
-2.42772
-2.17043
-0.13848
3.80035
9.46419
16.3547
23.725
30.7245
36.5841
40.7748
43.0663
43.4936
42.2546
39.6486
35.9845
31.6103
26.7428
21.7047
16.4649
11.5412
6.48929
2.44781
-1.16699
-7.95989
41.3977
39.253
37.251
35.3724
33.6037
31.9353
30.3584
28.8617
27.4352
26.0794
24.8018
23.5887
22.3785
21.086
19.6843
18.2751
17.0608
16.2184
15.7709
15.5552
15.2968
14.7313
13.7018
12.1921
10.2894
8.1076
5.7334
3.24861
0.818982
-1.22839
-2.41752
-2.23945
-0.30436
3.53264
9.10367
15.9213
23.2442
30.2217
36.0818
40.2934
42.6262
43.1173
41.9667
39.4724
35.9366
31.6981
26.9612
22.0327
16.8751
12.0061
6.9697
2.90755
-0.784381
-7.75326
41.3349
39.2028
37.2116
35.3427
33.5825
31.9218
30.3518
28.8612
27.4401
26.0893
24.8161
23.6074
22.4021
21.1153
19.719
18.3131
17.098
16.2503
15.7949
15.5726
15.3127
14.7531
13.7365
12.2444
10.3606
8.19581
5.83389
3.35317
0.914137
-1.16272
-2.40647
-2.308
-0.470216
3.26449
8.74231
15.4869
22.7621
29.7175
35.5782
39.8107
42.185
42.7403
41.6786
39.296
35.889
31.7863
27.1762
22.3566
17.2848
12.4713
7.4496
3.36622
-0.402852
-7.54688
41.2766
39.1564
37.1757
35.316
33.5641
31.9107
30.3473
28.8626
27.4468
26.1007
24.8318
23.6273
22.4269
21.1457
19.7549
18.3523
17.1363
16.2831
15.8195
15.5903
15.3289
14.7751
13.7715
12.2972
10.4325
8.28486
5.93536
3.45882
1.0104
-1.09602
-2.39462
-2.37609
-0.63606
2.99592
8.38015
15.0513
22.2787
29.2119
35.0733
39.3269
41.7428
42.3628
41.39
39.1189
35.841
31.872
27.3881
22.6801
17.695
12.936
7.92828
3.82379
-0.0223287
-7.34067
43.4939
41.2226
39.1138
37.1431
35.2923
33.5483
31.902
30.3449
28.8659
27.4552
26.1136
24.8488
23.6485
22.4528
21.1771
19.7918
18.3926
17.1757
16.3167
15.8446
15.6084
15.3452
14.7973
13.8069
12.3505
10.505
8.37471
6.03777
3.56549
1.10773
-1.02833
-2.382
-2.44377
-0.801903
2.72693
8.01718
14.6146
21.794
28.705
34.5671
38.8419
41.3
41.9846
41.0997
38.9406
35.7917
31.9559
27.6001
23.0042
18.1046
13.3994
8.40577
4.28041
0.357233
-7.13463
43.4313
41.1727
39.0747
37.1136
35.2714
33.535
31.8955
30.3445
28.871
27.4652
26.1279
24.8671
23.6708
22.4797
21.2096
19.8298
18.434
17.2161
16.3511
15.8704
15.6267
15.3617
14.8197
13.8425
12.4042
10.5782
8.46535
6.14108
3.67316
1.20607
-0.959701
-2.36866
-2.51105
-0.967755
2.45751
7.65344
14.1769
21.3082
28.1969
34.0596
38.3562
40.8562
41.6037
40.8075
38.7622
35.742
32.0403
27.8125
23.3276
18.5128
13.8616
8.88224
4.7361
0.735796
-6.92877
45.8053
43.3731
41.1266
39.039
37.0872
35.2532
33.5241
31.8911
30.346
28.8778
27.4768
26.1437
24.8867
23.6942
22.5077
21.243
19.8688
18.4764
17.2574
16.3863
15.8966
15.6454
15.3783
14.8422
13.8784
12.4584
10.652
8.55674
6.24526
3.78178
1.3054
-0.890177
-2.35462
-2.57796
-1.13362
2.18768
7.28894
13.7382
20.8211
27.6874
33.5513
37.8692
40.409
41.2205
40.5165
38.585
35.693
32.125
28.0243
23.6496
18.9198
14.3227
9.35772
5.19082
1.11331
-6.7231
45.7383
43.3193
41.0842
39.0067
37.0637
35.2376
33.5156
31.8888
30.3494
28.8862
27.4898
26.1608
24.9074
23.7186
22.5366
21.2774
19.9088
18.5198
17.2997
16.4222
15.9233
15.6643
15.3951
14.8649
13.9146
12.513
10.7263
8.64886
6.35028
3.89132
1.40565
-0.819798
-2.33993
-2.64453
-1.29952
1.91744
6.92368
13.2985
20.3329
27.1772
33.0418
37.3785
39.9593
40.8397
40.2281
38.4088
35.6444
32.2091
28.2349
23.9706
19.3258
14.7828
9.83215
5.6445
1.48972
-6.51762
45.676
43.2696
41.0455
38.9775
37.043
35.2245
33.5092
31.8885
30.3545
28.8963
27.5043
26.1792
24.9293
23.7441
22.5664
21.3127
19.9497
18.5642
17.3428
16.4589
15.9505
15.6834
15.412
14.8877
13.951
12.568
10.8012
8.74169
6.45611
4.00174
1.5068
-0.748601
-2.32461
-2.71076
-1.46545
1.64679
6.55772
12.8577
19.8439
26.6656
32.5281
36.8849
39.5129
40.4626
39.9409
38.2329
35.5953
32.2923
28.4446
24.2908
19.7309
15.2419
10.3055
6.09711
1.86501
-6.31232
45.6183
43.2239
41.0102
38.9514
37.0251
35.2138
33.505
31.8902
30.3614
28.9079
27.5202
26.1988
24.9523
23.7705
22.5971
21.3488
19.9916
18.6095
17.3868
16.4962
15.9781
15.7028
15.429
14.9106
13.9876
12.6234
10.8767
8.83521
6.56273
4.11301
1.60881
-0.67662
-2.30869
-2.77668
-1.63143
1.37575
6.19097
12.4163
19.3537
26.1499
32.0116
36.3956
39.0713
40.0871
39.6539
38.0565
35.5454
32.3748
28.6536
24.61
20.1349
15.6997
10.7776
6.54863
2.23915
-6.10721
45.5648
43.1819
40.9782
38.9282
37.0097
35.2054
33.5029
31.8936
30.3699
28.921
27.5374
26.2196
24.9764
23.7979
22.6287
21.3858
20.0343
18.6556
17.4316
16.5341
16.0061
15.7223
15.4461
14.9336
14.0245
12.6792
10.9528
8.92939
6.6701
4.22509
1.71164
-0.603888
-2.29219
-2.84231
-1.79745
1.10426
5.82379
11.9739
18.8594
25.6313
31.4997
35.9116
38.6312
39.7116
39.3667
37.8799
35.4953
32.4568
28.8618
24.9283
20.5377
16.1564
11.2486
6.99902
2.6121
-5.90228
45.5155
43.1436
40.9494
38.9078
36.9968
35.1992
33.5027
31.8988
30.38
28.9355
27.5558
26.2416
25.0015
23.8262
22.661
21.4236
20.0778
18.7026
17.4771
16.5726
16.0344
15.742
15.4633
14.9568
14.0617
12.7354
11.0293
9.02421
6.7782
4.33795
1.81526
-0.530433
-2.27514
-2.90765
-1.96355
0.832585
5.45584
11.5278
18.3624
25.1176
30.9937
35.4293
38.1912
39.3362
39.0797
37.7033
35.445
32.5383
29.0692
25.2454
20.9394
16.6119
11.7183
7.44825
2.98384
-5.69754
45.4701
43.1087
40.9236
38.8902
36.9863
35.1952
33.5044
31.9058
30.3916
28.9514
27.5755
26.2647
25.0275
23.8554
22.6942
21.4622
20.1221
18.7504
17.5234
16.6116
16.0631
15.762
15.4806
14.9801
14.0991
12.792
11.1064
9.11966
6.887
4.45156
1.91965
-0.456283
-2.25756
-2.97275
-2.12958
0.560447
5.08474
11.0792
17.8703
24.6099
30.4892
34.947
37.7516
38.9614
38.7932
37.527
35.3945
32.6192
29.2757
25.5615
21.3399
17.0661
12.1868
7.89628
3.35431
-5.493
45.4285
43.0771
40.9008
38.8751
36.9781
35.1932
33.508
31.9144
30.4047
28.9686
27.5964
26.2888
25.0545
23.8853
22.7282
21.5015
20.1672
18.799
17.5704
16.6512
16.0921
15.782
15.498
15.0036
14.1367
12.849
11.184
9.21571
6.99647
4.5659
2.02476
-0.381464
-2.23948
-3.03753
-2.29573
0.28593
4.71155
10.6351
17.3839
24.1036
29.9848
34.4654
37.3132
38.5876
38.5072
37.3506
35.3435
32.6994
29.4813
25.8765
21.7391
17.519
12.654
8.34308
3.72347
-5.28864
45.3905
43.0487
40.8808
38.8625
36.9722
35.1931
33.5133
31.9245
30.4192
28.987
27.6184
26.314
25.0824
23.9161
22.7628
21.5415
20.213
18.8483
17.618
16.6913
16.1215
15.8023
15.5155
15.0273
14.1746
12.9063
11.2621
9.31234
7.10658
4.68093
2.13058
-0.305994
-2.22091
-3.10213
-2.46339
0.00984677
4.34236
10.1963
16.8988
23.5974
29.4813
33.9853
36.876
38.2146
38.2215
37.1742
35.2922
32.7789
29.6859
26.1904
22.1371
17.9705
13.1199
8.7886
4.09129
-5.08449
45.3559
43.0234
40.8635
38.8523
36.9683
35.195
33.5203
31.9361
30.435
29.0067
27.6415
26.3401
25.1112
23.9477
22.7982
21.5822
20.2595
18.8983
17.6662
16.7319
16.1511
15.8227
15.5332
15.051
14.2128
12.9641
11.3407
9.40952
7.21732
4.79662
2.23709
-0.229944
-2.2019
-3.16735
-2.63203
-0.263084
3.97751
9.75838
16.4136
23.0922
28.9796
33.5067
36.4399
37.8422
37.9361
36.9977
35.2404
32.8577
29.8895
26.503
22.5337
18.4207
13.5843
9.2328
4.45773
-4.88053
45.3248
43.0011
40.8488
38.8444
36.9665
35.1987
33.5289
31.9492
30.4521
29.0275
27.6657
26.3672
25.1408
23.9799
22.8342
21.6236
20.3066
18.9489
17.715
16.7729
16.1811
15.8433
15.551
15.075
14.2512
13.0221
11.4197
9.50723
7.32865
4.91298
2.3442
-0.153301
-2.18277
-3.233
-2.79852
-0.532807
3.61316
9.32028
15.9295
22.5887
28.4795
33.0295
36.0048
37.4705
37.6511
36.8212
35.1883
32.9357
30.0922
26.8145
22.929
18.8695
14.0474
9.67564
4.82273
-4.67677
45.2969
42.9816
40.8367
38.8387
36.9667
35.2041
33.5391
31.9637
30.4705
29.0494
27.6908
26.3951
25.1712
24.0129
22.8708
21.6655
20.3544
19.0002
17.7645
16.8144
16.2113
15.8641
15.5689
15.099
14.2898
13.0806
11.4991
9.60545
7.44057
5.02989
2.45195
-0.0760126
-2.16362
-3.29754
-2.96309
-0.802508
3.24843
8.88309
15.4471
22.0871
27.9809
32.5536
35.5707
37.0996
37.3663
36.6446
35.1357
33.013
30.2937
27.1247
23.3228
19.3168
14.509
10.1171
5.18624
-4.47322
45.272
42.9648
40.8269
38.8352
36.9687
35.2112
33.5508
31.9795
30.4901
29.0724
27.7169
26.4239
25.2024
24.0465
22.908
21.708
20.4028
19.0521
17.8145
16.8564
16.2419
15.885
15.5869
15.1233
14.3287
13.1393
11.5789
9.70418
7.55298
5.14741
2.56064
0.00162146
-2.14428
-3.36141
-3.1281
-1.07276
2.88441
8.44746
14.9663
21.587
27.4839
32.079
35.1377
36.7293
37.082
36.468
35.0827
33.0895
30.4942
27.4335
23.7152
19.7625
14.9691
10.557
5.54823
-4.26986
45.2502
42.9506
40.8195
38.8337
36.9726
35.2199
33.5639
31.9966
30.5108
29.0964
27.744
26.4536
25.2342
24.0808
22.9459
21.7511
20.4518
19.1046
17.865
16.8988
16.2728
15.9062
15.605
15.1476
14.3677
13.1983
11.6592
9.80331
7.66594
5.26598
2.66985
0.078734
-2.12532
-3.42609
-3.29379
-1.34257
2.52166
8.01331
14.4871
21.0885
26.9884
31.6059
34.7059
36.3599
36.7979
36.2913
35.0292
33.1651
30.6936
27.7411
24.1062
20.2067
15.4275
10.9955
5.90864
-4.06672
45.2312
42.939
40.8143
38.8342
36.9782
35.2302
33.5784
32.015
30.5326
29.1214
27.7719
26.484
25.2668
24.1156
22.9842
21.7948
20.5014
19.1577
17.9161
16.9416
16.3039
15.9275
15.6233
15.1721
14.4069
13.2576
11.7398
9.90292
7.77992
5.38513
2.7781
0.154731
-2.1074
-3.49153
-3.45932
-1.61148
2.16005
7.58044
14.0094
20.5917
26.4946
31.1342
34.2752
35.9911
36.5142
36.1145
34.9752
33.2399
30.8918
28.0472
24.4955
20.6493
15.8844
11.4324
6.2674
-3.86379
45.215
42.9298
40.8112
38.8365
36.9854
35.2419
33.5942
32.0345
30.5555
29.1474
27.8007
26.5152
25.3001
24.1511
23.0232
21.839
20.5516
19.2114
17.9678
16.9849
16.3353
15.9489
15.6416
15.1967
14.4463
13.3172
11.8207
10.0034
7.89445
5.50312
2.88484
0.229628
-2.09024
-3.55707
-3.62438
-1.87967
1.79941
7.14891
13.5334
20.0967
26.0026
30.664
33.8456
35.6231
36.2308
35.9376
34.9207
33.3138
31.0888
28.3518
24.8832
21.0901
16.3396
11.8677
6.62447
-3.66107
45.2014
42.9229
40.8101
38.8407
36.9943
35.2551
33.6113
32.0551
30.5794
29.1742
27.8303
26.5471
25.334
24.1872
23.0626
21.8837
20.6023
19.2657
18.02
17.0285
16.367
15.9705
15.66
15.2213
14.4859
13.377
11.9024
10.1044
8.00779
5.61947
2.99054
0.303829
-2.07338
-3.62256
-3.78919
-2.14732
1.43977
6.71883
13.0591
19.6036
25.5123
30.1954
33.4173
35.2559
35.9477
35.7606
34.8656
33.3868
31.2846
28.655
25.2693
21.5292
16.793
12.3013
6.97979
-3.45856
45.1904
42.9183
40.8111
38.8466
37.0047
35.2696
33.6296
32.0769
30.6042
29.202
27.8606
26.5798
25.3685
24.2238
23.1026
21.929
20.6536
19.3205
18.0726
17.0726
16.3989
15.9922
15.6785
15.2461
14.5256
13.4374
11.9845
10.2043
8.11956
5.73492
3.09566
0.377597
-2.05682
-3.68822
-3.95389
-2.41437
1.08125
6.29029
12.5866
19.1123
25.0238
29.7283
32.9901
34.8895
35.665
35.5834
34.81
33.4588
31.479
28.9566
25.6536
21.9665
17.2446
12.7331
7.3333
-3.25626
45.1818
42.9159
40.8139
38.8542
37.0166
35.2855
33.6491
32.0997
30.63
29.2305
27.8918
26.6131
25.4036
24.2609
23.143
21.9747
20.7053
19.3759
18.1258
17.117
16.4311
16.014
15.6971
15.271
14.5657
13.498
12.0656
10.3028
8.23057
5.84991
3.20028
0.450826
-2.04078
-3.75418
-4.11843
-2.68073
0.72392
5.86335
12.1159
18.623
24.5371
29.2628
32.5641
34.5238
35.3826
35.4061
34.7538
33.5298
31.6721
29.2566
26.0362
22.402
17.6944
13.1632
7.68495
-3.05418
45.1755
42.9155
40.8186
38.8634
37.0299
35.3026
33.6697
32.1235
30.6567
29.2599
27.9236
26.6471
25.4393
24.2985
23.184
22.021
20.7576
19.4318
18.1794
17.1617
16.4634
16.0359
15.7157
15.296
14.606
13.5579
12.1456
10.4006
8.34122
5.9644
3.30425
0.523325
-2.02535
-3.82039
-4.28274
-2.94634
0.367821
5.43804
11.6472
18.1357
24.0524
28.7989
32.1394
34.1589
35.1005
35.2287
34.6969
33.5997
31.8638
29.5549
26.4169
22.8354
18.1422
13.5914
8.03465
-2.85234
45.1716
42.917
40.825
38.8741
37.0446
35.3209
33.6915
32.1482
30.6843
29.2901
27.9562
26.6817
25.4756
24.3367
23.2254
22.0677
20.8104
19.4882
18.2335
17.2068
16.496
16.058
15.7344
15.3212
14.6457
13.6169
12.225
10.4982
8.45142
6.07821
3.4074
0.595044
-2.01047
-3.8868
-4.4468
-3.2112
0.0130002
5.01446
11.1805
17.6504
23.5696
28.3367
31.7159
33.7948
34.8187
35.051
34.6395
33.6686
32.0541
29.8515
26.7956
23.2669
18.588
14.0177
8.38234
-2.65072
45.1697
42.9205
40.8331
38.8863
37.0606
35.3404
33.7142
32.1739
30.7127
29.321
27.9894
26.7169
25.5124
24.3753
23.2673
22.1148
20.8637
19.545
18.288
17.2522
16.5287
16.0802
15.7532
15.346
14.6848
13.6756
12.3043
10.5954
8.56096
6.19122
3.50972
0.666021
-1.99612
-3.9534
-4.61059
-3.47525
-0.340479
4.59268
10.7159
17.1674
23.0889
27.8762
31.2937
33.4315
34.5372
34.8732
34.5813
33.7364
32.2428
30.1463
27.1724
23.6963
19.0317
14.4419
8.72798
-2.44933
45.17
42.9258
40.8427
38.8999
37.0778
35.3611
33.738
32.2005
30.7419
29.3526
28.0233
26.7526
25.5497
24.4144
23.3096
22.1624
20.9174
19.6023
18.3428
17.2979
16.5618
16.1024
15.7719
15.3705
14.7238
13.7341
12.3833
10.692
8.66978
6.30344
3.61124
0.736264
-1.98232
-4.02021
-4.77412
-3.73846
-0.692553
4.17276
10.2534
16.6866
22.6102
27.4174
30.8728
33.069
34.256
34.6952
34.5224
33.803
32.43
30.4392
27.5471
24.1235
19.4733
14.8641
9.07147
-2.24819
45.1723
42.9329
40.854
38.9149
37.0963
35.3828
33.7627
32.228
30.7719
29.385
28.0578
26.789
25.5876
24.454
23.3523
22.2105
20.9716
19.66
18.398
17.344
16.5949
16.1245
15.7903
15.3949
14.7627
13.7924
12.4617
10.788
8.77788
6.41487
3.71195
0.80574
-1.9691
-4.08723
-4.93734
-4.00078
-1.04316
3.75478
9.79322
16.208
22.1337
26.9605
30.4532
32.7074
33.9751
34.5169
34.4628
33.8683
32.6156
30.7302
27.9196
24.5484
19.9126
15.2842
9.41274
-2.04729
45.1765
42.9416
40.8667
38.9312
37.116
35.4055
33.7883
32.2563
30.8026
29.418
28.0929
26.8259
25.6259
24.494
23.3954
22.2589
21.0261
19.7181
18.4538
17.3903
16.6278
16.1464
15.8086
15.4192
14.8013
13.8503
12.5396
10.8833
8.88527
6.52551
3.8118
0.874409
-1.95648
-4.15447
-5.10024
-4.26217
-1.39223
3.33883
9.3353
15.7318
21.6593
26.5053
30.035
32.3466
33.6946
34.3384
34.4024
33.9325
32.7995
31.0192
28.29
24.9711
20.3496
15.702
9.75172
-1.84666
45.1825
42.952
40.8808
38.9488
37.1367
35.4293
33.8149
32.2854
30.834
29.4516
28.1286
26.8633
25.6647
24.5344
23.4389
22.3076
21.081
19.7768
18.5098
17.4361
16.6602
16.1681
15.8269
15.4434
14.8398
13.9077
12.617
10.978
8.99193
6.63532
3.91076
0.942244
-1.94447
-4.22191
-5.26279
-4.52256
-1.73968
2.92499
8.87979
15.2581
21.1872
26.052
29.6182
31.9866
33.4143
34.1597
34.3412
33.9953
32.9816
31.3061
28.658
25.3914
20.7842
16.1175
10.0883
-1.64628
45.1904
42.964
40.8964
38.9676
37.1586
35.454
33.8423
32.3152
30.8661
29.4859
28.1649
26.9013
25.7039
24.5752
23.4827
22.3568
21.1366
19.8358
18.5652
17.4813
16.6924
16.1896
15.845
15.4675
14.8779
13.9648
12.6939
11.0721
9.09782
6.74424
4.0088
1.00922
-1.93308
-4.28956
-5.42496
-4.78191
-2.08546
2.51335
8.42677
14.7869
20.7173
25.6006
29.2028
31.6276
33.1343
33.9806
34.2792
34.0567
33.1619
31.5908
29.0236
25.8091
21.2164
16.5307
10.4225
-1.44617
45.1999
42.9774
40.9132
38.9876
37.1815
35.4797
33.8705
32.3458
30.8989
29.5207
28.2017
26.9397
25.7436
24.6164
23.527
22.4065
21.1923
19.8939