/*--------------------------------*- C++ -*----------------------------------*\
  =========                 |
  \\      /  F ield         | OpenFOAM: The Open Source CFD Toolbox
   \\    /   O peration     | Website:  https://openfoam.org
    \\  /    A nd           | Version:  7
     \\/     M anipulation  |
\*---------------------------------------------------------------------------*/
FoamFile
{
    version     2.0;
    format      ascii;
    class       surfaceScalarField;
    location    "800";
    object      phi;
}
// * * * * * * * * * * * * * * * * * * * * * * * * * * * * * * * * * * * * * //

dimensions      [0 3 -1 0 0 0 0];

internalField   nonuniform List<scalar> 
45693
(
-0.00165562
0.0701461
-0.00167723
0.0662956
-0.00158811
0.0701611
-0.00169128
0.0617175
-0.00160887
0.0663163
-0.00152342
0.0701753
0.0578313
-0.00162254
0.0617312
-0.00154336
0.0663363
-0.00146122
0.0701889
-0.00163437
0.0578431
-0.00155665
0.0617445
-0.00148035
0.0663554
-0.00140159
0.0702018
-0.00164275
0.0539394
-0.00156824
0.0578547
-0.00149326
0.0617574
-0.00141995
0.0663738
-0.00134443
0.070214
-0.00164697
0.0503941
-0.00157659
0.0539478
-0.0015046
0.057866
-0.00143247
0.0617699
-0.00136204
0.0663914
-0.00128955
0.0702257
-0.0016464
0.0472189
-0.00158102
0.0503985
-0.00151292
0.0539561
-0.00144356
0.0578771
-0.00137419
0.0617821
-0.00130642
0.0664082
-0.00123689
0.0702367
-0.00164059
0.044509
-0.00158087
0.0472187
-0.00151753
0.0504031
-0.00145183
0.0539644
-0.00138501
0.0578879
-0.0013182
0.0617938
-0.00125304
0.0664244
-0.00118634
0.0702472
-0.00162969
0.0422961
-0.00157568
0.0445038
-0.00151777
0.047219
-0.0014566
0.0504079
-0.00139322
0.0539726
-0.00132876
0.0578985
-0.00126446
0.0618052
-0.0012018
0.0664399
-0.00113791
0.0702571
0.0406318
-0.00156552
0.0422859
-0.00151316
0.0444992
-0.0014572
0.0472196
-0.00139813
0.0504128
-0.0013369
0.0539807
-0.00127475
0.0579088
-0.00121286
0.0618163
-0.0011527
0.0664546
-0.00109144
0.0702665
-0.00155109
0.0406174
-0.00150371
0.0422765
-0.00145314
0.0444951
-0.00139908
0.0472205
-0.00134192
0.0504178
-0.00128281
0.0539888
-0.00122288
0.0579188
-0.0011634
0.061827
-0.00110558
0.0664688
-0.00104683
0.0702754
-0.00153378
0.0394556
-0.00149006
0.0406037
-0.00144439
0.0422677
-0.00139554
0.0444916
-0.00134318
0.0472218
-0.00128793
0.0504229
-0.00123084
0.0539967
-0.00117316
0.0579286
-0.00111593
0.0618373
-0.00106035
0.0664823
-0.00100407
0.0702839
-0.00151535
0.0387439
-0.0014735
0.0394391
-0.00143149
0.0405908
-0.00138745
0.0422597
-0.00134015
0.0444885
-0.00128948
0.0472234
-0.00123604
0.0504281
-0.00118101
0.0540046
-0.00112542
0.0579381
-0.00107034
0.0618473
-0.00101698
0.0664952
-0.000963021
0.0702918
-0.00149754
0.0383763
-0.00145574
0.0387261
-0.00141566
0.0394232
-0.00137527
0.0405787
-0.00133269
0.0422522
-0.00128691
0.044486
-0.00123786
0.0472252
-0.00118627
0.0504334
-0.00113316
0.0540123
-0.00107957
0.0579473
-0.00102664
0.061857
-0.000975349
0.0665076
-0.000923623
0.0702994
0.038225
-0.00143847
0.0383591
-0.00139855
0.038709
-0.00136016
0.0394081
-0.00132121
0.0405672
-0.00128006
0.0422453
-0.00123574
0.0444838
-0.00118834
0.0472272
-0.00113847
0.0504387
-0.00108718
0.0540199
-0.0010356
0.0579562
-0.000984671
0.0618663
-0.000935385
0.0665193
-0.000885875
0.0703065
-0.00142302
0.0382095
-0.00138182
0.0383423
-0.00134369
0.0386925
-0.0013068
0.0393937
-0.00126927
0.0405564
-0.00122947
0.0422391
-0.00118663
0.0444821
-0.00114076
0.0472295
-0.00109253
0.050444
-0.00104309
0.0540274
-0.000993362
0.0579649
-0.000944378
0.0618753
-0.000897092
0.0665305
-0.000849676
0.0703132
-0.00141024
0.0381892
-0.00136677
0.0381945
-0.00132748
0.0383261
-0.00129096
0.0386767
-0.00125553
0.03938
-0.00121933
0.0405463
-0.00118092
0.0422333
-0.00113944
0.0444808
-0.00109502
0.047232
-0.00104845
0.0504494
-0.00100072
0.0540348
-0.000952806
0.0579734
-0.000905764
0.061884
-0.000860366
0.0665412
-0.000814922
0.0703195
0.0381816
-0.00135425
0.0381767
-0.00131282
0.0381798
-0.00127526
0.0383104
-0.0012403
0.0386615
-0.00120626
0.0393669
-0.00117142
0.0405368
-0.00113426
0.0422282
-0.00109407
0.0444799
-0.00105112
0.0472347
-0.00100608
0.0504548
-0.000960017
0.054042
-0.000913929
0.0579815
-0.000868724
0.0618923
-0.000825104
0.0665514
-0.000781561
0.0703254
-0.00134476
0.0381721
-0.00130058
0.0381644
-0.001261
0.0381656
-0.00122511
0.0382952
-0.00119163
0.0386468
-0.00115899
0.0393545
-0.00112537
0.0405279
-0.00108939
0.0422235
-0.00105052
0.0444793
-0.00100892
0.0472375
-0.000965374
0.0504601
-0.000920994
0.0540491
-0.00087663
0.0579894
-0.000833154
0.0619004
-0.000791255
0.0665611
-0.000749643
0.070331
-0.00133853
0.0381345
-0.00129122
0.0381628
-0.00124902
0.0381524
-0.00121124
0.0381517
-0.00117694
0.0382805
-0.00114494
0.0386328
-0.00111356
0.0393427
-0.00108109
0.0405196
-0.00104631
0.0422193
-0.00100863
0.044479
-0.000968353
0.0472405
-0.000926332
0.0504655
-0.000883543
0.054056
-0.000840804
0.0579971
-0.000799004
0.0619081
-0.000758867
0.0665703
-0.000718963
0.0703363
-0.00133566
0.0379895
-0.00128501
0.0381283
-0.0012398
0.0381536
-0.00119952
0.0381407
-0.00116344
0.0381382
-0.00113074
0.0382663
-0.0011001
0.0386193
-0.00106989
0.0393315
-0.00103858
0.0405119
-0.00100488
0.0422155
-0.000968365
0.044479
-0.000929437
0.0472436
-0.000888852
0.0504708
-0.000847562
0.0540627
-0.0008064
0.0580045
-0.000766322
0.0619156
-0.000727735
0.0665791
-0.000689572
0.0703413
-0.00133608
0.0376846
-0.00128204
0.0379865
-0.00123362
0.0381221
-0.00119045
0.0381445
-0.00115199
0.0381293
-0.00111762
0.0381251
-0.00108638
0.0382526
-0.00105699
0.0386064
-0.00102798
0.0393209
-0.000997702
0.0405047
-0.000965053
0.0422122
-0.000929725
0.0444793
-0.000892066
0.0472468
-0.000852831
0.050476
-0.000812999
0.0540693
-0.00077347
0.0580116
-0.000734904
0.0619228
-0.000697909
0.0665874
-0.000661316
0.0703459
0.0371664
-0.00128226
0.0376848
-0.00123056
0.0379834
-0.00118429
0.038116
-0.00114307
0.0381356
-0.00110642
0.0381181
-0.00107362
0.0381123
-0.00104374
0.0382394
-0.00101562
0.0385941
-0.000987667
0.0393108
-0.000958395
0.040498
-0.000926823
0.0422093
-0.00089261
0.0444798
-0.000856139
0.0472501
-0.000818219
0.0504813
-0.000779908
0.0540758
-0.000741805
0.0580185
-0.000704799
0.0619297
-0.000669234
0.0665954
-0.000634344
0.0703503
-0.00128535
0.0371695
-0.00123057
0.0376848
-0.00118115
0.0379803
-0.00113694
0.0381098
-0.00109765
0.0381268
-0.00106268
0.0381071
-0.00103135
0.0380999
-0.00100284
0.0382266
-0.000975845
0.0385822
-0.000948915
0.0393014
-0.000920669
0.0404919
-0.000890095
0.0422068
-0.000856917
0.0444806
-0.000821606
0.0472535
-0.00078507
0.0504864
-0.000748081
0.054082
-0.000711458
0.0580252
-0.000675853
0.0619363
-0.000641862
0.0666029
-0.000608305
0.0703544
-0.00129073
0.036412
-0.00123339
0.0371723
-0.00118098
0.0376846
-0.00113373
0.0379771
-0.00109157
0.0381037
-0.00105406
0.0381182
-0.00102067
0.0380964
-0.000990809
0.0380879
-0.000963517
0.0382143
-0.000937616
0.0385709
-0.000911726
0.0392924
-0.000884423
0.0404862
-0.000854768
0.0422047
-0.0008226
0.0444816
-0.000788522
0.047257
-0.000753178
0.0504915
-0.00071757
0.0540882
-0.000682274
0.0580316
-0.000648217
0.0619426
-0.000615437
0.06661
-0.000583496
0.0703582
0.0354159
-0.00123845
0.0364171
-0.00118354
0.0371749
-0.00113339
0.0376843
-0.00108828
0.0379738
-0.00104802
0.0380977
-0.0010122
0.0381097
-0.000980379
0.038086
-0.000951846
0.0380762
-0.000925736
0.0382024
-0.000900937
0.0385601
-0.000876
0.039284
-0.000849558
0.040481
-0.000820795
0.0422029
-0.000789714
0.0444828
-0.000756681
0.0472605
-0.000722595
0.0504965
-0.000688219
0.0540941
-0.000654406
0.0580378
-0.000621534
0.0619487
-0.000590259
0.0666168
-0.000559566
0.0703618
-0.00124492
0.0354224
-0.00118828
0.0364218
-0.00113569
0.0371772
-0.00108778
0.0376838
-0.00104468
0.0379704
-0.0010062
0.0380917
-0.000972055
0.0381014
-0.000941667
0.0380758
-0.000914416
0.0380649
-0.000889496
0.0381909
-0.000865708
0.0385498
-0.000841638
0.0392761
-0.000816026
0.0404762
-0.000788232
0.0422014
-0.000758052
0.0444841
-0.000726138
0.047264
-0.000693166
0.0505015
-0.000660186
0.0540999
-0.000627494
0.0580437
-0.000596108
0.0619546
-0.000565975
0.0666232
-0.000536712
0.0703651
-0.00125182
0.0342205
-0.00119443
0.0354285
-0.00114014
0.0364263
-0.00108985
0.0371793
-0.00104402
0.0376831
-0.00100281
0.0379671
-0.000966111
0.0380858
-0.000933496
0.0380932
-0.000904487
0.0380659
-0.00087852
0.0380539
-0.000854697
0.0381799
-0.000831832
0.03854
-0.000808592
0.0392686
-0.000783884
0.0404719
-0.000756874
0.0422002
-0.000727671
0.0444857
-0.000696736
0.0472676
-0.00066505
0.0505064
-0.000633107
0.0541055
-0.000601845
0.0580495
-0.00057158
0.0619602
-0.000542783
0.0666292
-0.000514785
0.0703682
0.0328806
-0.00120104
0.0342271
-0.00114597
0.0354343
-0.001094
0.0364304
-0.00104586
0.0371811
-0.00100201
0.0376823
-0.000962673
0.0379636
-0.000927606
0.0380799
-0.000896468
0.0380852
-0.000868838
0.0380562
-0.000844061
0.0380433
-0.000821242
0.0381693
-0.000799259
0.0385307
-0.000776918
0.0392617
-0.000752927
0.0404679
-0.000726776
0.0421993
-0.000698415
0.0444874
-0.000668637
0.0472712
-0.000637881
0.0505111
-0.000607293
0.0541109
-0.000577098
0.058055
-0.000548154
0.0619655
-0.000520531
0.066635
-0.000493682
0.0703712
-0.00120725
0.0328868
-0.0011523
0.0342334
-0.00109954
0.0354399
-0.00104974
0.0364343
-0.00100363
0.0371827
-0.000961746
0.0376814
-0.000924131
0.0379601
-0.000890637
0.038074
-0.000860972
0.0380773
-0.000834624
0.0380468
-0.000810941
0.038033
-0.000789083
0.0381592
-0.000768044
0.0385218
-0.000746413
0.0392552
-0.000723211
0.0404643
-0.000697785
0.0421987
-0.000670447
0.0444892
-0.000641474
0.0472748
-0.000611974
0.0505158
-0.00058238
0.0541162
-0.000553459
0.0580603
-0.000525675
0.0619707
-0.000499117
0.0666404
-0.000473502
0.0703739
-0.00121245
0.0314871
-0.00115828
0.0328928
-0.00110559
0.0342395
-0.00105499
0.0354451
-0.00100725
0.0364379
-0.000963159
0.0371841
-0.00092308
0.0376804
-0.000887131
0.0379566
-0.000855203
0.0380683
-0.000826911
0.0380696
-0.000801748
0.0380376
-0.000779113
0.038023
-0.000758273
0.0381494
-0.000737987
0.0385134
-0.000717132
0.0392491
-0.000694583
0.0404611
-0.000670063
0.0421983
-0.0006434
0.0444911
-0.000615565
0.0472784
-0.000586965
0.0505204
-0.000558577
0.0541213
-0.000530772
0.0580654
-0.00050404
0.0619756
-0.00047864
0.0666456
-0.000454143
0.0703764
0.0301057
-0.00116331
0.0314921
-0.00111134
0.0328985
-0.00106077
0.0342453
-0.00101221
0.0354501
-0.000966523
0.0364413
-0.000924298
0.0371853
-0.000885964
0.0376792
-0.000851672
0.0379531
-0.000821207
0.0380626
-0.000794188
0.0380621
-0.00077016
0.0380286
-0.000748627
0.0380134
-0.000728612
0.03814
-0.00070914
0.0385054
-0.000688924
0.0392434
-0.000667205
0.0404583
-0.000643245
0.0421981
-0.000617593
0.0444931
-0.000590543
0.0472819
-0.000563061
0.0505249
-0.000535727
0.0541263
-0.000508934
0.0580703
-0.00048335
0.0619803
-0.000458997
0.0666504
-0.000435554
0.0703787
-0.00116713
0.0301095
-0.00111621
0.031497
-0.0010663
0.0329041
-0.00101774
0.0342508
-0.000971219
0.0354548
-0.000927418
0.0364444
-0.000886997
0.0371864
-0.000850398
0.0376779
-0.000817656
0.0379496
-0.000788552
0.0380569
-0.000762754
0.0380546
-0.000739912
0.0380199
-0.000719287
0.0380041
-0.000700154
0.038131
-0.000681355
0.0384978
-0.000661948
0.0392382
-0.000640713
0.0404558
-0.00061765
0.0421982
-0.00059266
0.0444952
-0.000566621
0.0472855
-0.000540109
0.0505293
-0.000513727
0.0541311
-0.000488046
0.058075
-0.000463501
0.0619848
-0.000440137
0.066655
-0.000417784
0.0703809
-0.00116977
0.0287905
-0.00111992
0.0301133
-0.001071
0.0315017
-0.00102305
0.0329094
-0.00097649
0.0342561
-0.000931855
0.0354592
-0.000889885
0.0364473
-0.000851256
0.0371872
-0.000816284
0.0376765
-0.000784987
0.037946
-0.000757189
0.0380514
-0.000732659
0.0380474
-0.000710808
0.0380114
-0.000691143
0.037995
-0.000672749
0.0381224
-0.000654787
0.0384907
-0.000635843
0.0392333
-0.000615426
0.0404535
-0.000592912
0.0421984
-0.000568815
0.0444974
-0.000543641
0.047289
-0.000518003
0.0505335
-0.00049268
0.0541357
-0.000468005
0.0580795
-0.000444441
0.0619891
-0.000422108
0.0666593
-0.000400633
0.0703829
0.0275649
-0.0011225
0.0287931
-0.00107461
0.0301169
-0.0010276
0.0315062
-0.000981595
0.0329145
-0.000936882
0.0342611
-0.000894073
0.0354634
-0.000853922
0.03645
-0.000816976
0.0371879
-0.000783523
0.0376751
-0.000753615
0.0379424
-0.000727167
0.0380459
-0.000703709
0.0380403
-0.000682897
0.0380032
-0.000664049
0.0379863
-0.000646551
0.0381142
-0.00062908
0.0384839
-0.000610925
0.0392288
-0.00059098
0.0404516
-0.000569246
0.0421989
-0.000545901
0.0444997
-0.000521502
0.0472925
-0.000496849
0.0505377
-0.000472482
0.0541402
-0.000448758
0.0580838
-0.000426221
0.0619932
-0.000404709
0.0666634
-0.000384297
0.0703847
-0.00112409
0.0275665
-0.00107714
0.0287956
-0.0010311
0.0301204
-0.000985985
0.0315106
-0.000941784
0.0329194
-0.000898864
0.0342659
-0.000857869
0.0354673
-0.00081943
0.0364524
-0.000784059
0.0371885
-0.000752068
0.0376735
-0.000723589
0.0379388
-0.000698292
0.0380405
-0.000675952
0.0380333
-0.000656034
0.0379952
-0.000638155
0.037978
-0.000621209
0.0381063
-0.000604547
0.0384775
-0.000586834
0.0392246
-0.000567587
0.0404499
-0.000546497
0.0421995
-0.000523815
0.044502
-0.000500308
0.047296
-0.000476542
0.0505418
-0.00045308
0.0541445
-0.000430356
0.0580879
-0.000408635
0.0619972
-0.000388138
0.0666672
-0.000368576
0.0703865
-0.00112486
0.0264326
-0.00107871
0.027568
-0.00103357
0.0287981
-0.000989393
0.0301238
-0.000946022
0.0315149
-0.000903567
0.0329241
-0.000862432
0.0342704
-0.000823146
0.0354711
-0.00078631
0.0364547
-0.000752456
0.0371888
-0.000721965
0.0376719
-0.000694714
0.0379353
-0.000670613
0.0380351
-0.000649242
0.0380266
-0.000630368
0.0379874
-0.000613113
0.0379699
-0.000597029
0.0380988
-0.000580828
0.0384715
-0.00056378
0.0392208
-0.000545095
0.0404485
-0.000524561
0.0422002
-0.000502665
0.0445044
-0.000479956
0.0472994
-0.000457031
0.0505457
-0.000434527
0.0541487
-0.000412594
0.0580919
-0.000391885
0.0620009
-0.000372193
0.0666709
-0.00035353
0.070388
-0.00112499
0.0253918
-0.00107948
0.0264333
-0.00103512
0.0275696
-0.000991803
0.0288005
-0.000949331
0.0301271
-0.000907657
0.031519
-0.000866943
0.0329286
-0.000827488
0.0342748
-0.000789805
0.0354746
-0.000754514
0.0364567
-0.000722214
0.0371891
-0.000693021
0.0376702
-0.000667039
0.0379317
-0.000643983
0.0380299
-0.000623728
0.0380199
-0.000605553
0.0379798
-0.000589226
0.0379621
-0.000573657
0.0380916
-0.000558135
0.0384659
-0.000541612
0.0392173
-0.000523402
0.0404474
-0.000503547
0.0422011
-0.000482347
0.0445068
-0.000460395
0.0473028
-0.000438367
0.0505496
-0.000416614
0.0541527
-0.000395674
0.0580957
-0.000375768
0.0620045
-0.000356933
0.0666743
-0.000339063
0.0703895
-0.00112468
0.0244391
-0.00107963
0.025392
-0.0010359
0.0264341
-0.000993331
0.0275711
-0.000951685
0.0288029
-0.000910867
0.0301303
-0.000870888
0.0315229
-0.000831812
0.0329329
-0.000793934
0.0342789
-0.000757796
0.0354778
-0.000724089
0.0364586
-0.000693139
0.0371892
-0.000665283
0.0376685
-0.000640419
0.0379281
-0.000618549
0.0380247
-0.000599067
0.0380134
-0.000581889
0.0379725
-0.000566145
0.0379545
-0.0005513
0.0380848
-0.000536314
0.0384606
-0.000520227
0.0392142
-0.000502614
0.0404464
-0.000483353
0.0422021
-0.00046281
0.0445092
-0.000441677
0.0473061
-0.000420343
0.0505533
-0.000399547
0.0541566
-0.000379391
0.0580993
-0.000360342
0.0620079
-0.000342262
0.0666775
-0.000325208
0.0703908
-0.00112422
0.0235651
-0.00107935
0.0244388
-0.00103607
0.0253921
-0.000994117
0.0264349
-0.000953192
0.0275726
-0.000913167
0.0288052
-0.000874002
0.0301334
-0.000835616
0.0315267
-0.000798076
0.0329371
-0.000761719
0.0342828
-0.000727166
0.0354809
-0.000694839
0.0364603
-0.000665278
0.0371892
-0.000638605
0.0376666
-0.000614998
0.0379246
-0.000593972
0.0380196
-0.000575554
0.0380071
-0.000559029
0.0379654
-0.000544072
0.0379473
-0.000529808
0.0380783
-0.000515265
0.0384556
-0.000499733
0.0392113
-0.000482631
0.0404457
-0.000463927
0.0422032
-0.000444109
0.0445116
-0.000423593
0.0473093
-0.000403166
0.0505569
-0.00038312
0.0541603
-0.000363805
0.0581028
-0.00034551
0.0620111
-0.000328214
0.0666805
-0.00031192
0.070392
-0.00112389
0.0227579
-0.0010789
0.0235647
-0.00103581
0.0244386
-0.000994304
0.0253923
-0.000953981
0.0264357
-0.000914651
0.0275741
-0.000876247
0.0288074
-0.000838636
0.0301364
-0.000801742
0.0315304
-0.000765684
0.032941
-0.000730891
0.0342866
-0.00069772
0.0354838
-0.000666811
0.0364618
-0.000638485
0.0371891
-0.000613133
0.0376648
-0.000590438
0.037921
-0.000570542
0.0380146
-0.000552846
0.0380009
-0.000537174
0.0379585
-0.000522858
0.0379404
-0.00050908
0.0380721
-0.000495095
0.038451
-0.000480029
0.0392087
-0.000463402
0.0404452
-0.000445325
0.0422044
-0.000426034
0.044514
-0.000406355
0.0473125
-0.000386628
0.0505604
-0.000367393
0.0541639
-0.000348818
0.0581061
-0.000331307
0.0620142
-0.000314741
0.0666833
-0.000299177
0.0703931
0.0219948
-0.00107858
0.0227575
-0.00103538
0.0235643
-0.000994068
0.0244383
-0.000954185
0.0253925
-0.000915443
0.0264365
-0.000877709
0.0275756
-0.000840826
0.0288096
-0.000804669
0.0301394
-0.000769215
0.0315339
-0.000734685
0.0329448
-0.000701253
0.0342901
-0.000669505
0.0354865
-0.000639861
0.0364632
-0.000612905
0.0371889
-0.000588527
0.0376629
-0.000567028
0.0379175
-0.000547921
0.0380097
-0.000531141
0.0379949
-0.000516175
0.0379518
-0.000502405
0.0379337
-0.000489221
0.0380662
-0.000475702
0.0384467
-0.000461065
0.0392064
-0.000444982
0.0404449
-0.000427337
0.0422057
-0.000408798
0.0445165
-0.000389752
0.0473156
-0.000370792
0.0505638
-0.000352269
0.0541674
-0.000334466
0.0581092
-0.000317686
0.0620172
-0.000301823
0.0666859
-0.000286954
0.0703941
-0.00107862
0.0219949
-0.00103506
0.0227572
-0.000993654
0.0235638
-0.000953973
0.0244381
-0.000915664
0.0253927
-0.000878502
0.0264373
-0.000842266
0.027577
-0.000806805
0.0288117
-0.000772051
0.0301422
-0.000738085
0.0315373
-0.000704881
0.0329485
-0.000672853
0.0342934
-0.000642374
0.035489
-0.00061413
0.0364644
-0.000588198
0.0371885
-0.000565076
0.0376609
-0.00054443
0.037914
-0.000526302
0.0380048
-0.000510292
0.037989
-0.000495935
0.0379453
-0.000482814
0.0379273
-0.000470132
0.0380607
-0.000457038
0.0384426
-0.000442897
0.0392043
-0.000427165
0.0404447
-0.000410178
0.0422071
-0.00039219
0.0445189
-0.000373849
0.0473187
-0.000355559
0.0505671
-0.000337782
0.0541707
-0.0003207
0.0581123
-0.000304626
0.06202
-0.000289434
0.0666884
-0.000275235
0.070395
-0.0010791
0.0212543
-0.00103509
0.0219949
-0.00099334
0.0227569
-0.000953576
0.0235635
-0.000915474
0.0244379
-0.00087874
0.025393
-0.000843059
0.0264381
-0.000808222
0.0275784
-0.000774134
0.0288138
-0.000740831
0.0301449
-0.000708153
0.0315406
-0.00067632
0.0329519
-0.000645544
0.0342966
-0.000616472
0.0354913
-0.000589281
0.0364655
-0.000564654
0.0371881
-0.000542443
0.0376589
-0.000522837
0.0379106
-0.000505541
0.0380001
-0.000490202
0.0379833
-0.000476554
0.0379391
-0.000463988
0.0379211
-0.000451763
0.0380554
-0.000439158
0.0384389
-0.000425318
0.0392024
-0.000410162
0.0404447
-0.000393638
0.0422086
-0.000376276
0.0445213
-0.000358545
0.0473217
-0.000340963
0.0505703
-0.000323885
0.0541739
-0.0003075
0.0581151
-0.0002921
0.0620227
-0.000277557
0.0666907
-0.000263999
0.0703959
0.0205193
-0.00103554
0.0212547
-0.00099335
0.0219949
-0.000953265
0.0227566
-0.000915095
0.0235631
-0.000878571
0.0244378
-0.000843312
0.0253932
-0.000809015
0.0264389
-0.000775527
0.0275798
-0.000742861
0.0288159
-0.000710811
0.0301476
-0.000679467
0.0315437
-0.000648855
0.0329552
-0.00061947
0.0342996
-0.000591457
0.0354935
-0.000565602
0.0364665
-0.000541933
0.0371876
-0.00052082
0.0376569
-0.000502105
0.0379071
-0.00048554
0.0379954
-0.000470969
0.0379777
-0.000457935
0.037933
-0.000445877
0.0379153
-0.000434168
0.0380504
-0.000421855
0.0384354
-0.00040854
0.0392008
-0.000393766
0.0404448
-0.000377781
0.0422101
-0.000360956
0.0445238
-0.000343879
0.0473246
-0.00032696
0.0505734
-0.000310558
0.0541769
-0.00029484
0.0581179
-0.000280092
0.0620252
-0.000266171
0.0666929
-0.000253216
0.0703966
-0.00103633
0.0205201
-0.000993776
0.0212551
-0.000953263
0.0219949
-0.000914787
0.0227563
-0.000878209
0.0235627
-0.000843165
0.0244376
-0.000809283
0.0253935
-0.000776319
0.0264396
-0.00074423
0.0275812
-0.000712788
0.0288178
-0.000682039
0.0301502
-0.00065188
0.0315468
-0.00062263
0.0329584
-0.00059429
0.0343024
-0.000567621
0.0354955
-0.000542753
0.0364673
-0.000520229
0.037187
-0.000500062
0.0376549
-0.000482136
0.0379037
-0.000466397
0.0379908
-0.000452498
0.0379722
-0.000440029
0.0379272
-0.000428534
0.0379096
-0.000417143
0.0380457
-0.000405342
0.0384322
-0.000392355
0.0391994
-0.000378042
0.0404451
-0.00036251
0.0422116
-0.000346267
0.0445261
-0.000329802
0.0473274
-0.000313527
0.0505763
-0.000297773
0.0541799
-0.000282702
0.0581205
-0.00026858
0.0620276
-0.000255246
0.0666949
-0.00024288
0.0703973
-0.00103723
0.0197807
-0.000994533
0.0205209
-0.000953662
0.0212555
-0.000914773
0.0219949
-0.000877906
0.022756
-0.00084282
0.0235624
-0.000809156
0.0244375
-0.0007766
0.0253938
-0.00074502
0.0264404
-0.000714133
0.0275825
-0.000683965
0.0288198
-0.000654367
0.0301527
-0.000625538
0.0315497
-0.000597304
0.0329614
-0.000570295
0.0343051
-0.000544622
0.0354974
-0.000520928
0.036468
-0.000499395
0.0371863
-0.000480071
0.0376528
-0.000463028
0.0379004
-0.000448015
0.0379863
-0.000434738
0.0379669
-0.000422886
0.0379215
-0.000411758
0.0379042
-0.000400898
0.0380412
-0.000389411
0.0384293
-0.000376831
0.0391982
-0.000362892
0.0404454
-0.000347863
0.0422132
-0.000332165
0.0445285
-0.000316294
0.0473302
-0.000300637
0.0505792
-0.000285514
0.0541827
-0.000271065
0.058123
-0.000257534
0.0620299
-0.000244775
0.0666968
-0.000232965
0.0703979
-0.00103801
0.0190421
-0.00099541
0.0197815
-0.000954388
0.0205216
-0.000915146
0.0212559
-0.00087788
0.0219949
-0.000842522
0.0227557
-0.000808827
0.023562
-0.000776493
0.0244374
-0.000745314
0.0253941
-0.00071492
0.0264412
-0.000685285
0.0275838
-0.000656241
0.0288216
-0.000627942
0.0301551
-0.000600095
0.0315525
-0.000573168
0.0329643
-0.000547143
0.0343076
-0.000522654
0.0354991
-0.000499981
0.0364686
-0.000479335
0.0371856
-0.000460945
0.0376507
-0.000444683
0.037897
-0.000430347
0.037982
-0.00041774
0.0379618
-0.000406309
0.0379161
-0.000395753
0.0378991
-0.000385228
0.0380371
-0.000374128
0.0384266
-0.000361868
0.0391971
-0.000348355
0.0404459
-0.000333793
0.0422148
-0.000318627
0.0445308
-0.00030333
0.0473329
-0.000288276
0.050582
-0.00027376
0.0541854
-0.000259899
0.0581253
-0.000246948
0.0620321
-0.000234733
0.0666986
-0.000223461
0.0703984
-0.00103854
0.0183192
-0.000996175
0.0190428
-0.000955238
0.0197824
-0.000915842
0.0205223
-0.000878229
0.0212563
-0.000842485
0.0219948
-0.000808535
0.0227554
-0.000776182
0.0235617
-0.000745227
0.0244373
-0.000715226
0.0253944
-0.000686069
0.026442
-0.000657536
0.0275851
-0.000629765
0.0288235
-0.000602418
0.0301574
-0.000575848
0.0315551
-0.000549879
0.032967
-0.000525028
0.03431
-0.000501569
0.0355007
-0.000479813
0.0364691
-0.000460145
0.0371848
-0.000442586
0.0376486
-0.000427053
0.0378937
-0.00041344
0.0379777
-0.000401309
0.0379568
-0.0003905
0.0379108
-0.000380319
0.0378942
-0.000370196
0.0380331
-0.000359396
0.0384241
-0.000347506
0.0391963
-0.000334385
0.0404465
-0.000320281
0.0422165
-0.000305629
0.0445331
-0.000290893
0.0473355
-0.000276422
0.0505846
-0.00026248
0.0541879
-0.000249197
0.0581276
-0.000236795
0.0620341
-0.000225108
0.0667002
-0.000214342
0.0703988
-0.00103881
0.0176232
-0.000996691
0.0183197
-0.000955985
0.0190436
-0.000916664
0.0197832
-0.000878894
0.0205229
-0.000842809
0.0212566
-0.000808487
0.0219948
-0.000775894
0.0227551
-0.000744932
0.0235614
-0.000715157
0.0244372
-0.000686386
0.0253947
-0.000658316
0.0264428
-0.000631036
0.0275864
-0.000604191
0.0288252
-0.000578091
0.0301596
-0.000552449
0.0315577
-0.000527632
0.0329696
-0.000503803
0.0343122
-0.000481271
0.0355022
-0.000460521
0.0364694
-0.000441727
0.0371839
-0.000424947
0.0376465
-0.000410187
0.0378905
-0.000397101
0.0379734
-0.000385641
0.0379519
-0.000375258
0.0379058
-0.000365517
0.0378895
-0.000355708
0.0380294
-0.000345255
0.0384219
-0.0003337
0.0391956
-0.000320964
0.0404472
-0.000307302
0.0422182
-0.000293155
0.0445354
-0.000278963
0.0473381
-0.000265043
0.0505872
-0.000251667
0.0541904
-0.000238933
0.0581297
-0.000227064
0.0620361
-0.000215875
0.0667018
-0.000205603
0.0703992
-0.00103895
0.01696
-0.000996967
0.0176235
-0.000956494
0.0183203
-0.000917394
0.0190443
-0.00087969
0.019784
-0.000843445
0.0205236
-0.000808789
0.0212569
-0.000775837
0.0219947
-0.00074465
0.0227548
-0.000714879
0.0235612
-0.000686335
0.0244372
-0.000658643
0.025395
-0.00063181
0.0264436
-0.000605436
0.0275877
-0.000579814
0.028827
-0.000554614
0.0301618
-0.000530096
0.0315602
-0.000506279
0.0329721
-0.000483369
0.0343143
-0.000461855
0.0355035
-0.000442008
0.0364697
-0.000424033
0.037183
-0.000408074
0.0376444
-0.000393891
0.0378873
-0.000381526
0.0379693
-0.000370542
0.0379472
-0.000360645
0.0379009
-0.000351254
0.037885
-0.000341802
0.038026
-0.000331659
0.0384198
-0.000320432
0.0391951
-0.000308066
0.040448
-0.000294841
0.0422199
-0.000281185
0.0445376
-0.000267508
0.0473405
-0.000254134
0.0505896
-0.000241296
0.0541928
-0.000229095
0.0581318
-0.000217729
0.0620379
-0.000207028
0.0667032
-0.000197213
0.0703996
-0.00103907
0.0163265
-0.000997108
0.0169602
-0.000956769
0.0176237
-0.000917896
0.0183208
-0.000880402
0.019045
-0.000844214
0.0197848
-0.000809395
0.0205242
-0.000776116
0.0212572
-0.000744584
0.0219946
-0.000714603
0.0227545
-0.000686072
0.0235609
-0.000658609
0.0244371
-0.000632147
0.0253954
-0.000606204
0.0264443
-0.000581033
0.0275889
-0.000556288
0.0288286
-0.000532185
0.0301639
-0.00050864
0.0315625
-0.000485722
0.0329744
-0.000463824
0.0343163
-0.000443224
0.0355047
-0.000424225
0.0364699
-0.000407111
0.0371821
-0.000391775
0.0376423
-0.000378359
0.0378841
-0.000366518
0.0379653
-0.00035607
0.0379426
-0.000346569
0.0378962
-0.000337567
0.0378808
-0.000328432
0.0380228
-0.00031859
0.038418
-0.000307676
0.0391947
-0.000295677
0.0404488
-0.000282877
0.0422216
-0.000269687
0.0445398
-0.000256523
0.0473429
-0.000243668
0.050592
-0.000231354
0.054195
-0.000219658
0.0581337
-0.000208785
0.0620397
-0.000198536
0.0667045
-0.000189177
0.0703999
-0.0010392
0.0157177
-0.000997224
0.0163266
-0.000956912
0.0169603
-0.00091817
0.017624
-0.000880896
0.0183213
-0.000844909
0.0190457
-0.000810138
0.0197855
-0.000776694
0.0205248
-0.000744841
0.0212574
-0.000714529
0.0219946
-0.000685803
0.0227543
-0.000658363
0.0235606
-0.00063213
0.0244371
-0.000606549
0.0253957
-0.000581796
0.0264451
-0.000557481
0.0275901
-0.00053381
0.0288303
-0.000510655
0.0301659
-0.000487983
0.0315648
-0.000466057
0.0329767
-0.000445068
0.0343182
-0.000425328
0.0355058
-0.000407218
0.03647
-0.000390767
0.0371811
-0.000376243
0.0376402
-0.000363398
0.037881
-0.000352139
0.0379614
-0.000342133
0.0379382
-0.000333064
0.0378917
-0.00032441
0.0378768
-0.00031558
0.0380197
-0.000306023
0.0384163
-0.000295419
0.0391944
-0.000283778
0.0404497
-0.000271381
0.0422232
-0.000258657
0.0445419
-0.000245981
0.0473452
-0.000233634
0.0505943
-0.000221817
0.0541972
-0.000210615
0.0581355
-0.0002002
0.0620414
-0.000190403
0.0667058
-0.000181464
0.0704001
-0.00103935
0.0151279
-0.000997361
0.0157179
-0.000957029
0.0163267
-0.000918315
0.0169605
-0.00088117
0.0176243
-0.000845396
0.0183217
-0.000810815
0.0190464
-0.000777411
0.0197862
-0.000745391
0.0205253
-0.000714765
0.0212577
-0.000685721
0.0219945
-0.0006581
0.022754
-0.000631899
0.0235604
-0.000606548
0.0244371
-0.000582149
0.0253961
-0.000558236
0.0264458
-0.000534978
0.0275912
-0.000512231
0.0288318
-0.000489924
0.0301678
-0.000468221
0.031567
-0.000447187
0.0329788
-0.000427053
0.0343199
-0.000408215
0.0355068
-0.000390796
0.03647
-0.000375195
0.03718
-0.000361284
0.0376381
-0.000349066
0.0378779
-0.000338295
0.0379575
-0.000328766
0.0379339
-0.000320087
0.0378874
-0.000311766
0.037873
-0.000303223
0.0380169
-0.000293945
0.0384149
-0.000283642
0.0391943
-0.000272338
0.0404507
-0.000260348
0.0422249
-0.000248068
0.044544
-0.000235872
0.0473475
-0.000224006
0.0505965
-0.000212677
0.0541993
-0.000201936
0.0581373
-0.000191978
0.0620429
-0.000182599
0.0667069
-0.000174064
0.0704003
-0.00103948
0.0145533
-0.000997509
0.0151281
-0.000957165
0.015718
-0.000918431
0.0163268
-0.000881315
0.0169606
-0.000845668
0.0176246
-0.000811294
0.0183222
-0.000778071
0.019047
-0.000746083
0.0197869
-0.000715288
0.0205258
-0.000685938
0.0212579
-0.000658011
0.0219944
-0.000631643
0.0227538
-0.000606333
0.0235602
-0.000582163
0.0244371
-0.000558596
0.0253964
-0.000535725
0.0264466
-0.000513373
0.0275924
-0.000491453
0.0288334
-0.000470091
0.0301697
-0.000449256
0.031569
-0.000429061
0.0329808
-0.000409826
0.0343215
-0.000391691
0.0355077
-0.000375149
0.03647
-0.000360199
0.0371789
-0.000346957
0.037636
-0.00033527
0.0378749
-0.00032502
0.0379538
-0.000315926
0.0379298
-0.00030762
0.0378832
-0.000299611
0.0378694
-0.000291347
0.0380143
-0.000282337
0.0384136
-0.000272315
0.0391943
-0.000261353
0.0404517
-0.000249752
0.0422266
-0.000237911
0.0445461
-0.00022617
0.0473496
-0.000214779
0.0505986
-0.000203904
0.0542012
-0.000193624
0.0581389
-0.00018409
0.0620444
-0.000175113
0.0667079
-0.000166975
0.0704005
-0.00103958
0.0139955
-0.000997641
0.0145535
-0.000957314
0.0151282
-0.000918568
0.0157181
-0.000881432
0.016327
-0.000845814
0.0169608
-0.000811565
0.0176248
-0.000778542
0.0183227
-0.000746725
0.0190477
-0.000715954
0.0197876
-0.000686434
0.0205263
-0.000658208
0.0212581
-0.000631548
0.0219943
-0.000606084
0.0227535
-0.000581962
0.02356
-0.000558625
0.0244372
-0.000536091
0.0253968
-0.000514113
0.0264473
-0.000492569
0.0275935
-0.000471573
0.0288348
-0.000451057
0.0301715
-0.000431039
0.031571
-0.000411727
0.0329827
-0.000393192
0.034323
-0.000375948
0.0355085
-0.000360085
0.0364699
-0.00034584
0.0371778
-0.00033317
0.0376339
-0.000322046
0.0378719
-0.000312273
0.0379501
-0.000303593
0.0379257
-0.000295637
0.0378792
-0.000287931
0.0378659
-0.000279932
0.0380119
-0.00027117
0.0384124