/*--------------------------------*- C++ -*----------------------------------*\
  =========                 |
  \\      /  F ield         | OpenFOAM: The Open Source CFD Toolbox
   \\    /   O peration     | Website:  https://openfoam.org
    \\  /    A nd           | Version:  7
     \\/     M anipulation  |
\*---------------------------------------------------------------------------*/
FoamFile
{
    version     2.0;
    format      ascii;
    class       volVectorField;
    location    "800";
    object      U;
}
// * * * * * * * * * * * * * * * * * * * * * * * * * * * * * * * * * * * * * //

dimensions      [0 1 -1 0 0 0 0];

internalField   nonuniform List<vector> 
23023
(
(50.1199 13.6014 0)
(51.0179 13.2652 0)
(50.0954 13.6045 0)
(51.4547 12.7447 0)
(50.9885 13.2695 0)
(50.0706 13.6073 0)
(51.8755 12.3234 0)
(51.4312 12.7476 0)
(50.9583 13.2736 0)
(50.0454 13.6101 0)
(51.8577 12.3259 0)
(51.4067 12.7504 0)
(50.9273 13.2775 0)
(50.02 13.6127 0)
(52.1866 11.8627 0)
(51.8387 12.3284 0)
(51.3812 12.7531 0)
(50.8955 13.2813 0)
(49.9943 13.6151 0)
(52.3927 11.44 0)
(52.1773 11.8646 0)
(51.8183 12.3309 0)
(51.3547 12.7558 0)
(50.8629 13.2849 0)
(49.9684 13.6175 0)
(52.4582 11.0606 0)
(52.3948 11.4409 0)
(52.1665 11.8664 0)
(51.7968 12.3333 0)
(51.3273 12.7583 0)
(50.8296 13.2884 0)
(49.9422 13.6197 0)
(52.3589 10.7587 0)
(52.4735 11.0605 0)
(52.3954 11.4419 0)
(52.1543 11.8682 0)
(51.774 12.3356 0)
(51.2988 12.7608 0)
(50.7956 13.2917 0)
(49.9159 13.6218 0)
(52.0918 10.5535 0)
(52.3874 10.7573 0)
(52.4874 11.0604 0)
(52.3945 11.443 0)
(52.1407 11.87 0)
(51.75 12.3379 0)
(51.2695 12.7632 0)
(50.761 13.2949 0)
(49.8893 13.6238 0)
(51.6679 10.4627 0)
(52.1321 10.5508 0)
(52.4149 10.7561 0)
(52.4998 11.0605 0)
(52.3922 11.444 0)
(52.1257 11.8718 0)
(51.7249 12.3401 0)
(51.2392 12.7655 0)
(50.7257 13.298 0)
(49.8626 13.6257 0)
(51.7166 10.4588 0)
(52.1717 10.5482 0)
(52.4411 10.755 0)
(52.5109 11.0606 0)
(52.3883 11.4451 0)
(52.1092 11.8735 0)
(51.6985 12.3422 0)
(51.2081 12.7678 0)
(50.6898 13.3009 0)
(49.8358 13.6275 0)
(51.1776 10.4873 0)
(51.7653 10.4551 0)
(52.2106 10.5459 0)
(52.4661 10.754 0)
(52.5204 11.0608 0)
(52.3829 11.4462 0)
(52.0914 11.8753 0)
(51.6711 12.3443 0)
(51.1762 12.77 0)
(50.6534 13.3037 0)
(49.8089 13.6292 0)
(50.5699 10.6295 0)
(51.2306 10.4827 0)
(51.8137 10.4516 0)
(52.2487 10.5437 0)
(52.4899 10.7531 0)
(52.5284 11.0611 0)
(52.3759 11.4474 0)
(52.0723 11.877 0)
(51.6425 12.3464 0)
(51.1434 12.7721 0)
(50.6164 13.3064 0)
(49.7819 13.6308 0)
(49.9556 10.866 0)
(50.6223 10.6245 0)
(51.284 10.4784 0)
(51.8619 10.4483 0)
(52.286 10.5417 0)
(52.5123 10.7524 0)
(52.5349 11.0614 0)
(52.3675 11.4485 0)
(52.0518 11.8787 0)
(51.6128 12.3484 0)
(51.1098 12.7741 0)
(50.5789 13.3089 0)
(49.7548 13.6324 0)
(49.3876 11.1714 0)
(50.0034 10.8611 0)
(50.6756 10.6196 0)
(51.3377 10.4742 0)
(51.9097 10.4452 0)
(52.3223 10.5398 0)
(52.5334 10.7517 0)
(52.5398 11.0618 0)
(52.3575 11.4497 0)
(52.0299 11.8804 0)
(51.5821 12.3503 0)
(51.0755 12.7761 0)
(50.541 13.3113 0)
(49.7277 13.6338 0)
(49.4281 11.1668 0)
(50.0523 10.8562 0)
(50.7297 10.615 0)
(51.3916 10.4702 0)
(51.9572 10.4423 0)
(52.3575 10.5381 0)
(52.553 10.7512 0)
(52.5431 11.0623 0)
(52.346 11.4509 0)
(52.0067 11.882 0)
(51.5503 12.3522 0)
(51.0405 12.778 0)
(50.5026 13.3137 0)
(49.7006 13.6352 0)
(48.9341 11.5156 0)
(49.4698 11.1623 0)
(50.1024 10.8515 0)
(50.7846 10.6105 0)
(51.4458 10.4664 0)
(52.0042 10.4395 0)
(52.3917 10.5366 0)
(52.5712 10.7508 0)
(52.5448 11.0628 0)
(52.3329 11.4521 0)
(51.9822 11.8836 0)
(51.5176 12.354 0)
(51.0048 12.7798 0)
(50.4638 13.3159 0)
(49.6735 13.6365 0)
(48.5431 11.8841 0)
(48.9672 11.5118 0)
(49.5128 11.158 0)
(50.1536 10.847 0)
(50.8402 10.6062 0)
(51.5001 10.4628 0)
(52.0506 10.4369 0)
(52.4248 10.5351 0)
(52.5878 10.7505 0)
(52.5449 11.0634 0)
(52.3183 11.4532 0)
(51.9565 11.8852 0)
(51.4838 12.3558 0)
(50.9685 12.7816 0)
(50.4246 13.318 0)
(49.6464 13.6377 0)
(48.5671 11.8811 0)
(49.0015 11.5081 0)
(49.557 11.1538 0)
(50.2058 10.8426 0)
(50.8964 10.6021 0)
(51.5544 10.4594 0)
(52.0964 10.4345 0)
(52.4566 10.5338 0)
(52.6029 10.7502 0)
(52.5433 11.064 0)
(52.3023 11.4544 0)
(51.9294 11.8868 0)
(51.4491 12.3575 0)
(50.9315 12.7833 0)
(50.3851 13.32 0)
(49.6193 13.6388 0)
(48.2815 12.2489 0)
(48.5923 11.8782 0)
(49.0371 11.5044 0)
(49.6025 11.1496 0)
(50.259 10.8383 0)
(50.9532 10.5981 0)
(51.6087 10.4561 0)
(52.1415 10.4322 0)
(52.4872 10.5327 0)
(52.6164 10.7501 0)
(52.5401 11.0646 0)
(52.2847 11.4556 0)
(51.9012 11.8883 0)
(51.4135 12.3592 0)
(50.894 12.7849 0)
(50.3453 13.3219 0)
(49.5923 13.6399 0)
(48.1164 12.5937 0)
(48.2977 12.247 0)
(48.6187 11.8753 0)
(49.074 11.5009 0)
(49.6492 11.1456 0)
(50.3133 10.8342 0)
(51.0106 10.5943 0)
(51.663 10.453 0)
(52.1859 10.4301 0)
(52.5165 10.5316 0)
(52.6283 10.75 0)
(52.5353 11.0653 0)
(52.2656 11.4568 0)
(51.8717 11.8898 0)
(51.377 12.3608 0)
(50.8558 12.7865 0)
(50.3051 13.3237 0)
(49.5654 13.6409 0)
(48.0727 12.8925 0)
(48.1241 12.5928 0)
(48.3151 12.245 0)
(48.6464 11.8725 0)
(49.1122 11.4974 0)
(49.6971 11.1417 0)
(50.3685 10.8302 0)
(51.0685 10.5906 0)
(51.717 10.45 0)
(52.2293 10.4281 0)
(52.5443 10.5307 0)
(52.6386 10.75 0)
(52.5288 11.066 0)
(52.2451 11.458 0)
(51.8411 11.8913 0)
(51.3397 12.3623 0)
(50.8172 12.788 0)
(50.2648 13.3254 0)
(49.5385 13.6419 0)
(48.1443 13.1228 0)
(48.0727 12.8927 0)
(48.1328 12.5919 0)
(48.3335 12.2431 0)
(48.6752 11.8697 0)
(49.1516 11.4939 0)
(49.7462 11.1379 0)
(50.4247 10.8264 0)
(51.1268 10.5871 0)
(51.7708 10.4472 0)
(52.2719 10.4263 0)
(52.5708 10.5299 0)
(52.6471 10.75 0)
(52.5206 11.0667 0)
(52.2231 11.4592 0)
(51.8093 11.8927 0)
(51.3015 12.3638 0)
(50.7781 12.7895 0)
(50.2242 13.3271 0)
(49.5118 13.6428 0)
(48.1378 13.124 0)
(48.0736 12.8928 0)
(48.1425 12.5909 0)
(48.3531 12.2411 0)
(48.7053 11.867 0)
(49.1923 11.4906 0)
(49.7965 11.1343 0)
(50.4817 10.8227 0)
(51.1855 10.5838 0)
(51.8243 10.4446 0)
(52.3134 10.4246 0)
(52.5957 10.5291 0)
(52.6539 10.7501 0)
(52.5108 11.0675 0)
(52.1997 11.4603 0)
(51.7764 11.8941 0)
(51.2626 12.3653 0)
(50.7385 12.7909 0)
(50.1834 13.3286 0)
(49.4853 13.6436 0)
(48.303 13.2687 0)
(48.132 13.1251 0)
(48.0753 12.8928 0)
(48.1532 12.5898 0)
(48.3738 12.2392 0)
(48.7367 11.8643 0)
(49.2343 11.4873 0)
(49.848 11.1307 0)
(50.5396 10.8191 0)
(51.2445 10.5806 0)
(51.8775 10.4421 0)
(52.3539 10.423 0)
(52.619 10.5285 0)
(52.659 10.7503 0)
(52.4993 11.0683 0)
(52.1748 11.4615 0)
(51.7424 11.8954 0)
(51.2229 12.3667 0)
(50.6985 12.7922 0)
(50.1425 13.3301 0)
(49.4589 13.6444 0)
(48.5401 13.3187 0)
(48.292 13.2707 0)
(48.1268 13.1261 0)
(48.0778 12.8928 0)
(48.1649 12.5888 0)
(48.3957 12.2372 0)
(48.7693 11.8616 0)
(49.2775 11.4842 0)
(49.9006 11.1272 0)
(50.5983 10.8157 0)
(51.3038 10.5775 0)
(51.9301 10.4397 0)
(52.3932 10.4215 0)
(52.6408 10.528 0)
(52.6624 10.7505 0)
(52.4862 11.069 0)
(52.1486 11.4626 0)
(51.7073 11.8967 0)
(51.1825 12.368 0)
(50.6581 12.7935 0)
(50.1014 13.3315 0)
(49.4326 13.6451 0)
(48.5258 13.3212 0)
(48.2815 13.2725 0)
(48.1223 13.127 0)
(48.0813 12.8927 0)
(48.1777 12.5877 0)
(48.4187 12.2353 0)
(48.8031 11.859 0)
(49.322 11.4811 0)
(49.9544 11.1238 0)
(50.6578 10.8123 0)
(51.3632 10.5746 0)
(51.9821 10.4375 0)
(52.4312 10.4202 0)
(52.6609 10.5275 0)
(52.664 10.7508 0)
(52.4714 11.0698 0)
(52.121 11.4637 0)
(51.6712 11.898 0)
(51.1414 12.3693 0)
(50.6173 12.7947 0)
(50.0602 13.3329 0)
(49.4066 13.6458 0)
(48.7965 13.2817 0)
(48.5118 13.3237 0)
(48.2714 13.2743 0)
(48.1185 13.1278 0)
(48.0856 12.8925 0)
(48.1915 12.5866 0)
(48.443 12.2334 0)
(48.8382 11.8565 0)
(49.3678 11.478 0)
(50.0092 11.1206 0)
(50.718 10.8092 0)
(51.4227 10.5718 0)
(52.0336 10.4354 0)
(52.468 10.419 0)
(52.6794 10.5271 0)
(52.6638 10.7511 0)
(52.455 11.0707 0)
(52.0921 11.4648 0)
(51.6341 11.8993 0)
(51.0996 12.3706 0)
(50.5762 12.7959 0)
(50.0189 13.3341 0)
(49.3807 13.6464 0)
(49.0655 13.1706 0)
(48.781 13.2844 0)
(48.498 13.3259 0)
(48.2618 13.2759 0)
(48.1153 13.1285 0)
(48.0908 12.8923 0)
(48.2063 12.5855 0)
(48.4684 12.2315 0)
(48.8746 11.8539 0)
(49.4148 11.4751 0)
(50.0651 11.1174 0)
(50.7789 10.8061 0)
(51.4822 10.5691 0)
(52.0843 10.4335 0)
(52.5034 10.4179 0)
(52.696 10.5268 0)
(52.6618 10.7515 0)
(52.437 11.0715 0)
(52.0619 11.4659 0)
(51.5961 11.9005 0)
(51.0573 12.3718 0)
(50.5348 12.7971 0)
(49.9776 13.3353 0)
(49.3551 13.647 0)
(49.0502 13.1731 0)
(48.7655 13.287 0)
(48.4846 13.3281 0)
(48.2528 13.2774 0)
(48.113 13.1292 0)
(48.0969 12.892 0)
(48.2223 12.5844 0)
(48.4949 12.2297 0)
(48.9122 11.8515 0)
(49.4631 11.4722 0)
(50.1221 11.1143 0)
(50.8403 10.8031 0)
(51.5416 10.5666 0)
(52.1341 10.4316 0)
(52.5374 10.4169 0)
(52.711 10.5266 0)
(52.658 10.7519 0)
(52.4174 11.0723 0)
(52.0304 11.4669 0)
(51.5571 11.9017 0)
(51.0144 12.3729 0)
(50.4931 12.7982 0)
(49.9363 13.3365 0)
(49.3297 13.6476 0)
(49.2875 13.017 0)
(49.0348 13.1756 0)
(48.7502 13.2894 0)
(48.4714 13.3302 0)
(48.2442 13.2788 0)
(48.1113 13.1298 0)
(48.1039 12.8917 0)
(48.2393 12.5832 0)
(48.5227 12.2278 0)
(48.9511 11.8491 0)
(49.5125 11.4694 0)
(50.18 11.1114 0)
(50.9024 10.8003 0)
(51.601 10.5642 0)
(52.1831 10.4299 0)
(52.5699 10.4159 0)
(52.7241 10.5264 0)
(52.6524 10.7523 0)
(52.3962 11.0731 0)
(51.9976 11.468 0)
(51.5173 11.9028 0)
(50.9709 12.374 0)
(50.4512 12.7992 0)
(49.895 13.3375 0)
(49.3046 13.6481 0)
(49.4748 12.8442 0)
(49.2734 13.0192 0)
(49.0194 13.178 0)
(48.735 13.2917 0)
(48.4586 13.3321 0)
(48.2362 13.2801 0)
(48.1104 13.1303 0)
(48.1119 12.8913 0)
(48.2574 12.5821 0)
(48.5517 12.226 0)
(48.9913 11.8467 0)
(49.5632 11.4666 0)
(50.239 11.1085 0)
(50.9649 10.7975 0)
(51.6601 10.5619 0)
(52.2312 10.4283 0)
(52.6008 10.4151 0)
(52.7354 10.5263 0)
(52.645 10.7527 0)
(52.3734 11.0739 0)
(51.9636 11.469 0)
(51.4765 11.9039 0)
(50.9269 12.3751 0)
(50.4091 12.8002 0)
(49.8537 13.3385 0)
(49.2797 13.6486 0)
(49.4628 12.8458 0)
(49.2593 13.0212 0)
(49.004 13.1803 0)
(48.7199 13.2939 0)
(48.4461 13.334 0)
(48.2288 13.2813 0)
(48.1103 13.1307 0)
(48.1208 12.891 0)
(48.2765 12.581 0)
(48.5819 12.2242 0)
(49.0327 11.8444 0)
(49.6151 11.464 0)
(50.2988 11.1057 0)
(51.0278 10.7949 0)
(51.7189 10.5597 0)
(52.2782 10.4268 0)
(52.6301 10.4144 0)
(52.7448 10.5263 0)
(52.6358 10.7532 0)
(52.3491 11.0747 0)
(51.9284 11.47 0)
(51.435 11.905 0)
(50.8825 12.3761 0)
(50.3668 12.8012 0)
(49.8125 13.3395 0)
(49.2551 13.649 0)
(49.599 12.6773 0)
(49.4506 12.8474 0)
(49.245 13.0232 0)
(48.9885 13.1824 0)
(48.705 13.2961 0)
(48.434 13.3357 0)
(48.222 13.2824 0)
(48.111 13.1311 0)
(48.1307 12.8905 0)
(48.2969 12.5798 0)
(48.6133 12.2224 0)
(49.0754 11.8421 0)
(49.6682 11.4614 0)
(50.3596 11.103 0)
(51.0911 10.7924 0)
(51.7773 10.5577 0)
(52.324 10.4255 0)
(52.6578 10.4137 0)
(52.7523 10.5263 0)
(52.6248 10.7537 0)
(52.3233 11.0755 0)
(51.8921 11.471 0)
(51.3927 11.906 0)
(50.8376 12.3771 0)
(50.3244 12.8021 0)
(49.7714 13.3404 0)
(49.2308 13.6495 0)
(49.6875 12.5258 0)
(49.589 12.6784 0)
(49.4383 12.849 0)
(49.2306 13.0251 0)
(48.9731 13.1846 0)
(48.6903 13.2981 0)
(48.4223 13.3374 0)
(48.2158 13.2835 0)
(48.1125 13.1314 0)
(48.1416 12.8901 0)
(48.3183 12.5786 0)
(48.646 12.2206 0)
(49.1193 11.8399 0)
(49.7225 11.4589 0)
(50.4212 11.1004 0)
(51.1546 10.79 0)
(51.8353 10.5558 0)
(52.3686 10.4242 0)
(52.6837 10.4132 0)
(52.758 10.5263 0)
(52.6121 10.7542 0)
(52.296 11.0763 0)
(51.8546 11.4719 0)
(51.3496 11.907 0)
(50.7923 12.378 0)
(50.2819 12.803 0)
(49.7303 13.3413 0)
(49.2068 13.6498 0)
(49.6796 12.5266 0)
(49.5788 12.6796 0)
(49.4257 12.8505 0)
(49.2161 13.027 0)
(48.9577 13.1866 0)
(48.6757 13.3 0)
(48.411 13.339 0)
(48.2102 13.2844 0)
(48.1148 13.1316 0)
(48.1535 12.8896 0)
(48.3408 12.5775 0)
(48.6798 12.2189 0)
(49.1645 11.8377 0)
(49.7778 11.4564 0)
(50.4837 11.0979 0)
(51.2184 10.7877 0)
(51.8927 10.5539 0)
(52.412 10.423 0)
(52.7078 10.4127 0)
(52.7617 10.5264 0)
(52.5975 10.7547 0)
(52.2673 11.0771 0)
(51.8161 11.4728 0)
(51.3058 11.908 0)
(50.7467 12.3789 0)
(50.2392 12.8038 0)
(49.6894 13.3421 0)
(49.1831 13.6502 0)
(49.7304 12.3966 0)
(49.6716 12.5273 0)
(49.5685 12.6806 0)
(49.4131 12.852 0)
(49.2015 13.0288 0)
(48.9423 13.1885 0)
(48.6614 13.3019 0)
(48.4001 13.3404 0)
(48.2053 13.2853 0)
(48.118 13.1318 0)
(48.1664 12.8891 0)
(48.3646 12.5763 0)
(48.7149 12.2172 0)
(49.211 11.8356 0)
(49.8344 11.454 0)
(50.5469 11.0955 0)
(51.2824 10.7855 0)
(51.9495 10.5522 0)
(52.454 10.4219 0)
(52.7301 10.4122 0)
(52.7634 10.5265 0)
(52.5812 10.7553 0)
(52.2371 11.0779 0)
(51.7765 11.4738 0)
(51.2614 11.9089 0)
(50.7007 12.3798 0)
(50.1965 12.8046 0)
(49.6487 13.3428 0)
(49.1598 13.6505 0)
(49.7486 12.29 0)
(49.7242 12.3969 0)
(49.6634 12.5279 0)
(49.558 12.6817 0)
(49.4002 12.8534 0)
(49.1868 13.0305 0)
(48.927 13.1904 0)
(48.6473 13.3036 0)
(48.3897 13.3418 0)
(48.2011 13.2862 0)
(48.1221 13.1319 0)
(48.1804 12.8885 0)
(48.3894 12.5751 0)
(48.7513 12.2155 0)
(49.2587 11.8335 0)
(49.892 11.4517 0)
(50.6108 11.0932 0)
(51.3464 10.7834 0)
(52.0056 10.5506 0)
(52.4945 10.4209 0)
(52.7506 10.4119 0)
(52.7633 10.5267 0)
(52.5632 10.7558 0)
(52.2055 11.0787 0)
(51.7359 11.4746 0)
(51.2163 11.9098 0)
(50.6544 12.3806 0)
(50.1538 12.8054 0)
(49.6082 13.3435 0)
(49.1368 13.6508 0)
(49.7421 12.2077 0)
(49.7439 12.2901 0)
(49.718 12.3973 0)
(49.6551 12.5286 0)
(49.5473 12.6827 0)
(49.3873 12.8548 0)
(49.1721 13.0322 0)
(48.9117 13.1922 0)
(48.6335 13.3053 0)
(48.3798 13.3431 0)
(48.1975 13.2869 0)
(48.127 13.132 0)
(48.1953 12.8879 0)
(48.4154 12.5739 0)
(48.7889 12.2138 0)
(49.3076 11.8314 0)
(49.9506 11.4495 0)
(50.6754 11.0909 0)
(51.4104 10.7814 0)
(52.0608 10.549 0)
(52.5336 10.42 0)
(52.7691 10.4116 0)
(52.7611 10.5269 0)
(52.5434 10.7564 0)
(52.1725 11.0795 0)
(51.6944 11.4755 0)
(51.1706 11.9107 0)
(50.6079 12.3814 0)
(50.1111 12.8061 0)
(49.5678 13.3442 0)
(49.1141 13.6511 0)
(49.7217 12.1485 0)
(49.7384 12.2075 0)
(49.7392 12.2901 0)
(49.7116 12.3976 0)
(49.6466 12.5293 0)
(49.5365 12.6838 0)
(49.3742 12.8562 0)
(49.1574 13.0338 0)
(48.8966 13.1939 0)
(48.62 13.3069 0)
(48.3703 13.3444 0)
(48.1946 13.2876 0)
(48.1328 13.1321 0)
(48.2113 12.8874 0)
(48.4426 12.5728 0)
(48.8277 12.2122 0)
(49.3578 11.8294 0)
(50.0104 11.4473 0)
(50.7406 11.0888 0)
(51.4743 10.7795 0)
(52.1152 10.5476 0)
(52.571 10.4191 0)
(52.7857 10.4113 0)
(52.7571 10.5272 0)
(52.5219 10.7569 0)
(52.1382 11.0802 0)
(51.6519 11.4763 0)
(51.1244 11.9115 0)
(50.5611 12.3822 0)
(50.0684 12.8068 0)
(49.5277 13.3448 0)
(49.0918 13.6514 0)
(49.701 12.1081 0)
(49.7182 12.1483 0)
(49.7346 12.2073 0)
(49.7344 12.2902 0)
(49.7051 12.398 0)
(49.6379 12.53 0)
(49.5255 12.6848 0)
(49.361 12.8575 0)
(49.1426 13.0354 0)
(48.8815 13.1956 0)
(48.6067 13.3084 0)
(48.3614 13.3455 0)
(48.1925 13.2882 0)
(48.1395 13.1321 0)
(48.2284 12.8867 0)
(48.471 12.5716 0)
(48.8678 12.2106 0)
(49.4091 11.8275 0)
(50.0711 11.4452 0)
(50.8063 11.0867 0)
(51.5381 10.7777 0)
(52.1686 10.5463 0)
(52.6068 10.4184 0)
(52.8003 10.4111 0)
(52.751 10.5274 0)
(52.4987 10.7575 0)
(52.1026 11.081 0)
(51.6085 11.4771 0)
(51.0776 11.9123 0)
(50.5141 12.3829 0)
(50.0257 12.8074 0)
(49.4878 13.3454 0)
(49.0699 13.6516 0)
(49.693 12.0773 0)
(49.6972 12.1079 0)
(49.7147 12.1481 0)
(49.7308 12.2072 0)
(49.7295 12.2903 0)
(49.6985 12.3983 0)
(49.6291 12.5306 0)
(49.5143 12.6857 0)
(49.3477 12.8587 0)
(49.1278 13.0369 0)
(48.8666 13.1971 0)
(48.5938 13.3098 0)
(48.353 13.3466 0)
(48.1911 13.2887 0)
(48.1471 13.132 0)
(48.2466 12.8861 0)
(48.5006 12.5705 0)
(48.9091 12.209 0)
(49.4617 11.8256 0)
(50.1328 11.4431 0)
(50.8725 11.0847 0)
(51.6015 10.776 0)
(52.2209 10.545 0)
(52.6409 10.4177 0)
(52.8128 10.411 0)
(52.743 10.5277 0)
(52.4739 10.7581 0)
(52.0658 11.0817 0)
(51.5642 11.4779 0)
(51.0303 11.9131 0)
(50.4669 12.3836 0)
(49.9832 12.8081 0)
(49.4482 13.346 0)
(49.0484 13.6518 0)
(49.6885 12.0773 0)
(49.6933 12.1077 0)
(49.7112 12.1478 0)
(49.7269 12.2071 0)
(49.7246 12.2904 0)
(49.6917 12.3987 0)
(49.6202 12.5313 0)
(49.5031 12.6867 0)
(49.3342 12.86 0)
(49.113 13.0383 0)
(48.8518 13.1986 0)
(48.5813 13.3112 0)
(48.3452 13.3476 0)
(48.1904 13.2893 0)
(48.1557 13.132 0)
(48.2658 12.8855 0)
(48.5313 12.5693 0)
(48.9517 12.2074 0)
(49.5155 11.8238 0)
(50.1955 11.4412 0)
(50.9392 11.0828 0)
(51.6647 10.7743 0)
(52.272 10.5438 0)
(52.6732 10.4171 0)
(52.8234 10.4109 0)
(52.7331 10.528 0)
(52.4474 10.7586 0)
(52.0277 11.0824 0)
(51.5192 11.4786 0)
(50.9826 11.9138 0)
(50.4196 12.3843 0)
(49.9407 12.8087 0)
(49.4089 13.3465 0)
(49.0272 13.652 0)
(49.7004 12.0449 0)
(49.684 12.0773 0)
(49.6895 12.1075 0)
(49.7077 12.1476 0)
(49.7231 12.2069 0)
(49.7195 12.2905 0)
(49.6848 12.399 0)
(49.6111 12.5319 0)
(49.4916 12.6876 0)
(49.3208 12.8612 0)
(49.0982 13.0397 0)
(48.8373 13.2001 0)
(48.569 13.3125 0)
(48.3379 13.3485 0)
(48.1906 13.2897 0)
(48.1653 13.1319 0)
(48.2861 12.8848 0)
(48.5633 12.5682 0)
(48.9955 12.2059 0)
(49.5705 11.822 0)
(50.259 11.4392 0)
(51.0062 11.0809 0)
(51.7274 10.7728 0)
(52.3219 10.5428 0)
(52.7036 10.4165 0)
(52.8319 10.4108 0)
(52.7212 10.5283 0)
(52.4194 10.7592 0)
(51.9884 11.0831 0)
(51.4733 11.4794 0)
(50.9345 11.9145 0)
(50.3722 12.3849 0)
(49.8983 12.8092 0)
(49.3699 13.347 0)
(49.0065 13.6522 0)
(49.7323 12.0003 0)
(49.6953 12.0452 0)
(49.6796 12.0773 0)
(49.6858 12.1074 0)
(49.7043 12.1474 0)
(49.7192 12.2069 0)
(49.7144 12.2906 0)
(49.6778 12.3994 0)
(49.6018 12.5326 0)
(49.4801 12.6885 0)
(49.3072 12.8623 0)
(49.0834 13.041 0)
(48.8228 13.2014 0)
(48.5572 13.3137 0)
(48.3312 13.3494 0)
(48.1915 13.2901 0)
(48.1758 13.1317 0)
(48.3075 12.8842 0)
(48.5964 12.5671 0)
(49.0406 12.2044 0)
(49.6266 11.8202 0)
(50.3234 11.4374 0)
(51.0734 11.0792 0)
(51.7896 10.7713 0)
(52.3705 10.5418 0)
(52.7322 10.416 0)
(52.8383 10.4108 0)
(52.7075 10.5287 0)
(52.3898 10.7598 0)
(51.948 11.0838 0)
(51.4267 11.4801 0)
(50.8859 11.9152 0)
(50.3247 12.3855 0)
(49.8561 12.8098 0)
(49.3312 13.3475 0)
(48.9861 13.6523 0)
(49.727 12.0008 0)
(49.6902 12.0454 0)
(49.6752 12.0773 0)
(49.682 12.1072 0)
(49.7008 12.1472 0)
(49.7152 12.2068 0)
(49.7091 12.2907 0)
(49.6707 12.3998 0)
(49.5924 12.5332 0)
(49.4684 12.6894 0)
(49.2936 12.8634 0)
(49.0687 13.0423 0)
(48.8086 13.2028 0)
(48.5458 13.3148 0)
(48.3252 13.3502 0)
(48.1932 13.2904 0)
(48.1872 13.1315 0)
(48.3301 12.8835 0)
(48.6308 12.5659 0)
(49.0869 12.2029 0)
(49.6839 11.8185 0)
(50.3887 11.4356 0)
(51.1409 11.0775 0)
(51.8513 10.7699 0)
(52.4177 10.5408 0)
(52.7588 10.4156 0)
(52.8426 10.4108 0)
(52.6918 10.529 0)
(52.3586 10.7603 0)
(51.9065 11.0844 0)
(51.3794 11.4807 0)
(50.837 11.9159 0)
(50.2772 12.3861 0)
(49.8141 12.8103 0)
(49.2929 13.3479 0)
(48.9662 13.6525 0)
(49.7707 11.9391 0)
(49.7217 12.0013 0)
(49.6852 12.0456 0)
(49.6708 12.0773 0)
(49.6784 12.107 0)
(49.6974 12.147 0)
(49.7113 12.2067 0)
(49.7038 12.2908 0)
(49.6634 12.4001 0)
(49.5829 12.5338 0)
(49.4566 12.6903 0)
(49.2799 12.8645 0)
(49.0541 13.0435 0)
(48.7946 13.204 0)
(48.5348 13.3159 0)
(48.3197 13.351 0)
(48.1958 13.2907 0)
(48.1997 13.1313 0)
(48.3537 12.8828 0)
(48.6664 12.5648 0)
(49.1345 12.2015 0)
(49.7423 11.8168 0)
(50.4546 11.4338 0)
(51.2085 11.0759 0)
(51.9122 10.7686 0)
(52.4634 10.54 0)
(52.7835 10.4152 0)
(52.8448 10.4109 0)
(52.6742 10.5294 0)
(52.326 10.7609 0)
(51.8639 11.0851 0)
(51.3314 11.4814 0)
(50.7879 11.9165 0)
(50.2297 12.3866 0)
(49.7723 12.8108 0)
(49.2549 13.3483 0)
(48.9467 13.6526 0)
(49.8137 11.862 0)
(49.7656 11.9396 0)
(49.7163 12.0017 0)
(49.6801 12.0459 0)
(49.6664 12.0773 0)
(49.6747 12.1069 0)
(49.694 12.1468 0)
(49.7073 12.2066 0)
(49.6984 12.2909 0)
(49.6561 12.4005 0)
(49.5733 12.5344 0)
(49.4448 12.6911 0)
(49.2662 12.8656 0)
(49.0395 13.0447 0)
(48.7809 13.2052 0)
(48.5242 13.317 0)
(48.3149 13.3517 0)
(48.1992 13.291 0)
(48.2132 13.1311 0)
(48.3786 12.8821 0)
(48.7032 12.5637 0)
(49.1833 12.2 0)
(49.8017 11.8152 0)
(50.5214 11.4322 0)
(51.2762 11.0743 0)
(51.9723 10.7674 0)
(52.5075 10.5392 0)
(52.8061 10.4149 0)
(52.8449 10.411 0)
(52.6547 10.5298 0)
(52.2918 10.7614 0)
(51.8203 11.0857 0)
(51.2828 11.482 0)
(50.7384 11.9171 0)
(50.1821 12.3871 0)
(49.7307 12.8112 0)
(49.2173 13.3487 0)
(48.9276 13.6527 0)
(49.8459 11.7771 0)
(49.8093 11.8625 0)
(49.7605 11.9402 0)
(49.7109 12.0021 0)
(49.675 12.0461 0)
(49.6621 12.0773 0)
(49.6711 12.1067 0)
(49.6905 12.1466 0)
(49.7032 12.2066 0)
(49.693 12.2911 0)
(49.6486 12.4009 0)
(49.5635 12.535 0)
(49.4328 12.6919 0)
(49.2525 12.8666 0)
(49.025 13.0459 0)
(48.7674 13.2063 0)
(48.5141 13.3179 0)
(48.3108 13.3523 0)
(48.2035 13.2912 0)
(48.2277 13.1309 0)
(48.4045 12.8814 0)
(48.7413 12.5626 0)
(49.2333 12.1987 0)
(49.8623 11.8136 0)
(50.5887 11.4306 0)
(51.3438 11.0728 0)
(52.0316 10.7662 0)
(52.55 10.5384 0)
(52.8266 10.4146 0)
(52.8429 10.4111 0)
(52.6334 10.5302 0)
(52.2563 10.762 0)
(51.7756 11.0863 0)
(51.2337 11.4826 0)
(50.6887 11.9177 0)
(50.1346 12.3876 0)
(49.6893 12.8117 0)
(49.1801 13.349 0)
(48.9089 13.6528 0)
(49.8643 11.6927 0)
(49.8423 11.7775 0)
(49.8048 11.863 0)
(49.7552 11.9407 0)
(49.7055 12.0025 0)
(49.67 12.0463 0)
(49.6578 12.0773 0)
(49.6676 12.1066 0)
(49.6872 12.1465 0)
(49.6992 12.2065 0)
(49.6874 12.2912 0)
(49.641 12.4012 0)
(49.5536 12.5356 0)
(49.4208 12.6927 0)
(49.2387 12.8676 0)
(49.0106 13.047 0)
(48.7542 13.2074 0)
(48.5044 13.3189 0)
(48.3074 13.3529 0)
(48.2086 13.2914 0)
(48.2432 13.1306 0)
(48.4316 12.8807 0)
(48.7806 12.5616 0)
(49.2846 12.1973 0)
(49.9239 11.8121 0)
(50.6567 11.429 0)
(51.4113 11.0714 0)
(52.0899 10.7651 0)
(52.5908 10.5378 0)
(52.845 10.4144 0)
(52.8387 10.4112 0)
(52.6103 10.5306 0)
(52.2193 10.7625 0)
(51.7301 11.0869 0)
(51.1839 11.4832 0)
(50.6387 11.9182 0)
(50.0872 12.3881 0)
(49.6482 12.8121 0)
(49.1433 13.3493 0)
(48.8907 13.6529 0)
(49.8727 11.6134 0)
(49.8612 11.6929 0)
(49.8385 11.7778 0)
(49.8001 11.8634 0)
(49.7499 11.9411 0)
(49.7 12.0029 0)
(49.6649 12.0465 0)
(49.6536 12.0773 0)
(49.6641 12.1064 0)
(49.6838 12.1463 0)
(49.6951 12.2065 0)
(49.6817 12.2914 0)
(49.6332 12.4016 0)
(49.5436 12.5361 0)
(49.4086 12.6935 0)
(49.225 12.8685 0)
(48.9964 13.048 0)
(48.7413 13.2085 0)
(48.4953 13.3197 0)
(48.3046 13.3535 0)
(48.2146 13.2915 0)
(48.2598 13.1303 0)
(48.4599 12.88 0)
(48.8211 12.5605 0)
(49.337 12.196 0)
(49.9865 11.8106 0)
(50.7252 11.4275 0)
(51.4787 11.0701 0)
(52.1471 10.7641 0)
(52.6298 10.5372 0)
(52.8612 10.4142 0)
(52.8325 10.4114 0)
(52.5854 10.531 0)
(52.181 10.763 0)
(51.6836 11.0875 0)
(51.1337 11.4838 0)
(50.5886 11.9188 0)
(50.0399 12.3885 0)
(49.6074 12.8125 0)
(49.107 13.3496 0)
(48.873 13.653 0)
(49.8778 11.5382 0)
(49.8702 11.6135 0)
(49.8581 11.6931 0)
(49.8346 11.7781 0)
(49.7954 11.8639 0)
(49.7445 11.9416 0)
(49.6944 12.0033 0)
(49.6599 12.0466 0)
(49.6495 12.0772 0)
(49.6606 12.1062 0)
(49.6804 12.1462 0)
(49.6909 12.2064 0)
(49.676 12.2915 0)
(49.6254 12.4019 0)
(49.5336 12.5367 0)
(49.3964 12.6942 0)
(49.2113 12.8694 0)
(48.9823 13.049 0)
(48.7287 13.2094 0)
(48.4867 13.3205 0)
(48.3026 13.354 0)
(48.2215 13.2916 0)
(48.2774 13.13 0)
(48.4893 12.8793 0)
(48.8628 12.5595 0)
(49.3907 12.1947 0)
(50.0501 11.8092 0)
(50.7942 11.4261 0)
(51.5457 11.0688 0)
(52.2032 10.7632 0)
(52.6669 10.5366 0)
(52.8753 10.4141 0)
(52.8241 10.4116 0)
(52.5587 10.5314 0)
(52.1414 10.7636 0)
(51.6362 11.0881 0)
(51.083 11.4843 0)
(50.5384 11.9193 0)
(49.9927 12.389 0)
(49.5668 12.8129 0)
(49.0711 13.3499 0)
(48.8556 13.6531 0)
(49.8837 11.4636 0)
(49.8755 11.5383 0)
(49.8675 11.6136 0)
(49.8549 11.6933 0)
(49.8306 11.7784 0)
(49.7905 11.8643 0)
(49.739 11.9421 0)
(49.6889 12.0036 0)
(49.6549 12.0468 0)
(49.6454 12.0772 0)
(49.6573 12.1061 0)
(49.6771 12.146 0)
(49.6867 12.2064 0)
(49.6702 12.2917 0)
(49.6174 12.4023 0)
(49.5234 12.5372 0)
(49.3842 12.6949 0)
(49.1976 12.8703 0)
(48.9684 13.05 0)
(48.7164 13.2104 0)
(48.4786 13.3213 0)
(48.3013 13.3544 0)
(48.2294 13.2917 0)
(48.2961 13.1297 0)
(48.5199 12.8786 0)
(48.9058 12.5584 0)
(49.4456 12.1934 0)
(50.1146 11.8078 0)
(50.8636 11.4247 0)
(51.6124 11.0676 0)
(52.258 10.7623 0)
(52.7021 10.5361 0)
(52.8871 10.414 0)
(52.8137 10.4118 0)
(52.5303 10.5318 0)
(52.1006 10.7641 0)
(51.5881 11.0886 0)
(51.0318 11.4849 0)
(50.488 11.9198 0)
(49.9456 12.3894 0)
(49.5266 12.8132 0)
(49.0356 13.3502 0)
(48.8388 13.6531 0)
(49.8909 11.3864 0)
(49.8817 11.4637 0)
(49.8732 11.5384 0)
(49.8647 11.6136 0)
(49.8516 11.6935 0)
(49.8266 11.7787 0)
(49.7856 11.8648 0)
(49.7335 11.9425 0)
(49.6834 12.004 0)
(49.65 12.0469 0)
(49.6414 12.0771 0)
(49.6539 12.106 0)
(49.6738 12.1459 0)
(49.6825 12.2064 0)
(49.6643 12.2918 0)
(49.6094 12.4026 0)
(49.5131 12.5378 0)
(49.3719 12.6956 0)
(49.1839 12.8711 0)
(48.9546 13.0509 0)
(48.7045 13.2113 0)
(48.471 13.322 0)
(48.3008 13.3548 0)
(48.2382 13.2918 0)
(48.3158 13.1293 0)
(48.5518 12.8779 0)
(48.95 12.5574 0)
(49.5016 12.1922 0)
(50.18 11.8064 0)
(50.9334 11.4233 0)
(51.6787 11.0664 0)
(52.3115 10.7614 0)
(52.7353 10.5357 0)
(52.8967 10.4139 0)
(52.8011 10.412 0)
(52.5002 10.5322 0)
(52.0585 10.7646 0)
(51.5391 11.0891 0)
(50.9803 11.4854 0)
(50.4376 11.9202 0)
(49.8987 12.3898 0)
(49.4868 12.8136 0)
(49.0006 13.3504 0)
(48.8223 13.6532 0)
(49.8979 11.3053 0)
(49.8892 11.3865 0)
(49.8796 11.4638 0)
(49.8707 11.5385 0)
(49.8619 11.6137 0)
(49.8482 11.6936 0)
(49.8224 11.7791 0)
(49.7805 11.8652 0)
(49.7279 11.943 0)
(49.6778 12.0043 0)
(49.6451 12.0471 0)
(49.6374 12.0771 0)
(49.6507 12.1058 0)
(49.6705 12.1458 0)
(49.6783 12.2064 0)
(49.6583 12.292 0)
(49.6012 12.403 0)
(49.5027 12.5383 0)
(49.3596 12.6963 0)
(49.1703 12.872 0)
(48.941 13.0518 0)
(48.693 13.2121 0)
(48.4641 13.3227 0)
(48.3011 13.3552 0)
(48.2479 13.2918 0)
(48.3367 13.129 0)
(48.5848 12.8772 0)
(48.9955 12.5564 0)
(49.5587 12.1909 0)
(50.2463 11.8051 0)
(51.0034 11.4221 0)
(51.7444 11.0653 0)
(52.3636 10.7607 0)
(52.7665 10.5353 0)
(52.9041 10.4139 0)
(52.7865 10.4123 0)
(52.4685 10.5326 0)
(52.0152 10.7651 0)
(51.4894 11.0896 0)
(50.9284 11.4859 0)
(50.3871 11.9207 0)
(49.852 12.3901 0)
(49.4473 12.8139 0)
(48.9661 13.3506 0)
(48.8064 13.6532 0)
(49.9034 11.2207 0)
(49.8965 11.3055 0)
(49.8874 11.3866 0)
(49.8774 11.4639 0)
(49.8682 11.5385 0)
(49.859 11.6138 0)
(49.8447 11.6938 0)
(49.8181 11.7794 0)
(49.7754 11.8656 0)
(49.7222 11.9434 0)
(49.6722 12.0046 0)
(49.6402 12.0472 0)
(49.6335 12.077 0)
(49.6474 12.1057 0)
(49.6672 12.1457 0)
(49.674 12.2064 0)
(49.6522 12.2922 0)
(49.593 12.4033 0)
(49.4923 12.5388 0)
(49.3473 12.697 0)
(49.1568 12.8727 0)
(48.9277 13.0526 0)
(48.6819 13.2129 0)
(48.4577 13.3233 0)
(48.3021 13.3556 0)
(48.2586 13.2918 0)
(48.3586 13.1286 0)
(48.619 12.8765 0)
(49.0422 12.5554 0)
(49.6171 12.1898 0)
(50.3134 11.8038 0)
(51.0737 11.4208 0)
(51.8094 11.0643 0)
(52.4142 10.7599 0)
(52.7956 10.5349 0)
(52.9092 10.4139 0)
(52.7699 10.4125 0)
(52.4351 10.533 0)
(51.9708 10.7655 0)
(51.439 11.0901 0)
(50.8762 11.4863 0)
(50.3366 11.9211 0)
(49.8056 12.3905 0)
(49.4081 12.8142 0)
(48.932 13.3508 0)
(48.7909 13.6533 0)
(49.9074 11.1327 0)
(49.9024 11.2208 0)
(49.895 11.3056 0)
(49.8855 11.3867 0)
(49.8751 11.464 0)
(49.8656 11.5386 0)
(49.856 11.6139 0)
(49.8412 11.694 0)
(49.8137 11.7797 0)
(49.7702 11.866 0)
(49.7165 11.9438 0)
(49.6667 12.0049 0)
(49.6354 12.0473 0)
(49.6297 12.077 0)
(49.6443 12.1055 0)
(49.6639 12.1456 0)
(49.6696 12.2064 0)
(49.6461 12.2923 0)
(49.5847 12.4037 0)
(49.4817 12.5393 0)
(49.3349 12.6976 0)
(49.1434 12.8735 0)
(48.9146 13.0535 0)
(48.6711 13.2137 0)
(48.452 13.3239 0)
(48.3039 13.3559 0)
(48.2702 13.2917 0)
(48.3817 13.1282 0)
(48.6544 12.8757 0)
(49.0901 12.5545 0)
(49.6765 12.1886 0)
(50.3812 11.8026 0)
(51.144 11.4196 0)
(51.8737 11.0633 0)
(52.4633 10.7593 0)
(52.8226 10.5346 0)
(52.9121 10.4139 0)
(52.7512 10.4128 0)
(52.4002 10.5334 0)
(51.9252 10.766 0)
(51.3879 11.0906 0)
(50.8237 11.4868 0)
(50.2861 11.9215 0)
(49.7593 12.3908 0)
(49.3694 12.8145 0)
(48.8985 13.3511 0)
(48.7759 13.6533 0)
(49.9099 11.0413 0)
(49.9067 11.1328 0)
(49.9013 11.2209 0)
(49.8935 11.3057 0)
(49.8835 11.3868 0)
(49.8728 11.4641 0)
(49.8629 11.5387 0)
(49.8529 11.614 0)
(49.8375 11.6942 0)
(49.8092 11.78 0)
(49.7649 11.8664 0)
(49.7108 11.9442 0)
(49.6611 12.0052 0)
(49.6307 12.0474 0)
(49.6259 12.0769 0)
(49.6412 12.1054 0)
(49.6606 12.1455 0)
(49.6652 12.2064 0)
(49.6398 12.2925 0)
(49.5762 12.404 0)
(49.4712 12.5398 0)
(49.3225 12.6983 0)
(49.1301 12.8742 0)
(48.9017 13.0542 0)
(48.6608 13.2144 0)
(48.4468 13.3244 0)
(48.3066 13.3561 0)
(48.2828 13.2917 0)
(48.4059 13.1278 0)
(48.691 12.875 0)
(49.1393 12.5535 0)
(49.737 12.1875 0)
(50.4498 11.8014 0)
(51.2145 11.4185 0)
(51.9372 11.0624 0)
(52.5106 10.7587 0)
(52.8473 10.5343 0)
(52.9127 10.4139 0)
(52.7306 10.413 0)
(52.3637 10.5338 0)
(51.8786 10.7665 0)
(51.3363 11.0911 0)
(50.7709 11.4872 0)
(50.2356 11.9219 0)
(49.7134 12.3911 0)
(49.331 12.8148 0)
(48.8655 13.3512 0)
(48.7613 13.6534 0)
(49.911 10.9459 0)
(49.9096 11.0413 0)
(49.906 11.1329 0)
(49.9001 11.221 0)
(49.8919 11.3058 0)
(49.8815 11.387 0)
(49.8704 11.4642 0)
(49.8601 11.5388 0)
(49.8497 11.6141 0)
(49.8338 11.6944 0)
(49.8047 11.7803 0)
(49.7596 11.8667 0)
(49.705 11.9445 0)
(49.6556 12.0054 0)
(49.626 12.0475 0)
(49.6223 12.0769 0)
(49.6382 12.1053 0)
(49.6574 12.1454 0)
(49.6608 12.2065 0)
(49.6335 12.2927 0)
(49.5677 12.4043 0)
(49.4605 12.5403 0)
(49.3102 12.6989 0)
(49.1168 12.8749 0)
(48.8891 13.055 0)
(48.651 13.215 0)
(48.4423 13.3249 0)
(48.3101 13.3564 0)
(48.2965 13.2916 0)
(48.4312 13.1274 0)
(48.7288 12.8743 0)
(49.1896 12.5526 0)
(49.7986 12.1864 0)
(50.5191 11.8002 0)
(51.2848 11.4174 0)
(51.9998 11.0615 0)
(52.5562 10.7581 0)
(52.8699 10.5341 0)
(52.911 10.414 0)
(52.708 10.4133 0)
(52.3257 10.5342 0)
(51.8311 10.7669 0)
(51.284 11.0915 0)
(50.718 11.4876 0)
(50.1853 11.9222 0)
(49.6678 12.3914 0)
(49.2931 12.815 0)
(48.8329 13.3515 0)
(48.7472 13.6535 0)
(49.9106 10.8463 0)
(49.911 10.9459 0)
(49.9092 11.0414 0)
(49.9052 11.1329 0)
(49.8989 11.221 0)
(49.8902 11.3059 0)
(49.8793 11.3871 0)
(49.8679 11.4643 0)
(49.8573 11.5389 0)
(49.8465 11.6142 0)
(49.8299 11.6945 0)
(49.8 11.7805 0)
(49.7541 11.8671 0)
(49.6992 11.9449 0)
(49.6501 12.0057 0)
(49.6214 12.0476 0)
(49.6187 12.0768 0)
(49.6352 12.1052 0)
(49.6541 12.1453 0)
(49.6563 12.2065 0)
(49.6271 12.2929 0)
(49.5591 12.4047 0)