/*--------------------------------*- C++ -*----------------------------------*\
  =========                 |
  \\      /  F ield         | OpenFOAM: The Open Source CFD Toolbox
   \\    /   O peration     | Website:  https://openfoam.org
    \\  /    A nd           | Version:  7
     \\/     M anipulation  |
\*---------------------------------------------------------------------------*/
FoamFile
{
    version     2.0;
    format      ascii;
    class       volScalarField;
    location    "800";
    object      yPlus;
}
// * * * * * * * * * * * * * * * * * * * * * * * * * * * * * * * * * * * * * //

dimensions      [0 0 0 0 0 0 0];

internalField   uniform 0;

boundaryField
{
    inlet-l
    {
        type            calculated;
        value           nonuniform 0();
    }
    airfoil-l1
    {
        type            calculated;
        value           nonuniform 0();
    }
    empty-1
    {
        type            empty;
    }
    empty-2
    {
        type            empty;
    }
    wall-l1
    {
        type            calculated;
        value           nonuniform 0();
    }
    airfoil-l2
    {
        type            calculated;
        value           nonuniform 0();
    }
    empty-3
    {
        type            empty;
    }
    empty-4
    {
        type            empty;
    }
    wall-l2
    {
        type            calculated;
        value           nonuniform 0();
    }
    outlet-l
    {
        type            calculated;
        value           uniform 0;
    }
    empty-5
    {
        type            empty;
    }
    empty-6
    {
        type            empty;
    }
    outlet-h
    {
        type            calculated;
        value           uniform 0;
    }
    wall-h2
    {
        type            calculated;
        value           nonuniform List<scalar> 
74
(
138.378
138.62
138.866
139.101
139.336
139.579
139.832
140.092
140.358
140.632
140.914
141.205
141.503
141.811
142.127
142.452
142.787
143.131
143.486
143.849
144.237
144.628
145.027
145.436
145.855
146.284
146.722
147.17
147.627
148.093
148.568
149.051
149.541
150.039
150.543
151.052
151.567
152.085
152.606
153.13
153.654
154.177
154.697
155.214
155.726
156.232
156.73
157.218
157.695
158.16
158.608
159.039
159.45
159.839
160.203
160.541
160.849
161.126
161.369
161.575
161.742
161.867
161.947
161.979
161.959
161.881
161.74
161.527
161.228
160.826
160.278
159.633
158.487
159.107
)
;
    }
    empty-7
    {
        type            empty;
    }
    empty-8
    {
        type            empty;
    }
    airfoil-h2
    {
        type            calculated;
        value           nonuniform List<scalar> 
34
(
16.8833
16.6263
16.3739
16.1237
15.8734
15.6261
15.3795
15.1315
14.883
14.6323
14.3829
14.1325
13.8762
13.6163
13.3519
13.0836
12.8089
12.5268
12.2346
11.9325
11.6206
11.2936
10.9519
10.5883
10.1988
9.77831
9.39094
8.97797
8.62932
8.13339
8.00599
7.19029
8.38399
3.67802
)
;
    }
    wall-h1
    {
        type            calculated;
        value           nonuniform List<scalar> 
34
(
133.617
133.722
133.822
133.933
134.037
134.153
134.263
134.385
134.501
134.627
134.748
134.88
135.005
135.142
135.272
135.412
135.548
135.694
135.832
135.981
136.127
136.273
136.429
136.578
136.739
136.892
137.054
137.213
137.379
137.54
137.709
137.873
138.038
138.241
)
;
    }
    empty-9
    {
        type            empty;
    }
    empty-10
    {
        type            empty;
    }
    inlet-h
    {
        type            calculated;
        value           nonuniform 0();
    }
    airfoil-h1
    {
        type            calculated;
        value           nonuniform 0();
    }
    empty-11
    {
        type            empty;
    }
    empty-12
    {
        type            empty;
    }
    procBoundary2to1
    {
        type            processor;
        value           uniform 0;
    }
    procBoundary2to3
    {
        type            processor;
        value           uniform 0;
    }
}


// ************************************************************************* //
