/*--------------------------------*- C++ -*----------------------------------*\
  =========                 |
  \\      /  F ield         | OpenFOAM: The Open Source CFD Toolbox
   \\    /   O peration     | Website:  https://openfoam.org
    \\  /    A nd           | Version:  7
     \\/     M anipulation  |
\*---------------------------------------------------------------------------*/
FoamFile
{
    version     2.0;
    format      ascii;
    class       volScalarField;
    location    "1400";
    object      nut;
}
// * * * * * * * * * * * * * * * * * * * * * * * * * * * * * * * * * * * * * //

dimensions      [0 2 -1 0 0 0 0];

internalField   nonuniform List<scalar> 
23064
(
5.20722e-06
5.20849e-06
5.20722e-06
5.20971e-06
5.20849e-06
5.20722e-06
5.21089e-06
5.2097e-06
5.20848e-06
5.20722e-06
5.21203e-06
5.21087e-06
5.20969e-06
5.20847e-06
5.20721e-06
5.21313e-06
5.21201e-06
5.21086e-06
5.20968e-06
5.20846e-06
5.20721e-06
5.2142e-06
5.21311e-06
5.212e-06
5.21084e-06
5.20966e-06
5.20846e-06
5.20721e-06
5.21522e-06
5.21418e-06
5.2131e-06
5.21198e-06
5.21083e-06
5.20965e-06
5.20845e-06
5.20721e-06
5.21621e-06
5.21521e-06
5.21416e-06
5.21308e-06
5.21196e-06
5.21081e-06
5.20964e-06
5.20844e-06
5.2072e-06
5.21716e-06
5.2162e-06
5.21519e-06
5.21415e-06
5.21306e-06
5.21194e-06
5.21079e-06
5.20962e-06
5.20843e-06
5.2072e-06
5.21807e-06
5.21715e-06
5.21618e-06
5.21518e-06
5.21413e-06
5.21305e-06
5.21193e-06
5.21078e-06
5.20961e-06
5.20842e-06
5.2072e-06
5.21894e-06
5.21806e-06
5.21714e-06
5.21617e-06
5.21516e-06
5.21411e-06
5.21303e-06
5.21191e-06
5.21076e-06
5.20959e-06
5.20841e-06
5.20719e-06
5.21977e-06
5.21893e-06
5.21805e-06
5.21712e-06
5.21616e-06
5.21515e-06
5.21409e-06
5.21301e-06
5.21189e-06
5.21074e-06
5.20957e-06
5.2084e-06
5.20719e-06
5.22056e-06
5.21976e-06
5.21892e-06
5.21804e-06
5.21711e-06
5.21614e-06
5.21513e-06
5.21408e-06
5.21299e-06
5.21186e-06
5.21072e-06
5.20956e-06
5.20838e-06
5.20719e-06
5.22132e-06
5.22056e-06
5.21976e-06
5.21891e-06
5.21803e-06
5.2171e-06
5.21613e-06
5.21511e-06
5.21406e-06
5.21296e-06
5.21184e-06
5.2107e-06
5.20954e-06
5.20837e-06
5.20718e-06
5.22204e-06
5.22132e-06
5.22056e-06
5.21975e-06
5.21891e-06
5.21802e-06
5.21708e-06
5.21611e-06
5.21509e-06
5.21403e-06
5.21294e-06
5.21182e-06
5.21067e-06
5.20952e-06
5.20836e-06
5.20718e-06
5.22273e-06
5.22204e-06
5.22132e-06
5.22055e-06
5.21975e-06
5.2189e-06
5.218e-06
5.21707e-06
5.21609e-06
5.21507e-06
5.21401e-06
5.21292e-06
5.21179e-06
5.21065e-06
5.2095e-06
5.20834e-06
5.20717e-06
5.22339e-06
5.22273e-06
5.22204e-06
5.22132e-06
5.22055e-06
5.21974e-06
5.21889e-06
5.21799e-06
5.21706e-06
5.21607e-06
5.21505e-06
5.21399e-06
5.21289e-06
5.21177e-06
5.21063e-06
5.20948e-06
5.20833e-06
5.20717e-06
5.22401e-06
5.22339e-06
5.22274e-06
5.22204e-06
5.22131e-06
5.22054e-06
5.21973e-06
5.21888e-06
5.21798e-06
5.21704e-06
5.21606e-06
5.21503e-06
5.21397e-06
5.21287e-06
5.21174e-06
5.2106e-06
5.20945e-06
5.20831e-06
5.20716e-06
5.22461e-06
5.22402e-06
5.2234e-06
5.22274e-06
5.22204e-06
5.22131e-06
5.22054e-06
5.21972e-06
5.21887e-06
5.21797e-06
5.21702e-06
5.21604e-06
5.21501e-06
5.21394e-06
5.21284e-06
5.21171e-06
5.21057e-06
5.20943e-06
5.20829e-06
5.20716e-06
5.22517e-06
5.22462e-06
5.22402e-06
5.2234e-06
5.22274e-06
5.22204e-06
5.22131e-06
5.22053e-06
5.21972e-06
5.21886e-06
5.21795e-06
5.21701e-06
5.21602e-06
5.21499e-06
5.21391e-06
5.21281e-06
5.21168e-06
5.21054e-06
5.2094e-06
5.20828e-06
5.20715e-06
5.22571e-06
5.22518e-06
5.22462e-06
5.22403e-06
5.2234e-06
5.22274e-06
5.22204e-06
5.22131e-06
5.22053e-06
5.21971e-06
5.21885e-06
5.21794e-06
5.21699e-06
5.216e-06
5.21496e-06
5.21389e-06
5.21278e-06
5.21165e-06
5.21051e-06
5.20938e-06
5.20826e-06
5.20714e-06
5.22622e-06
5.22572e-06
5.22519e-06
5.22463e-06
5.22403e-06
5.22341e-06
5.22274e-06
5.22204e-06
5.2213e-06
5.22052e-06
5.2197e-06
5.21884e-06
5.21793e-06
5.21697e-06
5.21598e-06
5.21494e-06
5.21386e-06
5.21275e-06
5.21162e-06
5.21048e-06
5.20935e-06
5.20824e-06
5.20714e-06
5.22671e-06
5.22623e-06
5.22573e-06
5.2252e-06
5.22464e-06
5.22404e-06
5.22341e-06
5.22275e-06
5.22204e-06
5.2213e-06
5.22052e-06
5.21969e-06
5.21883e-06
5.21791e-06
5.21695e-06
5.21595e-06
5.21491e-06
5.21383e-06
5.21272e-06
5.21159e-06
5.21045e-06
5.20932e-06
5.20821e-06
5.20713e-06
5.22717e-06
5.22672e-06
5.22624e-06
5.22574e-06
5.22521e-06
5.22464e-06
5.22405e-06
5.22342e-06
5.22275e-06
5.22204e-06
5.2213e-06
5.22051e-06
5.21969e-06
5.21881e-06
5.2179e-06
5.21694e-06
5.21593e-06
5.21488e-06
5.2138e-06
5.21269e-06
5.21155e-06
5.21041e-06
5.20929e-06
5.20819e-06
5.20712e-06
5.22761e-06
5.22718e-06
5.22673e-06
5.22625e-06
5.22575e-06
5.22521e-06
5.22465e-06
5.22405e-06
5.22342e-06
5.22275e-06
5.22204e-06
5.2213e-06
5.22051e-06
5.21968e-06
5.2188e-06
5.21788e-06
5.21692e-06
5.21591e-06
5.21486e-06
5.21377e-06
5.21265e-06
5.21151e-06
5.21037e-06
5.20925e-06
5.20817e-06
5.20711e-06
5.22803e-06
5.22762e-06
5.2272e-06
5.22674e-06
5.22626e-06
5.22576e-06
5.22522e-06
5.22466e-06
5.22406e-06
5.22342e-06
5.22275e-06
5.22204e-06
5.22129e-06
5.2205e-06
5.21967e-06
5.21879e-06
5.21786e-06
5.2169e-06
5.21588e-06
5.21483e-06
5.21374e-06
5.21261e-06
5.21147e-06
5.21034e-06
5.20922e-06
5.20814e-06
5.2071e-06
5.22842e-06
5.22804e-06
5.22764e-06
5.22721e-06
5.22675e-06
5.22628e-06
5.22577e-06
5.22523e-06
5.22466e-06
5.22406e-06
5.22343e-06
5.22275e-06
5.22204e-06
5.22129e-06
5.2205e-06
5.21966e-06
5.21878e-06
5.21785e-06
5.21687e-06
5.21586e-06
5.2148e-06
5.2137e-06
5.21258e-06
5.21143e-06
5.21029e-06
5.20918e-06
5.20811e-06
5.20709e-06
5.2288e-06
5.22844e-06
5.22805e-06
5.22765e-06
5.22722e-06
5.22677e-06
5.22629e-06
5.22578e-06
5.22524e-06
5.22467e-06
5.22407e-06
5.22343e-06
5.22276e-06
5.22204e-06
5.22129e-06
5.22049e-06
5.21965e-06
5.21876e-06
5.21783e-06
5.21685e-06
5.21583e-06
5.21477e-06
5.21367e-06
5.21254e-06
5.21139e-06
5.21025e-06
5.20914e-06
5.20808e-06
5.20708e-06
5.22916e-06
5.22881e-06
5.22845e-06
5.22807e-06
5.22766e-06
5.22723e-06
5.22678e-06
5.2263e-06
5.22579e-06
5.22525e-06
5.22468e-06
5.22408e-06
5.22344e-06
5.22276e-06
5.22204e-06
5.22128e-06
5.22048e-06
5.21964e-06
5.21875e-06
5.21781e-06
5.21683e-06
5.2158e-06
5.21473e-06
5.21363e-06
5.21249e-06
5.21135e-06
5.21021e-06
5.2091e-06
5.20805e-06
5.20707e-06
5.22949e-06
5.22917e-06
5.22883e-06
5.22846e-06
5.22808e-06
5.22768e-06
5.22725e-06
5.22679e-06
5.22631e-06
5.2258e-06
5.22526e-06
5.22469e-06
5.22408e-06
5.22344e-06
5.22276e-06
5.22204e-06
5.22128e-06
5.22048e-06
5.21963e-06
5.21873e-06
5.21779e-06
5.21681e-06
5.21578e-06
5.2147e-06
5.21359e-06
5.21245e-06
5.2113e-06
5.21016e-06
5.20905e-06
5.20802e-06
5.20705e-06
0.000267332
5.22981e-06
5.22951e-06
5.22918e-06
5.22884e-06
5.22848e-06
5.2281e-06
5.22769e-06
5.22726e-06
5.2268e-06
5.22632e-06
5.22581e-06
5.22527e-06
5.2247e-06
5.22409e-06
5.22344e-06
5.22276e-06
5.22204e-06
5.22128e-06
5.22047e-06
5.21962e-06
5.21872e-06
5.21778e-06
5.21678e-06
5.21575e-06
5.21467e-06
5.21355e-06
5.2124e-06
5.21125e-06
5.21011e-06
5.20901e-06
5.20798e-06
5.20704e-06
0.000287452
0.000271361
5.23012e-06
5.22983e-06
5.22952e-06
5.2292e-06
5.22886e-06
5.22849e-06
5.22811e-06
5.2277e-06
5.22727e-06
5.22682e-06
5.22633e-06
5.22582e-06
5.22528e-06
5.2247e-06
5.2241e-06
5.22345e-06
5.22277e-06
5.22204e-06
5.22127e-06
5.22046e-06
5.21961e-06
5.21871e-06
5.21776e-06
5.21676e-06
5.21572e-06
5.21463e-06
5.21351e-06
5.21236e-06
5.2112e-06
5.21005e-06
5.20896e-06
5.20794e-06
5.20702e-06
0.000533232
0.000289474
0.000275354
5.23041e-06
5.23013e-06
5.22985e-06
5.22954e-06
5.22922e-06
5.22887e-06
5.22851e-06
5.22812e-06
5.22772e-06
5.22729e-06
5.22683e-06
5.22635e-06
5.22583e-06
5.22529e-06
5.22471e-06
5.2241e-06
5.22345e-06
5.22277e-06
5.22204e-06
5.22127e-06
5.22046e-06
5.2196e-06
5.21869e-06
5.21774e-06
5.21673e-06
5.21568e-06
5.21459e-06
5.21346e-06
5.21231e-06
5.21114e-06
5.21e-06
5.20891e-06
5.2079e-06
5.207e-06
0.000781886
0.000536621
0.000291531
0.000279408
5.23068e-06
5.23042e-06
5.23015e-06
5.22986e-06
5.22956e-06
5.22923e-06
5.22889e-06
5.22852e-06
5.22814e-06
5.22773e-06
5.2273e-06
5.22684e-06
5.22636e-06
5.22584e-06
5.2253e-06
5.22472e-06
5.22411e-06
5.22346e-06
5.22277e-06
5.22204e-06
5.22127e-06
5.22045e-06
5.21959e-06
5.21867e-06
5.21772e-06
5.21671e-06
5.21565e-06
5.21455e-06
5.21342e-06
5.21226e-06
5.21109e-06
5.20994e-06
5.20885e-06
5.20786e-06
5.20699e-06
0.00103611
0.000785879
0.000540065
0.000293555
0.000283477
5.23094e-06
5.2307e-06
5.23044e-06
5.23017e-06
5.22988e-06
5.22957e-06
5.22925e-06
5.2289e-06
5.22854e-06
5.22816e-06
5.22775e-06
5.22732e-06
5.22686e-06
5.22637e-06
5.22586e-06
5.22531e-06
5.22473e-06
5.22412e-06
5.22346e-06
5.22277e-06
5.22204e-06
5.22127e-06
5.22044e-06
5.21958e-06
5.21866e-06
5.21769e-06
5.21668e-06
5.21562e-06
5.21451e-06
5.21337e-06
5.2122e-06
5.21103e-06
5.20988e-06
5.20879e-06
5.20781e-06
5.20697e-06
0.00128632
0.00103979
0.000789872
0.000543428
0.00029569
0.000287538
5.23119e-06
5.23096e-06
5.23071e-06
5.23046e-06
5.23018e-06
5.22989e-06
5.22959e-06
5.22926e-06
5.22892e-06
5.22856e-06
5.22817e-06
5.22776e-06
5.22733e-06
5.22687e-06
5.22639e-06
5.22587e-06
5.22532e-06
5.22474e-06
5.22412e-06
5.22347e-06
5.22278e-06
5.22204e-06
5.22126e-06
5.22044e-06
5.21956e-06
5.21864e-06
5.21767e-06
5.21665e-06
5.21558e-06
5.21447e-06
5.21332e-06
5.21214e-06
5.21096e-06
5.20981e-06
5.20873e-06
5.20776e-06
5.20694e-06
0.00152646
0.00128878
0.00104344
0.0007939
0.000547011
0.000297843
0.000291666
5.23142e-06
5.2312e-06
5.23097e-06
5.23073e-06
5.23047e-06
5.2302e-06
5.22991e-06
5.2296e-06
5.22928e-06
5.22894e-06
5.22857e-06
5.22819e-06
5.22778e-06
5.22735e-06
5.22689e-06
5.2264e-06
5.22588e-06
5.22533e-06
5.22475e-06
5.22413e-06
5.22348e-06
5.22278e-06
5.22204e-06
5.22126e-06
5.22043e-06
5.21955e-06
5.21863e-06
5.21765e-06
5.21662e-06
5.21555e-06
5.21443e-06
5.21327e-06
5.21208e-06
5.2109e-06
5.20974e-06
5.20866e-06
5.20771e-06
5.20692e-06
0.0017533
0.00152693
0.00129113
0.00104705
0.000798005
0.000550436
0.000300023
0.000295794
5.23164e-06
5.23144e-06
5.23122e-06
5.23099e-06
5.23075e-06
5.23049e-06
5.23022e-06
5.22993e-06
5.22962e-06
5.2293e-06
5.22895e-06
5.22859e-06
5.2282e-06
5.2278e-06
5.22736e-06
5.2269e-06
5.22641e-06
5.2259e-06
5.22535e-06
5.22476e-06
5.22414e-06
5.22348e-06
5.22278e-06
5.22204e-06
5.22126e-06
5.22042e-06
5.21954e-06
5.21861e-06
5.21763e-06
5.21659e-06
5.21551e-06
5.21438e-06
5.21321e-06
5.21202e-06
5.21083e-06
5.20967e-06
5.20859e-06
5.20765e-06
5.20689e-06
0.00196516
0.00175114
0.00152718
0.00129335
0.00105064
0.00080196
0.000554065
0.000302269
0.000300009
5.23185e-06
5.23166e-06
5.23145e-06
5.23124e-06
5.23101e-06
5.23076e-06
5.23051e-06
5.23023e-06
5.22995e-06
5.22964e-06
5.22932e-06
5.22897e-06
5.22861e-06
5.22822e-06
5.22781e-06
5.22738e-06
5.22692e-06
5.22643e-06
5.22591e-06
5.22536e-06
5.22477e-06
5.22415e-06
5.22349e-06
5.22279e-06
5.22204e-06
5.22125e-06
5.22042e-06
5.21953e-06
5.21859e-06
5.21761e-06
5.21656e-06
5.21547e-06
5.21433e-06
5.21316e-06
5.21196e-06
5.21076e-06
5.20959e-06
5.20852e-06
5.20759e-06
5.20687e-06
0.00216105
0.00195986
0.00174867
0.00152721
0.00129545
0.00105409
0.000806038
0.000557668
0.000304442
0.000304238
5.23205e-06
5.23187e-06
5.23168e-06
5.23147e-06
5.23125e-06
5.23102e-06
5.23078e-06
5.23052e-06
5.23025e-06
5.22996e-06
5.22966e-06
5.22933e-06
5.22899e-06
5.22863e-06
5.22824e-06
5.22783e-06
5.2274e-06
5.22693e-06
5.22644e-06
5.22592e-06
5.22537e-06
5.22478e-06
5.22416e-06
5.2235e-06
5.22279e-06
5.22204e-06
5.22125e-06
5.22041e-06
5.21952e-06
5.21858e-06
5.21758e-06
5.21653e-06
5.21543e-06
5.21429e-06
5.2131e-06
5.21189e-06
5.21068e-06
5.20951e-06
5.20844e-06
5.20752e-06
5.20684e-06
0.00234009
0.00215213
0.00195416
0.0017459
0.00152702
0.00129732
0.00105752
0.000810078
0.000561279
0.000306829
0.000308501
5.23224e-06
5.23207e-06
5.23189e-06
5.23169e-06
5.23149e-06
5.23127e-06
5.23104e-06
5.2308e-06
5.23054e-06
5.23027e-06
5.22998e-06
5.22968e-06
5.22935e-06
5.22901e-06
5.22864e-06
5.22826e-06
5.22785e-06
5.22741e-06
5.22695e-06
5.22646e-06
5.22594e-06
5.22538e-06
5.22479e-06
5.22417e-06
5.2235e-06
5.2228e-06
5.22205e-06
5.22125e-06
5.2204e-06
5.21951e-06
5.21856e-06
5.21756e-06
5.2165e-06
5.21539e-06
5.21424e-06
5.21304e-06
5.21182e-06
5.2106e-06
5.20943e-06
5.20835e-06
5.20745e-06
5.20681e-06
0.00250143
0.0023271
0.00214271
0.00194805
0.00174278
0.00152652
0.00129908
0.00106083
0.000814167
0.000565131
0.000309177
0.000312872
5.23242e-06
5.23226e-06
5.23209e-06
5.2319e-06
5.23171e-06
5.2315e-06
5.23129e-06
5.23106e-06
5.23082e-06
5.23056e-06
5.23029e-06
5.23e-06
5.22969e-06
5.22937e-06
5.22903e-06
5.22866e-06
5.22828e-06
5.22787e-06
5.22743e-06
5.22697e-06
5.22648e-06
5.22595e-06
5.2254e-06
5.22481e-06
5.22418e-06
5.22351e-06
5.2228e-06
5.22205e-06
5.22125e-06
5.2204e-06
5.21949e-06
5.21854e-06
5.21753e-06
5.21647e-06
5.21535e-06
5.21418e-06
5.21298e-06
5.21175e-06
5.21052e-06
5.20934e-06
5.20826e-06
5.20738e-06
5.20677e-06
0.00264405
0.00248391
0.00231351
0.00213279
0.00194149
0.00173928
0.00152579
0.00130059
0.00106411
0.000818334
0.000568804
0.000311628
0.000317313
5.23259e-06
5.23244e-06
5.23227e-06
5.2321e-06
5.23192e-06
5.23173e-06
5.23152e-06
5.23131e-06
5.23108e-06
5.23084e-06
5.23058e-06
5.23031e-06
5.23002e-06
5.22971e-06
5.22939e-06
5.22905e-06
5.22868e-06
5.2283e-06
5.22789e-06
5.22745e-06
5.22699e-06
5.22649e-06
5.22597e-06
5.22541e-06
5.22482e-06
5.22419e-06
5.22352e-06
5.22281e-06
5.22205e-06
5.22124e-06
5.22039e-06
5.21948e-06
5.21852e-06
5.21751e-06
5.21643e-06
5.21531e-06
5.21413e-06
5.21291e-06
5.21167e-06
5.21043e-06
5.20924e-06
5.20817e-06
5.2073e-06
5.20673e-06
0.00276683
0.00262152
0.00246566
0.00229928
0.00212228
0.00193443
0.00173544
0.0015247
0.00130198
0.00106731
0.000822333
0.000572665
0.000314163
0.000321784
5.23275e-06
5.23261e-06
5.23245e-06
5.23229e-06
5.23212e-06
5.23194e-06
5.23174e-06
5.23154e-06
5.23132e-06
5.2311e-06
5.23085e-06
5.2306e-06
5.23033e-06
5.23004e-06
5.22973e-06
5.22941e-06
5.22907e-06
5.2287e-06
5.22832e-06
5.2279e-06
5.22747e-06
5.227e-06
5.22651e-06
5.22599e-06
5.22543e-06
5.22483e-06
5.2242e-06
5.22353e-06
5.22281e-06
5.22205e-06
5.22124e-06
5.22038e-06
5.21947e-06
5.2185e-06
5.21748e-06
5.2164e-06
5.21526e-06
5.21408e-06
5.21285e-06
5.21159e-06
5.21034e-06
5.20914e-06
5.20807e-06
5.20721e-06
5.20669e-06
0.00286846
0.00273878
0.00259811
0.00244663
0.00228435
0.00211117
0.00192692
0.0017311
0.00152338
0.00130315
0.00107033
0.000826467
0.000576618
0.000316782
0.000326401
5.23291e-06
5.23277e-06
5.23262e-06
5.23247e-06
5.23231e-06
5.23213e-06
5.23195e-06
5.23176e-06
5.23156e-06
5.23134e-06
5.23112e-06
5.23087e-06
5.23062e-06
5.23035e-06
5.23006e-06
5.22975e-06
5.22943e-06
5.22909e-06
5.22872e-06
5.22834e-06
5.22793e-06
5.22749e-06
5.22702e-06
5.22653e-06
5.226e-06
5.22544e-06
5.22485e-06
5.22421e-06
5.22354e-06
5.22282e-06
5.22205e-06
5.22124e-06
5.22038e-06
5.21946e-06
5.21849e-06
5.21745e-06
5.21636e-06
5.21522e-06
5.21402e-06
5.21278e-06
5.21151e-06
5.21024e-06
5.20904e-06
5.20796e-06
5.20712e-06
5.20664e-06
0.0029475
0.00283435
0.00270968
0.00257377
0.00242675
0.00226866
0.00209946
0.00191879
0.00172641
0.00152169
0.00130405
0.00107332
0.000830591
0.000580601
0.000319454
0.000331149
5.23305e-06
5.23292e-06
5.23278e-06
5.23264e-06
5.23249e-06
5.23232e-06
5.23215e-06
5.23197e-06
5.23178e-06
5.23158e-06
5.23136e-06
5.23113e-06
5.23089e-06
5.23064e-06
5.23037e-06
5.23008e-06
5.22978e-06
5.22945e-06
5.22911e-06
5.22874e-06
5.22836e-06
5.22795e-06
5.22751e-06
5.22704e-06
5.22655e-06
5.22602e-06
5.22546e-06
5.22486e-06
5.22423e-06
5.22355e-06
5.22283e-06
5.22206e-06
5.22124e-06
5.22037e-06
5.21945e-06
5.21847e-06
5.21743e-06
5.21633e-06
5.21517e-06
5.21396e-06
5.2127e-06
5.21142e-06
5.21014e-06
5.20892e-06
5.20785e-06
5.20701e-06
5.20662e-06
0.00300235
0.00290677
0.00279903
0.00267949
0.00254842
0.00240597
0.00225221
0.00208698
0.00191013
0.00172122
0.00151961
0.00130476
0.00107616
0.000834641
0.000584571
0.00032223
0.000335909
5.23319e-06
5.23307e-06
5.23294e-06
5.2328e-06
5.23265e-06
5.2325e-06
5.23234e-06
5.23217e-06
5.23199e-06
5.2318e-06
5.2316e-06
5.23138e-06
5.23115e-06
5.23091e-06
5.23066e-06
5.23039e-06
5.2301e-06
5.2298e-06
5.22947e-06
5.22913e-06
5.22877e-06
5.22838e-06
5.22797e-06
5.22753e-06
5.22706e-06
5.22657e-06
5.22604e-06
5.22548e-06
5.22488e-06
5.22424e-06
5.22356e-06
5.22283e-06
5.22206e-06
5.22124e-06
5.22037e-06
5.21944e-06
5.21845e-06
5.2174e-06
5.21629e-06
5.21512e-06
5.2139e-06
5.21263e-06
5.21133e-06
5.21004e-06
5.20881e-06
5.20773e-06
5.20692e-06
5.20663e-06
0.00303125
0.0029544
0.00286464
0.00276242
0.00264811
0.00252197
0.00238422
0.00223483
0.00207381
0.00190084
0.00171549
0.00151719
0.00130517
0.00107882
0.000838708
0.000588908
0.00032513
0.000340802
5.23332e-06
5.2332e-06
5.23308e-06
5.23295e-06
5.23281e-06
5.23267e-06
5.23252e-06
5.23236e-06
5.23219e-06
5.23201e-06
5.23182e-06
5.23161e-06
5.2314e-06
5.23117e-06
5.23093e-06
5.23068e-06
5.23041e-06
5.23012e-06
5.22982e-06
5.2295e-06
5.22915e-06
5.22879e-06
5.2284e-06
5.22799e-06
5.22755e-06
5.22708e-06
5.22659e-06
5.22606e-06
5.22549e-06
5.22489e-06
5.22425e-06
5.22357e-06
5.22284e-06
5.22207e-06
5.22124e-06
5.22036e-06
5.21942e-06
5.21843e-06
5.21737e-06
5.21625e-06
5.21507e-06
5.21384e-06
5.21255e-06
5.21124e-06
5.20993e-06
5.20868e-06
5.2076e-06
5.20687e-06
5.20666e-06
0.00303226
0.00297545
0.00290484
0.00282101
0.00272441
0.00261543
0.00249439
0.00236139
0.00221659
0.00205982
0.00189084
0.00170923
0.00151432
0.00130526
0.00108137
0.000842908
0.000593144
0.000328134
0.000345878
5.23344e-06
5.23333e-06
5.23322e-06
5.2331e-06
5.23297e-06
5.23283e-06
5.23269e-06
5.23253e-06
5.23237e-06
5.2322e-06
5.23203e-06
5.23184e-06
5.23163e-06
5.23142e-06
5.2312e-06
5.23096e-06
5.2307e-06
5.23043e-06
5.23015e-06
5.22984e-06
5.22952e-06
5.22918e-06
5.22881e-06
5.22842e-06
5.22801e-06
5.22757e-06
5.22711e-06
5.22661e-06
5.22608e-06
5.22551e-06
5.22491e-06
5.22427e-06
5.22358e-06
5.22285e-06
5.22207e-06
5.22124e-06
5.22036e-06
5.21941e-06
5.21841e-06
5.21734e-06
5.21621e-06
5.21502e-06
5.21377e-06
5.21247e-06
5.21114e-06
5.20981e-06
5.20855e-06
5.20747e-06
5.20684e-06
5.20671e-06
0.00300331
0.00296795
0.00291781
0.00285355
0.00277575
0.00268489
0.00258139
0.00246551
0.00233748
0.00219733
0.00204495
0.00188012
0.00170236
0.00151095
0.00130508
0.00108381
0.000846921
0.000597373
0.000331292
0.000351108
5.23356e-06
5.23346e-06
5.23335e-06
5.23323e-06
5.23311e-06
5.23298e-06
5.23285e-06
5.2327e-06
5.23255e-06
5.23239e-06
5.23222e-06
5.23204e-06
5.23186e-06
5.23165e-06
5.23144e-06
5.23122e-06
5.23098e-06
5.23072e-06
5.23045e-06
5.23017e-06
5.22986e-06
5.22954e-06
5.2292e-06
5.22884e-06
5.22845e-06
5.22804e-06
5.2276e-06
5.22713e-06
5.22663e-06
5.2261e-06
5.22553e-06
5.22493e-06
5.22428e-06
5.22359e-06
5.22286e-06
5.22208e-06
5.22124e-06
5.22035e-06
5.2194e-06
5.21839e-06
5.21732e-06
5.21618e-06
5.21497e-06
5.2137e-06
5.21239e-06
5.21104e-06
5.20969e-06
5.20841e-06
5.20735e-06
5.20686e-06
5.20678e-06
0.0029422
0.00292981
0.00290156
0.0028582
0.0028004
0.00272876
0.00264377
0.00254585
0.00243531
0.00231234
0.00217697
0.00202916
0.00186861
0.00169482
0.00150713
0.00130455
0.00108593
0.000850874
0.00060185
0.00033459
0.00035651
5.23367e-06
5.23357e-06
5.23347e-06
5.23336e-06
5.23325e-06
5.23313e-06
5.233e-06
5.23286e-06
5.23272e-06
5.23257e-06
5.23241e-06
5.23224e-06
5.23206e-06
5.23188e-06
5.23168e-06
5.23146e-06
5.23124e-06
5.231e-06
5.23075e-06
5.23048e-06
5.23019e-06
5.22989e-06
5.22957e-06
5.22922e-06
5.22886e-06
5.22847e-06
5.22806e-06
5.22762e-06
5.22715e-06
5.22665e-06
5.22612e-06
5.22555e-06
5.22494e-06
5.2243e-06
5.22361e-06
5.22287e-06
5.22208e-06
5.22124e-06
5.22035e-06
5.21939e-06
5.21837e-06
5.21729e-06
5.21614e-06
5.21492e-06
5.21364e-06
5.2123e-06
5.21093e-06
5.20956e-06
5.20827e-06
5.20723e-06
5.20691e-06
5.20685e-06
0.00284663
0.0028588
0.00285396
0.00283293
0.00279647
0.00274525
0.00267989
0.0026009
0.00250871
0.00240364
0.00228585
0.00215545
0.00201234
0.0018562
0.0016866
0.00150274
0.00130354
0.00108782
0.000854886
0.000606407
0.000338056
0.000362099
5.23378e-06
5.23368e-06
5.23359e-06
5.23348e-06
5.23338e-06
5.23326e-06
5.23314e-06
5.23301e-06
5.23288e-06
5.23274e-06
5.23259e-06
5.23243e-06
5.23226e-06
5.23208e-06
5.2319e-06
5.2317e-06
5.23148e-06
5.23126e-06
5.23102e-06
5.23077e-06
5.2305e-06
5.23022e-06
5.22991e-06
5.22959e-06
5.22925e-06
5.22888e-06
5.2285e-06
5.22808e-06
5.22764e-06
5.22718e-06
5.22668e-06
5.22614e-06
5.22557e-06
5.22496e-06
5.22431e-06
5.22362e-06
5.22288e-06
5.22209e-06
5.22125e-06
5.22034e-06
5.21938e-06
5.21835e-06
5.21726e-06
5.21609e-06
5.21486e-06
5.21357e-06
5.21221e-06
5.21082e-06
5.20943e-06
5.20812e-06
5.20715e-06
5.207e-06
5.20694e-06
0.00271422
0.00275261
0.00277277
0.00277559
0.00276189
0.00273245
0.00268794
0.002629
0.00255616
0.00246984
0.00237037
0.00225794
0.00213266
0.00199439
0.00184288
0.00167759
0.00149769
0.00130212
0.00108954
0.000858811
0.000611073
0.000341705
0.000367844
5.23388e-06
5.23379e-06
5.2337e-06
5.2336e-06
5.2335e-06
5.23339e-06
5.23328e-06
5.23316e-06
5.23303e-06
5.2329e-06
5.23276e-06
5.23261e-06
5.23245e-06
5.23228e-06
5.2321e-06
5.23192e-06
5.23172e-06
5.23151e-06
5.23128e-06
5.23104e-06
5.23079e-06
5.23052e-06
5.23024e-06
5.22994e-06
5.22962e-06
5.22927e-06
5.22891e-06
5.22852e-06
5.22811e-06
5.22767e-06
5.2272e-06
5.2267e-06
5.22616e-06
5.22559e-06
5.22498e-06
5.22433e-06
5.22364e-06
5.22289e-06
5.2221e-06
5.22125e-06
5.22034e-06
5.21937e-06
5.21833e-06
5.21723e-06
5.21605e-06
5.21481e-06
5.21349e-06
5.21212e-06
5.21071e-06
5.20929e-06
5.20796e-06
5.20711e-06
5.20711e-06
5.20704e-06
0.00254262
0.00260889
0.00265568
0.00268393
0.00269451
0.00268827
0.00266596
0.00262831
0.00257593
0.00250937
0.00242908
0.00233537
0.00222849
0.00210847
0.00197525
0.00182851
0.00166769
0.00149199
0.00130029
0.00109096
0.00086269
0.000615865
0.000345583
0.000373899
5.23397e-06
5.23389e-06
5.2338e-06
5.23371e-06
5.23361e-06
5.23351e-06
5.2334e-06
5.23329e-06
5.23317e-06
5.23305e-06
5.23291e-06
5.23277e-06
5.23262e-06
5.23247e-06
5.2323e-06
5.23212e-06
5.23194e-06
5.23174e-06
5.23153e-06
5.23131e-06
5.23107e-06
5.23082e-06
5.23055e-06
5.23027e-06
5.22996e-06
5.22964e-06
5.2293e-06
5.22894e-06
5.22855e-06
5.22814e-06
5.2277e-06
5.22723e-06
5.22672e-06
5.22619e-06
5.22562e-06
5.22501e-06
5.22435e-06
5.22365e-06
5.22291e-06
5.22211e-06
5.22125e-06
5.22034e-06
5.21936e-06
5.21832e-06
5.2172e-06
5.21601e-06
5.21475e-06
5.21342e-06
5.21203e-06
5.21059e-06
5.20914e-06
5.20781e-06
5.20712e-06
5.20726e-06
5.20714e-06
0.00232961
0.00242535
0.00250036
0.00255565
0.00259207
0.00261053
0.00261186
0.00259683
0.00256616
0.00252049
0.00246038
0.00238627
0.00229851
0.00219733
0.00208278
0.00195477
0.00181298
0.00165687
0.00148562
0.00129789
0.00109208
0.00086644
0.000620732
0.000349649
0.000380261
5.23406e-06
5.23398e-06
5.2339e-06
5.23381e-06
5.23372e-06
5.23363e-06
5.23353e-06
5.23342e-06
5.23331e-06
5.23319e-06
5.23306e-06
5.23293e-06
5.23279e-06
5.23264e-06
5.23249e-06
5.23232e-06
5.23215e-06
5.23196e-06
5.23176e-06
5.23155e-06
5.23133e-06
5.23109e-06
5.23084e-06
5.23057e-06
5.23029e-06
5.22999e-06
5.22967e-06
5.22933e-06
5.22897e-06
5.22858e-06
5.22816e-06
5.22772e-06
5.22725e-06
5.22675e-06
5.22621e-06
5.22564e-06
5.22503e-06
5.22437e-06
5.22367e-06
5.22292e-06
5.22212e-06
5.22126e-06
5.22034e-06
5.21935e-06
5.2183e-06
5.21717e-06
5.21597e-06
5.21469e-06
5.21334e-06
5.21193e-06
5.21047e-06
5.20899e-06
5.20768e-06
5.20716e-06
5.20742e-06
5.20726e-06
0.00207322
0.00219981
0.00230459
0.00238846
0.00245228
0.00249698
0.00252342
0.00253244
0.00252482
0.00250129
0.0024625
0.002409
0.00234125
0.00225962
0.00216433
0.00205545
0.00193285
0.00179623
0.00164508
0.00147839
0.00129491
0.00109281
0.000870043
0.000625599
0.000354009
0.00038687
5.23415e-06
5.23407e-06
5.234e-06
5.23391e-06
5.23383e-06
5.23374e-06
5.23364e-06
5.23354e-06
5.23343e-06
5.23332e-06
5.23321e-06
5.23308e-06
5.23295e-06
5.23281e-06
5.23266e-06
5.23251e-06
5.23234e-06
5.23217e-06
5.23198e-06
5.23178e-06
5.23158e-06
5.23135e-06
5.23112e-06
5.23087e-06
5.2306e-06
5.23032e-06
5.23002e-06
5.2297e-06
5.22936e-06
5.22899e-06
5.22861e-06
5.22819e-06
5.22775e-06
5.22728e-06
5.22678e-06
5.22624e-06
5.22567e-06
5.22505e-06
5.22439e-06
5.22369e-06
5.22294e-06
5.22213e-06
5.22126e-06
5.22034e-06
5.21935e-06
5.21828e-06
5.21714e-06
5.21593e-06
5.21464e-06
5.21327e-06
5.21183e-06
5.21034e-06
5.20883e-06
5.20756e-06
5.20725e-06
5.20761e-06
5.2074e-06
0.0017719
0.00193051
0.00206634
0.00218022
0.00227291
0.00234535
0.00239841
0.00243295
0.00244979
0.00244973
0.00243349
0.00240173
0.00235502
0.00229383
0.00221853
0.00212932
0.00202629
0.00190933
0.00177816
0.0016321
0.00147027
0.00129123
0.0010931
0.000873507
0.000630856
0.000358656
0.000393754
5.23423e-06
5.23416e-06
5.23408e-06
5.23401e-06
5.23393e-06
5.23384e-06
5.23375e-06
5.23366e-06
5.23356e-06
5.23345e-06
5.23334e-06
5.23322e-06
5.2331e-06
5.23297e-06
5.23283e-06
5.23268e-06
5.23253e-06
5.23236e-06
5.23219e-06
5.232e-06
5.23181e-06
5.2316e-06
5.23138e-06
5.23114e-06
5.23089e-06
5.23063e-06
5.23035e-06
5.23005e-06
5.22973e-06
5.22939e-06
5.22902e-06
5.22864e-06
5.22822e-06
5.22778e-06
5.22731e-06
5.22681e-06
5.22627e-06
5.22569e-06
5.22508e-06
5.22442e-06
5.22371e-06
5.22295e-06
5.22214e-06
5.22127e-06
5.22034e-06
5.21934e-06
5.21826e-06
5.21712e-06
5.21589e-06
5.21458e-06
5.21319e-06
5.21172e-06
5.2102e-06
5.20866e-06
5.20746e-06
5.20737e-06
5.20782e-06
5.20754e-06
0.00142468
0.00161614
0.00178401
0.00192905
0.00205191
0.00215351
0.00223462
0.00229612
0.00233885
0.00236365
0.00237128
0.0023625
0.00233796
0.00229823
0.00224378
0.002175
0.0020921
0.00199515
0.00188409
0.00175851
0.00161785
0.00146109
0.00128679
0.00109294
0.000876927
0.000636142
0.000363668
0.000401052
5.2343e-06
5.23424e-06
5.23417e-06
5.2341e-06
5.23402e-06
5.23394e-06
5.23385e-06
5.23376e-06
5.23367e-06
5.23357e-06
5.23347e-06
5.23336e-06
5.23324e-06
5.23312e-06
5.23299e-06
5.23285e-06
5.2327e-06
5.23255e-06
5.23238e-06
5.23221e-06
5.23203e-06
5.23183e-06
5.23162e-06
5.2314e-06
5.23117e-06
5.23092e-06
5.23066e-06
5.23037e-06
5.23007e-06
5.22976e-06
5.22942e-06
5.22905e-06
5.22867e-06
5.22825e-06
5.22781e-06
5.22734e-06
5.22684e-06
5.2263e-06
5.22572e-06
5.2251e-06
5.22444e-06
5.22373e-06
5.22297e-06
5.22215e-06
5.22128e-06
5.22034e-06
5.21933e-06
5.21825e-06
5.21709e-06
5.21585e-06
5.21452e-06
5.21311e-06
5.21162e-06
5.21006e-06
5.2085e-06
5.20741e-06
5.20753e-06
5.20805e-06
5.2077e-06
0.00103046
0.00125587
0.00145651
0.00163354
0.0017876
0.00191953
0.00202998
0.00211981
0.00218982
0.00224087
0.00227374
0.00228924
0.00228808
0.00227093
0.00223836
0.00219087
0.00212882
0.00205245
0.00196184
0.00185686
0.00173719
0.00160216
0.00145078
0.00128154
0.00109231
0.000880039
0.000641507
0.000369105
0.000408908
5.23438e-06
5.23431e-06
5.23425e-06
5.23418e-06
5.23411e-06
5.23403e-06
5.23395e-06
5.23387e-06
5.23378e-06
5.23368e-06
5.23359e-06
5.23348e-06
5.23337e-06
5.23326e-06
5.23313e-06
5.23301e-06
5.23287e-06
5.23272e-06
5.23257e-06
5.23241e-06
5.23223e-06
5.23205e-06
5.23186e-06
5.23165e-06
5.23143e-06
5.2312e-06
5.23095e-06
5.23068e-06
5.2304e-06
5.2301e-06
5.22979e-06
5.22945e-06
5.22908e-06
5.2287e-06
5.22828e-06
5.22784e-06
5.22737e-06
5.22687e-06
5.22633e-06
5.22575e-06
5.22513e-06
5.22446e-06
5.22375e-06
5.22299e-06
5.22217e-06
5.22129e-06
5.22034e-06
5.21933e-06
5.21823e-06
5.21706e-06
5.2158e-06
5.21446e-06
5.21303e-06
5.21151e-06
5.20991e-06
5.20834e-06
5.20739e-06
5.20772e-06
5.2083e-06
5.20788e-06
0.000585825
0.000847168
0.00108299
0.00129281
0.00147881
0.0016419
0.00178274
0.00190206
0.00200064
0.00207925
0.00213869
0.00217978
0.00220328
0.00220992
0.00220034
0.00217515
0.00213482
0.00207972
0.00201012
0.00192607
0.00182747
0.00171396
0.00158488
0.0014392
0.00127536
0.00109099
0.000882857
0.000646868
0.000374988
0.000417239
5.23444e-06
5.23439e-06
5.23432e-06
5.23426e-06
5.23419e-06
5.23412e-06
5.23404e-06
5.23396e-06
5.23388e-06
5.23379e-06
5.2337e-06
5.2336e-06
5.2335e-06
5.23339e-06
5.23328e-06
5.23315e-06
5.23302e-06
5.23289e-06
5.23274e-06
5.23259e-06
5.23243e-06
5.23226e-06
5.23207e-06
5.23188e-06
5.23167e-06
5.23146e-06
5.23122e-06
5.23098e-06
5.23071e-06
5.23043e-06
5.23013e-06
5.22982e-06
5.22948e-06
5.22912e-06
5.22873e-06
5.22832e-06
5.22788e-06
5.2274e-06
5.2269e-06
5.22636e-06
5.22578e-06
5.22516e-06
5.22449e-06
5.22378e-06
5.22301e-06
5.22219e-06
5.2213e-06
5.22035e-06
5.21932e-06
5.21822e-06
5.21703e-06
5.21576e-06
5.2144e-06
5.21294e-06
5.2114e-06
5.20976e-06
5.20819e-06
5.20742e-06
5.20793e-06
5.20857e-06
5.20808e-06
0.00017792
0.000401042
0.00065925
0.000905257
0.00112476
0.00131968
0.00149162
0.00164133
0.00176948
0.00187683
0.00196407
0.00203202
0.00208144
0.0021131
0.00212769
0.00212587
0.00210825
0.0020753
0.0020274
0.0019648
0.00188758
0.00179564
0.0016886
0.00156581
0.00142619
0.00126803
0.00108892
0.000885282
0.000652496
0.000381462
0.000426014
5.23451e-06
5.23445e-06
5.23439e-06
5.23433e-06
5.23427e-06
5.2342e-06
5.23413e-06
5.23405e-06
5.23398e-06
5.23389e-06
5.23381e-06
5.23371e-06
5.23362e-06
5.23352e-06
5.23341e-06
5.23329e-06
5.23317e-06
5.23304e-06
5.23291e-06
5.23277e-06
5.23261e-06
5.23245e-06
5.23228e-06
5.2321e-06
5.23191e-06
5.2317e-06
5.23148e-06
5.23125e-06
5.231e-06
5.23074e-06
5.23046e-06
5.23017e-06
5.22985e-06
5.22951e-06
5.22915e-06
5.22876e-06
5.22835e-06
5.22791e-06
5.22744e-06
5.22693e-06
5.22639e-06
5.22581e-06
5.22519e-06
5.22452e-06
5.2238e-06
5.22303e-06
5.2222e-06
5.22131e-06
5.22035e-06
5.21932e-06
5.21821e-06
5.21701e-06
5.21572e-06
5.21434e-06
5.21286e-06
5.21128e-06
5.2096e-06
5.20806e-06
5.20749e-06
5.20817e-06
5.20886e-06
5.2083e-06
6.18593e-07
6.40096e-05
0.000238856
0.000472144
0.000721959
0.0009518
0.00115584
0.00133655
0.00149501
0.00163197
0.00174805
0.00184398
0.0019205
0.00197837
0.00201831
0.00204101
0.00204716
0.00203731
0.00201196
0.00197149
0.00191616
0.00184606
0.00176109
0.00166085
0.0015447
0.00141146
0.00125942
0.00108598
0.000887463
0.000658357
0.000388628
0.000435502
5.23457e-06
5.23452e-06
5.23446e-06
5.2344e-06
5.23434e-06
5.23428e-06
5.23421e-06
5.23414e-06
5.23407e-06
5.23399e-06
5.23391e-06
5.23382e-06
5.23373e-06
5.23363e-06
5.23353e-06