/*--------------------------------*- C++ -*----------------------------------*\
  =========                 |
  \\      /  F ield         | OpenFOAM: The Open Source CFD Toolbox
   \\    /   O peration     | Website:  https://openfoam.org
    \\  /    A nd           | Version:  7
     \\/     M anipulation  |
\*---------------------------------------------------------------------------*/
FoamFile
{
    version     2.0;
    format      ascii;
    class       volScalarField;
    location    "1400";
    object      nuTilda;
}
// * * * * * * * * * * * * * * * * * * * * * * * * * * * * * * * * * * * * * //

dimensions      [0 2 -1 0 0 0 0];

internalField   nonuniform List<scalar> 
23064
(
3.43222e-05
3.43246e-05
3.43222e-05
3.43268e-05
3.43246e-05
3.43222e-05
3.4329e-05
3.43268e-05
3.43246e-05
3.43222e-05
3.43312e-05
3.4329e-05
3.43268e-05
3.43245e-05
3.43222e-05
3.43332e-05
3.43311e-05
3.4329e-05
3.43268e-05
3.43245e-05
3.43222e-05
3.43352e-05
3.43332e-05
3.43311e-05
3.4329e-05
3.43268e-05
3.43245e-05
3.43222e-05
3.43371e-05
3.43352e-05
3.43331e-05
3.43311e-05
3.43289e-05
3.43267e-05
3.43245e-05
3.43222e-05
3.43389e-05
3.43371e-05
3.43351e-05
3.43331e-05
3.4331e-05
3.43289e-05
3.43267e-05
3.43245e-05
3.43222e-05
3.43407e-05
3.43389e-05
3.4337e-05
3.43351e-05
3.43331e-05
3.4331e-05
3.43289e-05
3.43267e-05
3.43245e-05
3.43222e-05
3.43424e-05
3.43407e-05
3.43389e-05
3.4337e-05
3.43351e-05
3.4333e-05
3.4331e-05
3.43288e-05
3.43267e-05
3.43244e-05
3.43222e-05
3.4344e-05
3.43424e-05
3.43406e-05
3.43389e-05
3.4337e-05
3.4335e-05
3.4333e-05
3.43309e-05
3.43288e-05
3.43266e-05
3.43244e-05
3.43222e-05
3.43455e-05
3.4344e-05
3.43423e-05
3.43406e-05
3.43388e-05
3.43369e-05
3.4335e-05
3.4333e-05
3.43309e-05
3.43288e-05
3.43266e-05
3.43244e-05
3.43222e-05
3.4347e-05
3.43455e-05
3.4344e-05
3.43423e-05
3.43406e-05
3.43388e-05
3.43369e-05
3.4335e-05
3.43329e-05
3.43309e-05
3.43287e-05
3.43266e-05
3.43244e-05
3.43222e-05
3.43484e-05
3.4347e-05
3.43455e-05
3.43439e-05
3.43423e-05
3.43406e-05
3.43388e-05
3.43369e-05
3.43349e-05
3.43329e-05
3.43308e-05
3.43287e-05
3.43265e-05
3.43244e-05
3.43221e-05
3.43498e-05
3.43484e-05
3.4347e-05
3.43455e-05
3.43439e-05
3.43423e-05
3.43405e-05
3.43387e-05
3.43368e-05
3.43349e-05
3.43329e-05
3.43308e-05
3.43286e-05
3.43265e-05
3.43243e-05
3.43221e-05
3.4351e-05
3.43498e-05
3.43484e-05
3.4347e-05
3.43455e-05
3.43439e-05
3.43423e-05
3.43405e-05
3.43387e-05
3.43368e-05
3.43348e-05
3.43328e-05
3.43307e-05
3.43286e-05
3.43265e-05
3.43243e-05
3.43221e-05
3.43523e-05
3.4351e-05
3.43498e-05
3.43484e-05
3.4347e-05
3.43455e-05
3.43439e-05
3.43422e-05
3.43405e-05
3.43387e-05
3.43368e-05
3.43348e-05
3.43328e-05
3.43307e-05
3.43285e-05
3.43264e-05
3.43243e-05
3.43221e-05
3.43534e-05
3.43523e-05
3.4351e-05
3.43498e-05
3.43484e-05
3.4347e-05
3.43455e-05
3.43439e-05
3.43422e-05
3.43405e-05
3.43386e-05
3.43367e-05
3.43348e-05
3.43327e-05
3.43306e-05
3.43285e-05
3.43264e-05
3.43242e-05
3.43221e-05
3.43545e-05
3.43534e-05
3.43523e-05
3.4351e-05
3.43498e-05
3.43484e-05
3.4347e-05
3.43455e-05
3.43439e-05
3.43422e-05
3.43404e-05
3.43386e-05
3.43367e-05
3.43347e-05
3.43327e-05
3.43306e-05
3.43284e-05
3.43263e-05
3.43242e-05
3.43221e-05
3.43556e-05
3.43545e-05
3.43534e-05
3.43523e-05
3.43511e-05
3.43498e-05
3.43484e-05
3.4347e-05
3.43454e-05
3.43438e-05
3.43422e-05
3.43404e-05
3.43386e-05
3.43367e-05
3.43347e-05
3.43326e-05
3.43305e-05
3.43284e-05
3.43263e-05
3.43242e-05
3.43221e-05
3.43566e-05
3.43556e-05
3.43545e-05
3.43534e-05
3.43523e-05
3.43511e-05
3.43498e-05
3.43484e-05
3.43469e-05
3.43454e-05
3.43438e-05
3.43421e-05
3.43404e-05
3.43385e-05
3.43366e-05
3.43346e-05
3.43326e-05
3.43305e-05
3.43283e-05
3.43262e-05
3.43241e-05
3.43221e-05
3.43575e-05
3.43566e-05
3.43556e-05
3.43546e-05
3.43535e-05
3.43523e-05
3.43511e-05
3.43498e-05
3.43484e-05
3.43469e-05
3.43454e-05
3.43438e-05
3.43421e-05
3.43403e-05
3.43385e-05
3.43366e-05
3.43346e-05
3.43325e-05
3.43304e-05
3.43283e-05
3.43262e-05
3.43241e-05
3.43221e-05
3.43584e-05
3.43575e-05
3.43566e-05
3.43556e-05
3.43546e-05
3.43535e-05
3.43523e-05
3.43511e-05
3.43498e-05
3.43484e-05
3.43469e-05
3.43454e-05
3.43438e-05
3.43421e-05
3.43403e-05
3.43384e-05
3.43365e-05
3.43345e-05
3.43324e-05
3.43303e-05
3.43282e-05
3.43261e-05
3.43241e-05
3.4322e-05
3.43593e-05
3.43584e-05
3.43576e-05
3.43566e-05
3.43556e-05
3.43546e-05
3.43535e-05
3.43523e-05
3.43511e-05
3.43498e-05
3.43484e-05
3.43469e-05
3.43454e-05
3.43438e-05
3.43421e-05
3.43403e-05
3.43384e-05
3.43365e-05
3.43345e-05
3.43324e-05
3.43303e-05
3.43282e-05
3.43261e-05
3.4324e-05
3.4322e-05
3.43601e-05
3.43593e-05
3.43585e-05
3.43576e-05
3.43566e-05
3.43556e-05
3.43546e-05
3.43535e-05
3.43523e-05
3.43511e-05
3.43498e-05
3.43484e-05
3.43469e-05
3.43454e-05
3.43437e-05
3.4342e-05
3.43402e-05
3.43384e-05
3.43364e-05
3.43344e-05
3.43323e-05
3.43302e-05
3.43281e-05
3.4326e-05
3.4324e-05
3.4322e-05
3.43609e-05
3.43601e-05
3.43593e-05
3.43585e-05
3.43576e-05
3.43567e-05
3.43557e-05
3.43546e-05
3.43535e-05
3.43523e-05
3.43511e-05
3.43498e-05
3.43484e-05
3.43469e-05
3.43453e-05
3.43437e-05
3.4342e-05
3.43402e-05
3.43383e-05
3.43364e-05
3.43343e-05
3.43322e-05
3.43301e-05
3.4328e-05
3.43259e-05
3.43239e-05
3.4322e-05
3.43616e-05
3.43609e-05
3.43601e-05
3.43593e-05
3.43585e-05
3.43576e-05
3.43567e-05
3.43557e-05
3.43546e-05
3.43535e-05
3.43523e-05
3.43511e-05
3.43498e-05
3.43484e-05
3.43469e-05
3.43453e-05
3.43437e-05
3.4342e-05
3.43402e-05
3.43383e-05
3.43363e-05
3.43343e-05
3.43322e-05
3.43301e-05
3.43279e-05
3.43259e-05
3.43239e-05
3.4322e-05
3.43623e-05
3.43616e-05
3.43609e-05
3.43602e-05
3.43594e-05
3.43585e-05
3.43576e-05
3.43567e-05
3.43557e-05
3.43546e-05
3.43535e-05
3.43523e-05
3.43511e-05
3.43498e-05
3.43484e-05
3.43469e-05
3.43453e-05
3.43437e-05
3.43419e-05
3.43401e-05
3.43382e-05
3.43362e-05
3.43342e-05
3.43321e-05
3.433e-05
3.43279e-05
3.43258e-05
3.43238e-05
3.4322e-05
3.4363e-05
3.43623e-05
3.43616e-05
3.43609e-05
3.43602e-05
3.43594e-05
3.43585e-05
3.43577e-05
3.43567e-05
3.43557e-05
3.43546e-05
3.43535e-05
3.43523e-05
3.43511e-05
3.43498e-05
3.43483e-05
3.43469e-05
3.43453e-05
3.43436e-05
3.43419e-05
3.43401e-05
3.43382e-05
3.43362e-05
3.43341e-05
3.4332e-05
3.43299e-05
3.43278e-05
3.43257e-05
3.43238e-05
3.43219e-05
3.43636e-05
3.4363e-05
3.43623e-05
3.43617e-05
3.4361e-05
3.43602e-05
3.43594e-05
3.43586e-05
3.43577e-05
3.43567e-05
3.43557e-05
3.43547e-05
3.43535e-05
3.43523e-05
3.43511e-05
3.43498e-05
3.43483e-05
3.43469e-05
3.43453e-05
3.43436e-05
3.43419e-05
3.434e-05
3.43381e-05
3.43361e-05
3.43341e-05
3.43319e-05
3.43298e-05
3.43277e-05
3.43256e-05
3.43237e-05
3.43219e-05
0.000270391
3.43642e-05
3.43636e-05
3.4363e-05
3.43624e-05
3.43617e-05
3.4361e-05
3.43602e-05
3.43594e-05
3.43586e-05
3.43577e-05
3.43567e-05
3.43557e-05
3.43547e-05
3.43536e-05
3.43524e-05
3.43511e-05
3.43498e-05
3.43483e-05
3.43468e-05
3.43453e-05
3.43436e-05
3.43418e-05
3.434e-05
3.43381e-05
3.43361e-05
3.4334e-05
3.43319e-05
3.43297e-05
3.43276e-05
3.43255e-05
3.43236e-05
3.43219e-05
0.000290114
0.000274335
3.43647e-05
3.43642e-05
3.43636e-05
3.4363e-05
3.43624e-05
3.43617e-05
3.4361e-05
3.43603e-05
3.43595e-05
3.43586e-05
3.43577e-05
3.43568e-05
3.43558e-05
3.43547e-05
3.43536e-05
3.43524e-05
3.43511e-05
3.43498e-05
3.43483e-05
3.43468e-05
3.43452e-05
3.43436e-05
3.43418e-05
3.43399e-05
3.4338e-05
3.4336e-05
3.43339e-05
3.43318e-05
3.43296e-05
3.43275e-05
3.43254e-05
3.43236e-05
3.43218e-05
0.000534023
0.000292101
0.000278246
3.43653e-05
3.43648e-05
3.43642e-05
3.43637e-05
3.43631e-05
3.43624e-05
3.43618e-05
3.4361e-05
3.43603e-05
3.43595e-05
3.43586e-05
3.43577e-05
3.43568e-05
3.43558e-05
3.43547e-05
3.43536e-05
3.43524e-05
3.43511e-05
3.43498e-05
3.43483e-05
3.43468e-05
3.43452e-05
3.43435e-05
3.43418e-05
3.43399e-05
3.4338e-05
3.43359e-05
3.43338e-05
3.43317e-05
3.43295e-05
3.43274e-05
3.43254e-05
3.43235e-05
3.43218e-05
0.000782255
0.000537403
0.000294122
0.00028222
3.43658e-05
3.43653e-05
3.43648e-05
3.43643e-05
3.43637e-05
3.43631e-05
3.43625e-05
3.43618e-05
3.43611e-05
3.43603e-05
3.43595e-05
3.43587e-05
3.43578e-05
3.43568e-05
3.43558e-05
3.43547e-05
3.43536e-05
3.43524e-05
3.43511e-05
3.43498e-05
3.43483e-05
3.43468e-05
3.43452e-05
3.43435e-05
3.43417e-05
3.43398e-05
3.43379e-05
3.43358e-05
3.43337e-05
3.43316e-05
3.43294e-05
3.43273e-05
3.43252e-05
3.43234e-05
3.43218e-05
0.00103632
0.000786244
0.000540837
0.000296112
0.000286212
3.43663e-05
3.43658e-05
3.43653e-05
3.43648e-05
3.43643e-05
3.43637e-05
3.43631e-05
3.43625e-05
3.43618e-05
3.43611e-05
3.43603e-05
3.43595e-05
3.43587e-05
3.43578e-05
3.43568e-05
3.43558e-05
3.43547e-05
3.43536e-05
3.43524e-05
3.43511e-05
3.43498e-05
3.43483e-05
3.43468e-05
3.43452e-05
3.43435e-05
3.43417e-05
3.43398e-05
3.43378e-05
3.43358e-05
3.43336e-05
3.43315e-05
3.43293e-05
3.43272e-05
3.43251e-05
3.43233e-05
3.43217e-05
0.00128645
0.00104
0.000790234
0.000544191
0.000298211
0.0002902
3.43667e-05
3.43663e-05
3.43658e-05
3.43654e-05
3.43649e-05
3.43643e-05
3.43638e-05
3.43632e-05
3.43625e-05
3.43618e-05
3.43611e-05
3.43604e-05
3.43596e-05
3.43587e-05
3.43578e-05
3.43569e-05
3.43558e-05
3.43548e-05
3.43536e-05
3.43524e-05
3.43511e-05
3.43498e-05
3.43483e-05
3.43468e-05
3.43452e-05
3.43434e-05
3.43416e-05
3.43397e-05
3.43378e-05
3.43357e-05
3.43336e-05
3.43314e-05
3.43292e-05
3.4327e-05
3.4325e-05
3.43232e-05
3.43217e-05
0.00152656
0.00128892
0.00104365
0.000794259
0.000547764
0.000300329
0.000294256
3.43672e-05
3.43668e-05
3.43663e-05
3.43659e-05
3.43654e-05
3.43649e-05
3.43644e-05
3.43638e-05
3.43632e-05
3.43625e-05
3.43619e-05
3.43612e-05
3.43604e-05
3.43596e-05
3.43587e-05
3.43578e-05
3.43569e-05
3.43559e-05
3.43548e-05
3.43536e-05
3.43524e-05
3.43511e-05
3.43498e-05
3.43483e-05
3.43468e-05
3.43451e-05
3.43434e-05
3.43416e-05
3.43397e-05
3.43377e-05
3.43356e-05
3.43335e-05
3.43313e-05
3.43291e-05
3.43269e-05
3.43249e-05
3.43231e-05
3.43217e-05
0.00175337
0.00152703
0.00129126
0.00104725
0.000798359
0.00055118
0.000302475
0.000298314
3.43676e-05
3.43672e-05
3.43668e-05
3.43664e-05
3.43659e-05
3.43654e-05
3.43649e-05
3.43644e-05
3.43638e-05
3.43632e-05
3.43626e-05
3.43619e-05
3.43612e-05
3.43604e-05
3.43596e-05
3.43588e-05
3.43579e-05
3.43569e-05
3.43559e-05
3.43548e-05
3.43536e-05
3.43524e-05
3.43511e-05
3.43498e-05
3.43483e-05
3.43467e-05
3.43451e-05
3.43434e-05
3.43416e-05
3.43396e-05
3.43376e-05
3.43355e-05
3.43334e-05
3.43311e-05
3.43289e-05
3.43268e-05
3.43248e-05
3.4323e-05
3.43216e-05
0.00196522
0.00175121
0.00152728
0.00129349
0.00105085
0.000802311
0.000554799
0.000304686
0.000302461
3.4368e-05
3.43676e-05
3.43672e-05
3.43668e-05
3.43664e-05
3.43659e-05
3.43655e-05
3.4365e-05
3.43644e-05
3.43639e-05
3.43632e-05
3.43626e-05
3.43619e-05
3.43612e-05
3.43605e-05
3.43597e-05
3.43588e-05
3.43579e-05
3.43569e-05
3.43559e-05
3.43548e-05
3.43537e-05
3.43524e-05
3.43511e-05
3.43498e-05
3.43483e-05
3.43467e-05
3.43451e-05
3.43434e-05
3.43415e-05
3.43396e-05
3.43376e-05
3.43354e-05
3.43333e-05
3.4331e-05
3.43288e-05
3.43266e-05
3.43246e-05
3.43229e-05
3.43216e-05
0.0021611
0.00195992
0.00174875
0.00152731
0.00129558
0.00105429
0.000806386
0.000558392
0.000306825
0.000306625
3.43683e-05
3.4368e-05
3.43676e-05
3.43672e-05
3.43668e-05
3.43664e-05
3.4366e-05
3.43655e-05
3.4365e-05
3.43645e-05
3.43639e-05
3.43633e-05
3.43626e-05
3.4362e-05
3.43613e-05
3.43605e-05
3.43597e-05
3.43588e-05
3.43579e-05
3.4357e-05
3.43559e-05
3.43548e-05
3.43537e-05
3.43525e-05
3.43511e-05
3.43498e-05
3.43483e-05
3.43467e-05
3.43451e-05
3.43433e-05
3.43415e-05
3.43395e-05
3.43375e-05
3.43354e-05
3.43331e-05
3.43309e-05
3.43287e-05
3.43265e-05
3.43245e-05
3.43228e-05
3.43215e-05
0.00234014
0.00215217
0.00195422
0.00174597
0.00152712
0.00129746
0.00105772
0.000810422
0.000561994
0.000309176
0.000310825
3.43687e-05
3.43684e-05
3.4368e-05
3.43677e-05
3.43673e-05
3.43669e-05
3.43665e-05
3.4366e-05
3.43655e-05
3.4365e-05
3.43645e-05
3.43639e-05
3.43633e-05
3.43627e-05
3.4362e-05
3.43613e-05
3.43605e-05
3.43597e-05
3.43589e-05
3.4358e-05
3.4357e-05
3.4356e-05
3.43549e-05
3.43537e-05
3.43525e-05
3.43512e-05
3.43498e-05
3.43483e-05
3.43467e-05
3.4345e-05
3.43433e-05
3.43414e-05
3.43395e-05
3.43374e-05
3.43353e-05
3.4333e-05
3.43308e-05
3.43285e-05
3.43263e-05
3.43243e-05
3.43226e-05
3.43214e-05
0.00250146
0.00232714
0.00214276
0.00194811
0.00174286
0.00152662
0.00129922
0.00106103
0.000814508
0.000565837
0.00031149
0.000315133
3.4369e-05
3.43687e-05
3.43684e-05
3.4368e-05
3.43677e-05
3.43673e-05
3.43669e-05
3.43665e-05
3.4366e-05
3.43656e-05
3.43651e-05
3.43645e-05
3.4364e-05
3.43634e-05
3.43627e-05
3.4362e-05
3.43613e-05
3.43606e-05
3.43598e-05
3.43589e-05
3.4358e-05
3.4357e-05
3.4356e-05
3.43549e-05
3.43537e-05
3.43525e-05
3.43512e-05
3.43498e-05
3.43483e-05
3.43467e-05
3.4345e-05
3.43433e-05
3.43414e-05
3.43394e-05
3.43373e-05
3.43352e-05
3.43329e-05
3.43306e-05
3.43284e-05
3.43262e-05
3.43242e-05
3.43225e-05
3.43214e-05
0.00264409
0.00248394
0.00231355
0.00213284
0.00194155
0.00173935
0.00152589
0.00130073
0.00106431
0.000818671
0.0005695
0.000313906
0.000319513
3.43693e-05
3.4369e-05
3.43687e-05
3.43684e-05
3.43681e-05
3.43677e-05
3.43673e-05
3.43669e-05
3.43665e-05
3.43661e-05
3.43656e-05
3.43651e-05
3.43646e-05
3.4364e-05
3.43634e-05
3.43628e-05
3.43621e-05
3.43614e-05
3.43606e-05
3.43598e-05
3.43589e-05
3.4358e-05
3.4357e-05
3.4356e-05
3.43549e-05
3.43537e-05
3.43525e-05
3.43512e-05
3.43498e-05
3.43483e-05
3.43467e-05
3.4345e-05
3.43432e-05
3.43413e-05
3.43393e-05
3.43372e-05
3.43351e-05
3.43328e-05
3.43305e-05
3.43282e-05
3.4326e-05
3.4324e-05
3.43224e-05
3.43213e-05
0.00276686
0.00262156
0.00246569
0.00229932
0.00212233
0.00193449
0.00173551
0.00152479
0.00130211
0.00106751
0.000822667
0.000573352
0.000316406
0.000323925
3.43696e-05
3.43694e-05
3.43691e-05
3.43688e-05
3.43684e-05
3.43681e-05
3.43678e-05
3.43674e-05
3.4367e-05
3.43666e-05
3.43661e-05
3.43656e-05
3.43651e-05
3.43646e-05
3.4364e-05
3.43634e-05
3.43628e-05
3.43621e-05
3.43614e-05
3.43606e-05
3.43598e-05
3.4359e-05
3.4358e-05
3.43571e-05
3.4356e-05
3.43549e-05
3.43538e-05
3.43525e-05
3.43512e-05
3.43498e-05
3.43483e-05
3.43467e-05
3.4345e-05
3.43432e-05
3.43413e-05
3.43393e-05
3.43372e-05
3.4335e-05
3.43327e-05
3.43303e-05
3.4328e-05
3.43258e-05
3.43238e-05
3.43222e-05
3.43212e-05
0.00286849
0.00273881
0.00259815
0.00244666
0.0022844
0.00211122
0.00192698
0.00173118
0.00152348
0.00130329
0.00107053
0.000826798
0.000577296
0.000318989
0.000328484
3.43699e-05
3.43697e-05
3.43694e-05
3.43691e-05
3.43688e-05
3.43685e-05
3.43681e-05
3.43678e-05
3.43674e-05
3.4367e-05
3.43666e-05
3.43661e-05
3.43657e-05
3.43652e-05
3.43646e-05
3.43641e-05
3.43635e-05
3.43628e-05
3.43622e-05
3.43614e-05
3.43607e-05
3.43599e-05
3.4359e-05
3.43581e-05
3.43571e-05
3.43561e-05
3.4355e-05
3.43538e-05
3.43525e-05
3.43512e-05
3.43498e-05
3.43483e-05
3.43467e-05
3.4345e-05
3.43432e-05
3.43412e-05
3.43392e-05
3.43371e-05
3.43349e-05
3.43325e-05
3.43302e-05
3.43278e-05
3.43256e-05
3.43236e-05
3.4322e-05
3.43211e-05
0.00294753
0.00283437
0.00270971
0.0025738
0.00242679
0.00226871
0.00209951
0.00191885
0.00172649
0.00152179
0.00130418
0.00107351
0.000830919
0.000581269
0.000321625
0.000333174
3.43702e-05
3.43699e-05
3.43697e-05
3.43694e-05
3.43691e-05
3.43688e-05
3.43685e-05
3.43682e-05
3.43678e-05
3.43674e-05
3.4367e-05
3.43666e-05
3.43662e-05
3.43657e-05
3.43652e-05
3.43647e-05
3.43641e-05
3.43635e-05
3.43629e-05
3.43622e-05
3.43615e-05
3.43607e-05
3.43599e-05
3.4359e-05
3.43581e-05
3.43571e-05
3.43561e-05
3.4355e-05
3.43538e-05
3.43525e-05
3.43512e-05
3.43498e-05
3.43483e-05
3.43467e-05
3.43449e-05
3.43431e-05
3.43412e-05
3.43391e-05
3.4337e-05
3.43347e-05
3.43324e-05
3.433e-05
3.43277e-05
3.43254e-05
3.43234e-05
3.43218e-05
3.43211e-05
0.00300238
0.00290679
0.00279906
0.00267952
0.00254845
0.002406
0.00225225
0.00208703
0.0019102
0.0017213
0.00151971
0.00130489
0.00107635
0.000834965
0.000585231
0.000324365
0.000337879
3.43704e-05
3.43702e-05
3.437e-05
3.43697e-05
3.43694e-05
3.43692e-05
3.43689e-05
3.43685e-05
3.43682e-05
3.43679e-05
3.43675e-05
3.43671e-05
3.43667e-05
3.43662e-05
3.43657e-05
3.43652e-05
3.43647e-05
3.43641e-05
3.43635e-05
3.43629e-05
3.43622e-05
3.43615e-05
3.43607e-05
3.43599e-05
3.43591e-05
3.43582e-05
3.43572e-05
3.43561e-05
3.4355e-05
3.43538e-05
3.43526e-05
3.43512e-05
3.43498e-05
3.43483e-05
3.43466e-05
3.43449e-05
3.43431e-05
3.43411e-05
3.43391e-05
3.43369e-05
3.43346e-05
3.43323e-05
3.43299e-05
3.43275e-05
3.43252e-05
3.43232e-05
3.43217e-05
3.43211e-05
0.00303127
0.00295443
0.00286467
0.00276245
0.00264814
0.00252201
0.00238426
0.00223488
0.00207386
0.0019009
0.00171556
0.00151729
0.0013053
0.00107902
0.000839029
0.000589557
0.000327228
0.000342716
3.43707e-05
3.43705e-05
3.43702e-05
3.437e-05
3.43697e-05
3.43695e-05
3.43692e-05
3.43689e-05
3.43686e-05
3.43682e-05
3.43679e-05
3.43675e-05
3.43671e-05
3.43667e-05
3.43663e-05
3.43658e-05
3.43653e-05
3.43647e-05
3.43642e-05
3.43636e-05
3.43629e-05
3.43623e-05
3.43616e-05
3.43608e-05
3.436e-05
3.43591e-05
3.43582e-05
3.43572e-05
3.43562e-05
3.4355e-05
3.43539e-05
3.43526e-05
3.43512e-05
3.43498e-05
3.43483e-05
3.43466e-05
3.43449e-05
3.4343e-05
3.43411e-05
3.4339e-05
3.43368e-05
3.43345e-05
3.43321e-05
3.43297e-05
3.43273e-05
3.43249e-05
3.43229e-05
3.43216e-05
3.43212e-05
0.00303228
0.00297548
0.00290487
0.00282103
0.00272444
0.00261546
0.00249442
0.00236143
0.00221664
0.00205987
0.0018909
0.00170931
0.00151441
0.00130539
0.00108157
0.000843226
0.000593784
0.000330195
0.000347739
3.43709e-05
3.43707e-05
3.43705e-05
3.43703e-05
3.437e-05
3.43698e-05
3.43695e-05
3.43692e-05
3.43689e-05
3.43686e-05
3.43683e-05
3.43679e-05
3.43675e-05
3.43672e-05
3.43667e-05
3.43663e-05
3.43658e-05
3.43653e-05
3.43648e-05
3.43642e-05
3.43636e-05
3.4363e-05
3.43623e-05
3.43616e-05
3.43608e-05
3.436e-05
3.43592e-05
3.43582e-05
3.43572e-05
3.43562e-05
3.43551e-05
3.43539e-05
3.43526e-05
3.43513e-05
3.43498e-05
3.43483e-05
3.43466e-05
3.43449e-05
3.4343e-05
3.4341e-05
3.43389e-05
3.43367e-05
3.43344e-05
3.4332e-05
3.43295e-05
3.4327e-05
3.43247e-05
3.43227e-05
3.43215e-05
3.43213e-05
0.00300334
0.00296798
0.00291784
0.00285358
0.00277578
0.00268492
0.00258142
0.00246555
0.00233752
0.00219738
0.002045
0.00188018
0.00170244
0.00151105
0.00130521
0.001084
0.000847236
0.000598004
0.000333315
0.000352915
3.43711e-05
3.43709e-05
3.43707e-05
3.43705e-05
3.43703e-05
3.437e-05
3.43698e-05
3.43695e-05
3.43693e-05
3.4369e-05
3.43686e-05
3.43683e-05
3.4368e-05
3.43676e-05
3.43672e-05
3.43668e-05
3.43663e-05
3.43659e-05
3.43654e-05
3.43648e-05
3.43643e-05
3.43637e-05
3.4363e-05
3.43624e-05
3.43616e-05
3.43609e-05
3.43601e-05
3.43592e-05
3.43583e-05
3.43573e-05
3.43562e-05
3.43551e-05
3.43539e-05
3.43526e-05
3.43513e-05
3.43498e-05
3.43483e-05
3.43466e-05
3.43449e-05
3.4343e-05
3.4341e-05
3.43389e-05
3.43366e-05
3.43343e-05
3.43318e-05
3.43293e-05
3.43268e-05
3.43244e-05
3.43225e-05
3.43216e-05
3.43214e-05
0.00294223
0.00292984
0.00290159
0.00285823
0.00280043
0.00272879
0.0026438
0.00254588
0.00243535
0.00231238
0.00217702
0.00202921
0.00186867
0.00169489
0.00150723
0.00130468
0.00108612
0.000851186
0.000602472
0.000336574
0.000358264
3.43713e-05
3.43711e-05
3.4371e-05
3.43708e-05
3.43705e-05
3.43703e-05
3.43701e-05
3.43698e-05
3.43696e-05
3.43693e-05
3.4369e-05
3.43687e-05
3.43683e-05
3.4368e-05
3.43676e-05
3.43672e-05
3.43668e-05
3.43664e-05
3.43659e-05
3.43654e-05
3.43649e-05
3.43643e-05
3.43637e-05
3.43631e-05
3.43624e-05
3.43617e-05
3.43609e-05
3.43601e-05
3.43592e-05
3.43583e-05
3.43573e-05
3.43563e-05
3.43551e-05
3.43539e-05
3.43527e-05
3.43513e-05
3.43498e-05
3.43483e-05
3.43466e-05
3.43448e-05
3.43429e-05
3.43409e-05
3.43388e-05
3.43365e-05
3.43341e-05
3.43317e-05
3.43291e-05
3.43266e-05
3.43242e-05
3.43222e-05
3.43216e-05
3.43215e-05
0.00284665
0.00285883
0.00285399
0.00283296
0.00279649
0.00274528
0.00267992
0.00260094
0.00250875
0.00240368
0.0022859
0.0021555
0.0020124
0.00185627
0.00168668
0.00150284
0.00130367
0.00108801
0.000855195
0.00060702
0.000340001
0.0003638
3.43715e-05
3.43714e-05
3.43712e-05
3.4371e-05
3.43708e-05
3.43706e-05
3.43703e-05
3.43701e-05
3.43699e-05
3.43696e-05
3.43693e-05
3.4369e-05
3.43687e-05
3.43684e-05
3.4368e-05
3.43677e-05
3.43673e-05
3.43669e-05
3.43664e-05
3.43659e-05
3.43654e-05
3.43649e-05
3.43644e-05
3.43638e-05
3.43631e-05
3.43625e-05
3.43617e-05
3.4361e-05
3.43602e-05
3.43593e-05
3.43584e-05
3.43574e-05
3.43563e-05
3.43552e-05
3.4354e-05
3.43527e-05
3.43513e-05
3.43498e-05
3.43483e-05
3.43466e-05
3.43448e-05
3.43429e-05
3.43409e-05
3.43387e-05
3.43364e-05
3.4334e-05
3.43315e-05
3.43289e-05
3.43263e-05
3.43239e-05
3.43221e-05
3.43218e-05
3.43217e-05
0.00271425
0.00275264
0.0027728
0.00277562
0.00276192
0.00273248
0.00268797
0.00262904
0.0025562
0.00246988
0.00237041
0.00225799
0.00213271
0.00199445
0.00184294
0.00167768
0.00149779
0.00130225
0.00108973
0.000859117
0.000611677
0.000343609
0.000369493
3.43717e-05
3.43715e-05
3.43714e-05
3.43712e-05
3.4371e-05
3.43708e-05
3.43706e-05
3.43704e-05
3.43701e-05
3.43699e-05
3.43696e-05
3.43694e-05
3.43691e-05
3.43687e-05
3.43684e-05
3.43681e-05
3.43677e-05
3.43673e-05
3.43669e-05
3.43665e-05
3.4366e-05
3.43655e-05
3.4365e-05
3.43644e-05
3.43638e-05
3.43632e-05
3.43625e-05
3.43618e-05
3.4361e-05
3.43602e-05
3.43593e-05
3.43584e-05
3.43574e-05
3.43563e-05
3.43552e-05
3.4354e-05
3.43527e-05
3.43513e-05
3.43499e-05
3.43483e-05
3.43466e-05
3.43448e-05
3.43429e-05
3.43408e-05
3.43386e-05
3.43363e-05
3.43339e-05
3.43313e-05
3.43287e-05
3.43261e-05
3.43236e-05
3.4322e-05
3.4322e-05
3.43219e-05
0.00254266
0.00260893
0.00265571
0.00268396
0.00269454
0.0026883
0.00266599
0.00262834
0.00257596
0.00250941
0.00242911
0.00233542
0.00222853
0.00210852
0.0019753
0.00182858
0.00166777
0.00149209
0.00130042
0.00109115
0.000862993
0.00061646
0.000347446
0.000375496
3.43719e-05
3.43717e-05
3.43716e-05
3.43714e-05
3.43712e-05
3.4371e-05
3.43708e-05
3.43706e-05
3.43704e-05
3.43702e-05
3.43699e-05
3.43697e-05
3.43694e-05
3.43691e-05
3.43688e-05
3.43685e-05
3.43681e-05
3.43677e-05
3.43674e-05
3.43669e-05
3.43665e-05
3.4366e-05
3.43655e-05
3.4365e-05
3.43645e-05
3.43639e-05
3.43632e-05
3.43625e-05
3.43618e-05
3.43611e-05
3.43602e-05
3.43594e-05
3.43584e-05
3.43574e-05
3.43564e-05
3.43553e-05
3.4354e-05
3.43527e-05
3.43514e-05
3.43499e-05
3.43483e-05
3.43466e-05
3.43448e-05
3.43428e-05
3.43408e-05
3.43386e-05
3.43362e-05
3.43337e-05
3.43311e-05
3.43285e-05
3.43258e-05
3.43233e-05
3.4322e-05
3.43223e-05
3.43221e-05
0.00232965
0.00242538
0.0025004
0.00255568
0.0025921
0.00261056
0.00261189
0.00259686
0.00256619
0.00252053
0.00246042
0.00238631
0.00229856
0.00219738
0.00208284
0.00195483
0.00181305
0.00165695
0.00148573
0.00129803
0.00109227
0.000866741
0.000621317
0.00035147
0.000381806
3.43721e-05
3.43719e-05
3.43718e-05
3.43716e-05
3.43714e-05
3.43712e-05
3.43711e-05
3.43709e-05
3.43707e-05
3.43704e-05
3.43702e-05
3.437e-05
3.43697e-05
3.43694e-05
3.43691e-05
3.43688e-05
3.43685e-05
3.43682e-05
3.43678e-05
3.43674e-05
3.4367e-05
3.43665e-05
3.43661e-05
3.43656e-05
3.43651e-05
3.43645e-05
3.43639e-05
3.43633e-05
3.43626e-05
3.43619e-05
3.43611e-05
3.43603e-05
3.43594e-05
3.43585e-05
3.43575e-05
3.43564e-05
3.43553e-05
3.43541e-05
3.43528e-05
3.43514e-05
3.43499e-05
3.43483e-05
3.43466e-05
3.43448e-05
3.43428e-05
3.43407e-05
3.43385e-05
3.43361e-05
3.43336e-05
3.4331e-05
3.43283e-05
3.43255e-05
3.43231e-05
3.43221e-05
3.43226e-05
3.43223e-05
0.00207327
0.00219986
0.00230464
0.0023885
0.00245232
0.00249701
0.00252346
0.00253247
0.00252486
0.00250133
0.00246253
0.00240904
0.00234129
0.00225967
0.00216438
0.0020555
0.00193291
0.0017963
0.00164517
0.00147849
0.00129505
0.001093
0.000870341
0.000626175
0.000355786
0.000388364
3.43722e-05
3.43721e-05
3.43719e-05
3.43718e-05
3.43716e-05
3.43714e-05
3.43713e-05
3.43711e-05
3.43709e-05
3.43707e-05
3.43705e-05
3.43702e-05
3.437e-05
3.43697e-05
3.43695e-05
3.43692e-05
3.43689e-05
3.43685e-05
3.43682e-05
3.43678e-05
3.43674e-05
3.4367e-05
3.43666e-05
3.43661e-05
3.43656e-05
3.43651e-05
3.43646e-05
3.4364e-05
3.43633e-05
3.43627e-05
3.43619e-05
3.43612e-05
3.43603e-05
3.43595e-05
3.43585e-05
3.43575e-05
3.43565e-05
3.43553e-05
3.43541e-05
3.43528e-05
3.43514e-05
3.43499e-05
3.43483e-05
3.43466e-05
3.43447e-05
3.43428e-05
3.43407e-05
3.43384e-05
3.4336e-05
3.43335e-05
3.43308e-05
3.4328e-05
3.43252e-05
3.43228e-05
3.43223e-05
3.43229e-05
3.43225e-05
0.00177197
0.00193057
0.00206639
0.00218027
0.00227295
0.00234539
0.00239845
0.00243299
0.00244982
0.00244977
0.00243353
0.00240177
0.00235506
0.00229387
0.00221857
0.00212937
0.00202635
0.00190939
0.00177823
0.00163218
0.00147037
0.00129136
0.00109329
0.000873803
0.000631422
0.000360389
0.000395197
3.43724e-05
3.43722e-05
3.43721e-05
3.43719e-05
3.43718e-05
3.43716e-05
3.43715e-05
3.43713e-05
3.43711e-05
3.43709e-05
3.43707e-05
3.43705e-05
3.43703e-05
3.437e-05
3.43698e-05
3.43695e-05
3.43692e-05
3.43689e-05
3.43686e-05
3.43682e-05
3.43679e-05
3.43675e-05
3.43671e-05
3.43666e-05
3.43662e-05
3.43657e-05
3.43652e-05
3.43646e-05
3.4364e-05
3.43634e-05
3.43627e-05
3.4362e-05
3.43612e-05
3.43604e-05
3.43595e-05
3.43586e-05
3.43576e-05
3.43565e-05
3.43554e-05
3.43542e-05
3.43528e-05
3.43514e-05
3.43499e-05
3.43483e-05
3.43466e-05
3.43447e-05
3.43427e-05
3.43406e-05
3.43383e-05
3.43359e-05
3.43333e-05
3.43306e-05
3.43278e-05
3.43249e-05
3.43227e-05
3.43225e-05
3.43233e-05
3.43228e-05
0.00142479
0.00161623
0.00178408
0.00192911
0.00205197
0.00215355
0.00223467
0.00229617
0.00233889
0.00236369
0.00237132
0.00236255
0.002338
0.00229827
0.00224383
0.00217505
0.00209215
0.00199521
0.00188415
0.00175858
0.00161794
0.0014612
0.00128693
0.00109313
0.000877221
0.000636699
0.000365354
0.000402443
3.43725e-05
3.43724e-05
3.43722e-05
3.43721e-05
3.4372e-05
3.43718e-05
3.43717e-05
3.43715e-05
3.43713e-05
3.43711e-05
3.43709e-05
3.43707e-05
3.43705e-05
3.43703e-05
3.43701e-05
3.43698e-05
3.43695e-05
3.43692e-05
3.43689e-05
3.43686e-05
3.43683e-05
3.43679e-05
3.43675e-05
3.43671e-05
3.43667e-05
3.43662e-05
3.43657e-05
3.43652e-05
3.43647e-05
3.43641e-05
3.43634e-05
3.43628e-05
3.4362e-05
3.43613e-05
3.43605e-05
3.43596e-05
3.43586e-05
3.43576e-05
3.43566e-05
3.43554e-05
3.43542e-05
3.43529e-05
3.43515e-05
3.435e-05
3.43483e-05
3.43466e-05
3.43447e-05
3.43427e-05
3.43406e-05
3.43382e-05
3.43358e-05
3.43332e-05
3.43304e-05
3.43275e-05
3.43246e-05
3.43226e-05
3.43228e-05
3.43238e-05
3.43231e-05
0.00103067
0.00125602
0.00145661
0.00163362
0.00178767
0.00191959
0.00203004
0.00211986
0.00218987
0.00224091
0.00227378
0.00228928
0.00228812
0.00227097
0.00223841
0.00219092
0.00212887
0.0020525
0.0019619
0.00185693
0.00173726
0.00160225
0.00145089
0.00128167
0.0010925
0.000880331
0.000642055
0.000370743
0.000410248
3.43726e-05
3.43725e-05
3.43724e-05
3.43723e-05
3.43721e-05
3.4372e-05
3.43718e-05
3.43717e-05
3.43715e-05
3.43713e-05
3.43712e-05
3.4371e-05
3.43708e-05
3.43706e-05
3.43703e-05
3.43701e-05
3.43698e-05
3.43696e-05
3.43693e-05
3.4369e-05
3.43687e-05
3.43683e-05
3.4368e-05
3.43676e-05
3.43672e-05
3.43667e-05
3.43663e-05
3.43658e-05
3.43653e-05
3.43647e-05
3.43641e-05
3.43635e-05
3.43628e-05
3.43621e-05
3.43613e-05
3.43605e-05
3.43596e-05
3.43587e-05
3.43577e-05
3.43566e-05
3.43555e-05
3.43542e-05
3.43529e-05
3.43515e-05
3.435e-05
3.43484e-05
3.43466e-05
3.43447e-05
3.43427e-05
3.43405e-05
3.43382e-05
3.43357e-05
3.4333e-05
3.43302e-05
3.43272e-05
3.43243e-05
3.43225e-05
3.43231e-05
3.43242e-05
3.43234e-05
0.000586477
0.000847481
0.00108319
0.00129294
0.00147891
0.00164198
0.00178281
0.00190213
0.00200069
0.00207931
0.00213874
0.00217983
0.00220333
0.00220996
0.00220039
0.00217519
0.00213487
0.00207978
0.00201017
0.00192613
0.00182754
0.00171404
0.00158497
0.00143931
0.0012755
0.00109118
0.000883147
0.000647407
0.000376575
0.000418526
3.43728e-05
3.43726e-05
3.43725e-05
3.43724e-05
3.43723e-05
3.43722e-05
3.4372e-05
3.43719e-05
3.43717e-05
3.43715e-05
3.43714e-05
3.43712e-05
3.4371e-05
3.43708e-05
3.43706e-05
3.43704e-05
3.43701e-05
3.43699e-05
3.43696e-05
3.43693e-05
3.4369e-05
3.43687e-05
3.43684e-05
3.4368e-05
3.43676e-05
3.43672e-05
3.43668e-05
3.43663e-05
3.43658e-05
3.43653e-05
3.43648e-05
3.43642e-05
3.43636e-05
3.43629e-05
3.43622e-05
3.43614e-05
3.43606e-05
3.43597e-05
3.43588e-05
3.43578e-05
3.43567e-05
3.43555e-05
3.43543e-05
3.4353e-05
3.43515e-05
3.435e-05
3.43484e-05
3.43466e-05
3.43447e-05
3.43427e-05
3.43405e-05
3.43381e-05
3.43356e-05
3.43329e-05
3.433e-05
3.43269e-05
3.4324e-05
3.43226e-05
3.43235e-05
3.43247e-05
3.43238e-05
0.000184256
0.00040242
0.000659766
0.000905532
0.00112494
0.00131981
0.00149172
0.00164141
0.00176955
0.00187689
0.00196413
0.00203207
0.00208149
0.00211315
0.00212774
0.00212592
0.0021083
0.00207536
0.00202746
0.00196486
0.00188765
0.00179571
0.00168868
0.0015659
0.0014263
0.00126817
0.00108912
0.00088557
0.000653026
0.000382997
0.000427249
3.43729e-05
3.43728e-05
3.43727e-05
3.43726e-05
3.43724e-05
3.43723e-05
3.43722e-05
3.4372e-05
3.43719e-05
3.43717e-05
3.43716e-05
3.43714e-05
3.43712e-05
3.4371e-05
3.43708e-05
3.43706e-05
3.43704e-05
3.43702e-05
3.43699e-05
3.43696e-05
3.43694e-05
3.43691e-05
3.43687e-05
3.43684e-05
3.43681e-05
3.43677e-05
3.43673e-05
3.43668e-05
3.43664e-05
3.43659e-05
3.43654e-05
3.43648e-05
3.43642e-05
3.43636e-05
3.43629e-05
3.43622e-05
3.43615e-05
3.43606e-05
3.43598e-05
3.43588e-05
3.43578e-05
3.43567e-05
3.43556e-05
3.43544e-05
3.4353e-05
3.43516e-05
3.43501e-05
3.43484e-05
3.43466e-05
3.43447e-05
3.43426e-05
3.43404e-05
3.4338e-05
3.43354e-05
3.43327e-05
3.43298e-05
3.43266e-05
3.43238e-05
3.43227e-05
3.4324e-05
3.43253e-05
3.43242e-05
1.93833e-05
8.61883e-05
0.000242592
0.000473143
0.00072239
0.000952048
0.00115601
0.00133668
0.00149511
0.00163205
0.00174812
0.00184405
0.00192056
0.00197843
0.00201836
0.00204107
0.00204721
0.00203736
0.00201201
0.00197155
0.00191622
0.00184613
0.00176116
0.00166093
0.0015448
0.00141157
0.00125957
0.00108618
0.00088775
0.000658877
0.000390108
0.000436685
3.4373e-05
3.43729e-05
3.43728e-05
3.43727e-05
3.43726e-05
3.43725e-05
3.43723e-05
3.43722e-05
3.43721e-05
3.43719e-05
3.43718e-05
3.43716e-05
3.43714e-05
3.43713e-05
3.43711e-05
3.43709e-05