/*--------------------------------*- C++ -*----------------------------------*\
  =========                 |
  \\      /  F ield         | OpenFOAM: The Open Source CFD Toolbox
   \\    /   O peration     | Website:  https://openfoam.org
    \\  /    A nd           | Version:  7
     \\/     M anipulation  |
\*---------------------------------------------------------------------------*/
FoamFile
{
    version     2.0;
    format      ascii;
    class       volScalarField;
    location    "1400";
    object      p;
}
// * * * * * * * * * * * * * * * * * * * * * * * * * * * * * * * * * * * * * //

dimensions      [0 2 -2 0 0 0 0];

internalField   nonuniform List<scalar> 
23064
(
-7.15226
-7.18347
-7.45631
-7.1852
-7.48196
-7.75953
-7.40863
-7.47799
-7.77876
-8.06202
-7.69327
-7.71201
-7.76874
-8.07372
-8.36371
-8.00341
-8.00682
-8.0138
-8.05734
-8.36662
-8.66441
-8.3689
-8.32623
-8.31894
-8.31395
-8.34354
-8.65727
-8.96389
-8.79137
-8.70293
-8.64758
-8.62954
-8.61215
-8.6272
-8.94547
-9.26198
-9.26367
-9.13814
-9.03561
-8.96749
-8.93834
-8.90836
-8.90819
-9.23108
-9.55888
-9.78473
-9.62414
-9.48371
-9.36697
-9.28573
-9.24533
-9.20245
-9.18631
-9.51386
-9.85424
-10.355
-10.1601
-9.9835
-9.82794
-9.69676
-9.60216
-9.55023
-9.49413
-9.46141
-9.79367
-10.148
-10.9737
-10.7465
-10.5345
-10.3416
-10.1707
-10.0248
-9.91656
-9.85285
-9.78344
-9.73327
-10.0701
-10.44
-11.6405
-11.3826
-11.1371
-10.9077
-10.6984
-10.5119
-10.3511
-10.2289
-10.1532
-10.07
-10.0017
-10.3432
-10.7299
-12.3552
-12.0678
-11.7905
-11.5266
-11.2797
-11.0538
-10.8515
-10.6753
-10.5389
-10.451
-10.3539
-10.2666
-10.6126
-11.0181
-13.1181
-12.8022
-12.4944
-12.1975
-11.9149
-11.6502
-11.4075
-11.1891
-10.9975
-10.8465
-10.7461
-10.6347
-10.5277
-10.878
-11.3039
-13.9295
-13.5861
-13.2485
-12.9199
-12.6033
-12.3019
-12.0192
-11.7593
-11.5247
-11.3174
-11.1514
-11.0382
-10.9124
-10.7848
-11.1393
-11.5873
-14.7899
-14.4196
-14.0533
-13.6939
-13.3444
-13.0079
-12.6874
-12.3866
-12.1093
-11.8581
-11.6348
-11.4535
-11.3274
-11.1868
-11.0377
-11.3961
-11.8683
-15.7001
-15.3034
-14.909
-14.5197
-14.1382
-13.7677
-13.411
-13.0712
-12.752
-12.4572
-12.1893
-11.9495
-11.7527
-11.6133
-11.4577
-11.2863
-11.6484
-12.1465
-16.6609
-16.2382
-15.8162
-15.3975
-14.985
-14.5813
-14.1895
-13.8125
-13.4533
-13.1153
-12.8028
-12.5178
-12.2614
-12.0488
-11.8957
-11.7249
-11.5304
-11.8957
-12.422
-17.6735
-17.2251
-16.7757
-16.3281
-15.885
-15.449
-15.023
-14.6097
-14.2122
-13.8333
-13.4765
-13.1459
-12.8437
-12.5704
-12.3415
-12.1744
-11.9881
-11.7696
-12.1378
-12.6945
-18.7387
-18.2649
-17.7885
-17.3123
-16.839
-16.3712
-15.9117
-15.463
-15.0282
-14.6099
-14.2112
-13.8353
-13.4864
-13.1667
-12.8763
-12.6307
-12.4495
-12.2474
-12.004
-12.3745
-12.9636
-19.8581
-19.3589
-18.8556
-18.351
-17.8477
-17.3486
-16.856
-16.3727
-15.9014
-15.4447
-15.0055
-14.5867
-14.1916
-13.8242
-13.4866
-13.1788
-12.9162
-12.7205
-12.5026
-12.2332
-12.6054
-13.229
-21.0331
-20.5085
-19.9784
-19.4454
-18.9124
-18.382
-17.8567
-17.3392
-16.832
-16.3377
-15.8591
-15.3988
-14.9598
-14.5452
-14.159
-13.8035
-13.4778
-13.1979
-12.9873
-12.7531
-12.4571
-12.8303
-13.4911
-22.2652
-21.7151
-21.158
-20.5968
-20.034
-19.4724
-18.9147
-18.3632
-17.8206
-17.2893
-16.772
-16.2712
-15.7897
-15.3302
-14.8958
-14.4907
-14.1168
-13.7732
-13.4753
-13.2496
-12.9991
-12.6753
-13.049
-13.7494
-23.5561
-22.9804
-22.3963
-21.8066
-21.214
-20.6213
-20.031
-19.4457
-18.8678
-18.3
-17.7445
-17.204
-16.6809
-16.1779
-15.6978
-15.2435
-14.8191
-14.4266
-14.0646
-13.7487
-13.5073
-13.2402
-12.8878
-13.261
-14.0037
-24.9077
-24.3061
-23.6947
-23.0763
-22.4538
-21.8298
-21.2069
-20.5878
-19.9748
-19.3705
-18.7773
-18.1975
-17.6335
-17.0879
-16.5634
-16.0623
-15.5879
-15.144
-14.7327
-14.3521
-14.0176
-13.7603
-13.4764
-13.0943
-13.466
-14.2537
-26.322
-25.6942
-25.0552
-24.4079
-23.7551
-23.0995
-22.4439
-21.7907
-21.1426
-20.5019
-19.871
-19.2523
-18.6479
-18.0604
-17.4922
-16.9458
-16.4238
-15.9289
-15.4652
-15.0349
-14.6353
-14.2817
-14.0082
-13.7074
-13.2946
-13.6639
-14.499
-27.8011
-27.1467
-26.4797
-25.803
-25.1196
-24.4322
-23.7435
-23.0561
-22.3726
-21.6953
-21.0268
-20.3691
-19.7247
-19.0957
-18.4845
-17.8935
-17.3251
-16.7818
-16.2663
-15.7826
-15.3329
-14.9139
-14.5411
-14.2509
-13.9329
-13.4886
-13.8541
-14.7395
-29.3475
-28.6659
-27.9704
-27.2638
-26.5493
-25.8296
-25.1075
-24.3855
-23.6663
-22.9522
-22.2457
-21.5492
-20.8647
-20.1944
-19.5407
-18.9057
-18.2916
-17.701
-17.1363
-16.6
-16.096
-15.6267
-15.1881
-14.7955
-14.488
-14.1528
-13.6759
-14.0366
-14.9751
-30.9634
-30.2541
-29.5295
-28.7926
-28.0464
-27.2939
-26.5378
-25.7807
-25.0253
-24.274
-23.5294
-22.7936
-22.0689
-21.3574
-20.6613
-19.9826
-19.3235
-18.6864
-18.0735
-17.4871
-16.9297
-16.4052
-15.9159
-15.4575
-15.0446
-14.7196
-14.3667
-13.8564
-14.2107
-15.2052
-32.6514
-31.9139
-31.1596
-30.3916
-29.6131
-28.8271
-28.0364
-27.2436
-26.4515
-25.6626
-24.8793
-24.104
-23.3388
-22.5858
-21.8471
-21.1249
-20.4212
-19.738
-19.0776
-18.4422
-17.8339
-17.2553
-16.71
-16.2005
-15.7218
-15.2884
-14.9452
-14.5747
-14.03
-14.3764
-15.4299
-592.057
-34.4144
-33.6479
-32.8631
-32.0634
-31.2518
-30.4317
-29.6055
-28.7765
-27.9471
-27.1198
-26.2973
-25.4819
-24.6757
-23.8809
-23.0996
-22.3337
-21.5853
-20.8564
-20.149
-19.4651
-18.807
-18.1767
-17.5765
-17.0102
-16.4802
-15.981
-15.5264
-15.1647
-14.7764
-14.1963
-14.5332
-15.6488
-592.064
-619.867
-36.2552
-35.459
-34.643
-33.8106
-32.9653
-32.11
-31.2478
-30.3816
-29.514
-28.6477
-27.7853
-26.9291
-26.0814
-25.2442
-24.4198
-23.61
-22.8168
-22.0421
-21.2879
-20.5561
-19.8487
-19.1677
-18.5152
-17.8933
-17.3057
-16.7548
-16.2348
-15.7586
-15.3779
-14.9715
-14.3552
-14.6807
-15.8619
-592.048
-619.869
-648.259
-38.1767
-37.3501
-36.502
-35.6362
-34.7561
-33.865
-32.9656
-32.0614
-31.1548
-30.2485
-29.3454
-28.4477
-27.5577
-26.6776
-25.8094
-24.9552
-24.1169
-23.2963
-22.4952
-21.7156
-20.9593
-20.2281
-19.5242
-18.8492
-18.2054
-17.5962
-17.0242
-16.483
-15.9848
-15.5845
-15.1599
-14.5064
-14.8186
-16.0683
-592.014
-619.846
-648.256
-677.187
-40.1823
-39.3242
-38.4433
-37.5431
-36.6273
-35.6991
-34.7618
-33.8183
-32.8718
-31.9249
-30.9799
-30.0398
-29.1067
-28.1829
-27.2702
-26.371
-25.487
-24.62
-23.7719
-22.9444
-22.1393
-21.3584
-20.6033
-19.8762
-19.1787
-18.5126
-17.8815
-17.2881
-16.7255
-16.2048
-15.7843
-15.3415
-14.6499
-14.9467
-16.2677
-591.976
-619.809
-648.229
-677.177
-706.806
-42.275
-41.3849
-40.47
-39.5344
-38.5818
-37.6156
-36.6391
-35.6556
-34.6679
-33.679
-32.6915
-31.708
-30.7307
-29.7621
-28.8042
-27.8591
-26.9287
-26.0148
-25.1191
-24.2434
-23.3894
-22.5587
-21.753
-20.974
-20.2235
-19.5032
-18.8147
-18.1616
-17.5464
-16.9619
-16.4183
-15.9771
-15.5159
-14.7854
-15.0642
-16.4598
-591.933
-619.766
-648.184
-677.145
-706.79
-737.042
-44.4583
-43.5352
-42.5854
-41.6134
-40.6229
-39.6175
-38.6007
-37.5759
-36.5461
-35.514
-34.4827
-33.4546
-32.4322
-31.4177
-30.4136
-29.4217
-28.4439
-27.4823
-26.5385
-25.614
-24.7107
-23.8301
-22.9737
-22.1431
-21.34
-20.566
-19.8227
-19.1116
-18.436
-17.7988
-17.1922
-16.6251
-16.1626
-15.6828
-14.9126
-15.1712
-16.645
-591.885
-619.717
-648.135
-677.096
-706.75
-737.021
-768.057
-46.7359
-45.7787
-44.7931
-43.7835
-42.7541
-41.7083
-40.6501
-39.5826
-38.5092
-37.4329
-36.3563
-35.2824
-34.2136
-33.1522
-32.1006
-31.0608
-30.0349
-29.0245
-28.0316
-27.0577
-26.1045
-25.1735
-24.2662
-23.3841
-22.5285
-21.7011
-20.9034
-20.137
-19.403
-18.7048
-18.0452
-17.4161
-16.8251
-16.3407
-15.8422
-15.0314
-15.2672
-16.8226
-591.831
-619.662
-648.078
-677.039
-706.695
-736.974
-768.027
-799.785
-49.1114
-48.1192
-47.0967
-46.0484
-44.9787
-43.8913
-42.7903
-41.679
-40.5606
-39.4385
-38.3155
-37.1943
-36.0778
-34.9682
-33.8678
-32.7791
-31.7036
-30.6435
-29.6005
-28.5762
-27.5723
-26.5903
-25.6316
-24.6976
-23.7895
-22.909
-22.0572
-21.2357
-20.4458
-19.6888
-18.9677
-18.2854
-17.6335
-17.0182
-16.5112
-15.9937
-15.1418
-15.3517
-16.9919
-591.772
-619.601
-648.016
-676.978
-706.631
-736.913
-767.974
-799.749
-832.372
-51.5888
-50.5606
-49.4999
-48.4119
-47.3008
-46.1704
-45.0251
-43.8684
-42.7037
-41.5344
-40.3634
-39.1937
-38.0279
-36.8687
-35.7182
-34.5788
-33.4527
-32.3415
-31.2473
-30.1717
-29.1161
-28.0821
-27.0712
-26.0847
-25.1239
-24.19
-23.2843
-22.408
-21.5625
-20.7491
-19.9688
-19.2244
-18.5192
-17.8441
-17.2039
-16.6736
-16.1372
-15.2434
-15.4243
-17.1522
-591.708
-619.535
-647.947
-676.908
-706.56
-736.843
-767.906
-799.69
-832.326
-865.875
-54.1722
-53.1067
-52.007
-50.8779
-49.7238
-48.5493
-47.3582
-46.1546
-44.942
-43.724
-42.5034
-41.2835
-40.0671
-38.8565
-37.6544
-36.4632
-35.2848
-34.1213
-32.9745
-31.8461
-30.7377
-29.6508
-28.5869
-27.5471
-26.5327
-25.545
-24.5852
-23.6542
-22.7532
-21.8837
-21.0466
-20.2428
-19.4749
-18.7464
-18.0478
-17.3822
-16.8279
-16.2724
-15.3361
-15.4848
-17.304
-591.638
-619.462
-647.872
-676.833
-706.483
-736.766
-767.828
-799.614
-832.261
-865.823
-900.342
-56.8659
-55.7622
-54.622
-53.4503
-52.2521
-51.0317
-49.7934
-48.5414
-47.2794
-46.0108
-44.7393
-43.4674
-42.1984
-40.9352
-39.6798
-38.435
-37.2029
-35.9854
-34.7845
-33.602
-32.4395
-31.2984
-30.1802
-29.0862
-28.0176
-26.9754
-25.9608
-24.9748
-24.0185
-23.0929
-22.199
-21.338
-20.5105
-19.7189
-18.9667
-18.2443
-17.5529
-16.9739
-16.3991
-15.4199
-15.5328
-17.4466
-591.562
-619.384
-647.79
-676.749
-706.397
-736.68
-767.741
-799.528
-832.176
-865.744
-900.278
-935.811
-59.6743
-58.5312
-57.3491
-56.1336
-54.8896
-53.622
-52.335
-51.0329
-49.7198
-48.3991
-47.0744
-45.749
-44.4258
-43.1079
-41.7976
-40.4976
-39.2099
-37.9369
-36.6803
-35.4422
-34.224
-33.0273
-31.8536
-30.704
-29.58
-28.4825
-27.4124
-26.3709
-25.3588
-24.3771
-23.4266
-22.5084
-21.6233
-20.7719
-19.9562
-19.1801
-18.4335
-17.7158
-17.1113
-16.5171
-15.4944
-15.5678
-17.5783
-591.479
-619.298
-647.701
-676.659
-706.304
-736.586
-767.645
-799.434
-832.083
-865.653
-900.194
-935.739
-972.485
-62.6023
-61.4183
-60.193
-58.9323
-57.6413
-56.3245
-54.9872
-53.6334
-52.2672
-50.8926
-49.5131
-48.1321
-46.753
-45.3784
-44.0114
-42.6541
-41.3093
-39.9788
-38.6648
-37.3693
-36.0939
-34.84
-33.6092
-32.4029
-31.2221
-30.068
-28.9415
-27.8436
-26.7752
-25.7369
-24.7297
-23.7544
-22.8116
-21.9023
-21.0267
-20.1868
-19.3863
-18.6152
-17.8708
-17.24
-16.6261
-15.5596
-15.5895
-17.7011
-591.389
-619.204
-647.604
-676.56
-706.202
-736.484
-767.542
-799.33
-831.979
-865.55
-900.092
-935.645
-972.401
-1010.36
-65.6544
-64.4282
-63.1584
-61.8509
-60.5112
-59.1441
-57.7544
-56.347
-54.9262
-53.4956
-52.0595
-50.6211
-49.1839
-47.7508
-46.3248
-44.9087
-43.5044
-42.1146
-40.7413
-39.3866
-38.052
-36.7392
-35.4499
-34.185
-32.946
-31.734
-30.5499
-29.3946
-28.2688
-27.1733
-26.109
-25.0762
-24.0758
-23.1084
-22.1747
-21.2747
-20.4103
-19.5851
-18.7893
-18.0175
-17.3596
-16.726
-15.6155
-15.5973
-17.8132
-591.29
-619.103
-647.498
-676.452
-706.092
-736.372
-767.427
-799.214
-831.863
-865.435
-899.979
-935.535
-972.295
-1010.27
-1049.55
-68.836
-67.566
-66.2503
-64.8945
-63.5042
-62.085
-60.6416
-59.1785
-57.7009
-56.2125
-54.7176
-53.2198
-51.7224
-50.2288
-48.7419
-47.2643
-45.799
-44.3477
-42.9131
-41.4972
-40.1016
-38.728
-37.3781
-36.0532
-34.7543
-33.4829
-32.2397
-31.0256
-29.8414
-28.6878
-27.5653
-26.4747
-25.4164
-24.3908
-23.3987
-22.4404
-21.5159
-20.6266
-19.7765
-18.9554
-18.156
-17.47
-16.8165
-15.6617
-15.5913
-17.9131
-591.184
-618.993
-647.383
-676.336
-705.971
-736.25
-767.303
-799.091
-831.74
-865.31
-899.854
-935.411
-972.175
-1010.15
-1049.44
-1090.19
-72.1525
-70.8374
-69.4738
-68.0681
-66.6256
-65.1521
-63.653
-62.1327
-60.5963
-59.0481
-57.4924
-55.9327
-54.373
-52.8169
-51.2666
-49.7257
-48.1965
-46.682
-45.1839
-43.7046
-42.2459
-40.8096
-39.3972
-38.0102
-36.6497
-35.3171
-34.0131
-32.7387
-31.4947
-30.2817
-29.1002
-27.9508
-26.8339
-25.7499
-24.6992
-23.6822
-22.6992
-21.7499
-20.8355
-19.9601
-19.1135
-18.2859
-17.5711
-16.8974
-15.6985
-15.5709
-18.0024
-591.068
-618.873
-647.258
-676.208
-705.84
-736.118
-767.167
-798.954
-831.601
-865.173
-899.716
-935.277
-972.04
-1010.02
-1049.31
-1090.07
-1132.5
-75.6091
-74.2472
-72.8346
-71.3769
-69.8804
-68.3511
-66.7938
-65.2144
-63.6173
-62.0069
-60.3881
-58.7648
-57.1404
-55.5189
-53.9035
-52.2968
-50.702
-49.1212
-47.5575
-46.0127
-44.4886
-42.9873
-41.5103
-40.0591
-38.635
-37.2393
-35.8728
-34.5364
-33.231
-31.9571
-30.7152
-29.506
-28.3296
-27.1865
-26.0768
-25.0008
-23.9588
-22.9509
-21.9767
-21.037
-20.1359
-19.2634
-18.4072
-17.6625
-16.9684
-15.7256
-15.5357
-18.0802
-590.941
-618.743
-647.123
-676.07
-705.698
-735.974
-767.021
-798.807
-831.455
-865.023
-899.565
-935.126
-971.891
-1009.87
-1049.17
-1089.93
-1132.37
-1176.46
-79.2125
-77.802
-76.3379
-74.8269
-73.2743
-71.687
-70.0701
-68.4287
-66.7688
-65.0944
-63.4101
-61.7206
-60.0294
-58.3402
-56.6566
-54.9819
-53.3186
-51.67
-50.0379
-48.4251
-46.8334
-45.2648
-43.721
-42.2034
-40.7135
-39.2526
-37.8215
-36.4213
-35.0526
-33.7161
-32.4125
-31.1419
-29.9049
-28.7015
-27.5322
-26.3968
-25.2955
-24.2283
-23.1954
-22.1961
-21.2307
-20.3037
-19.405
-18.5197
-17.7443
-17.0295
-15.7429
-15.4854
-18.1456
-590.804
-618.6
-646.975
-675.919
-705.544
-735.817
-766.861
-798.647
-831.292
-864.86
-899.403
-934.965
-971.728
-1009.71
-1049.01
-1089.77
-1132.21
-1176.31
-1222.38
-82.9682
-81.5076
-79.9904
-78.4234
-76.8131
-75.1652
-73.4865
-71.7816
-70.0563
-68.3153
-66.5635
-64.8051
-63.0442
-61.2854
-59.5313
-57.7858
-56.0517
-54.332
-52.6294
-50.946
-49.2842
-47.6459
-46.0328
-44.4466
-42.8885
-41.3601
-39.8623
-38.3961
-36.9622
-35.5614
-34.194
-32.8607
-31.5615
-30.2967
-29.0664
-27.8708
-26.7096
-25.5829
-24.4906
-23.4326
-22.4078
-21.4167
-20.4632
-19.538
-18.6233
-17.8161
-17.0803
-15.7505
-15.4198
-18.196
-590.655
-618.446
-646.815
-675.757
-705.376
-735.648
-766.689
-798.472
-831.116
-864.684
-899.225
-934.787
-971.55
-1009.53
-1048.83
-1089.6
-1132.04
-1176.14
-1222.21
-1270.37
-86.8826
-85.37
-83.7977
-82.173
-80.5021
-78.7923
-77.0488
-75.2783
-73.4853
-71.6752
-69.8532
-68.0237
-66.1909
-64.3591
-62.5322
-60.7133
-58.9055
-57.1125
-55.3363
-53.5799
-51.845
-50.1346
-48.4496
-46.7923
-45.1637
-43.5654
-41.9986
-40.4641
-38.9629
-37.4955
-36.0626
-34.6645
-33.3014
-31.9737
-30.6812
-29.4241
-28.2021
-27.0152
-25.863
-24.7454
-23.6621
-22.6118
-21.5946
-20.6145
-19.6624
-18.7178
-17.8778
-17.1207
-15.7485
-15.3382
-18.234
-590.493
-618.278
-646.641
-675.579
-705.193
-735.464
-766.502
-798.283
-830.926
-864.492
-899.031
-934.594
-971.357
-1009.34
-1048.64
-1089.41
-1131.85
-1175.96
-1222.02
-1270.18
-1320.72
-90.9636
-89.3968
-87.7668
-86.0822
-84.3489
-82.5742
-80.7639
-78.9245
-77.0614
-75.1802
-73.2852
-71.3817
-69.4744
-67.5673
-65.6641
-63.7692
-61.8853
-60.0158
-58.1635
-56.331
-54.5209
-52.735
-50.9757
-49.2443
-47.5426
-45.872
-44.2335
-42.6285
-41.0576
-39.5215
-38.0208
-36.5559
-35.1271
-33.7345
-32.3783
-31.0582
-29.7742
-28.526
-27.3133
-26.1357
-24.9927
-23.8839
-22.808
-21.7644
-20.7573
-19.7779
-18.8031
-17.9294
-17.1505
-15.7367
-15.2406
-18.2579
-590.319
-618.097
-646.453
-675.387
-704.996
-735.264
-766.297
-798.078
-830.719
-864.283
-898.821
-934.385
-971.145
-1009.12
-1048.43
-1089.2
-1131.64
-1175.75
-1221.81
-1269.97
-1320.51
-1373.62
-95.2179
-93.5939
-91.9048
-90.1572
-88.3594
-86.5176
-84.6381
-82.7273
-80.7912
-78.8355
-76.8652
-74.8849
-72.9001
-70.9149
-68.9332
-66.9588
-64.996
-63.0471
-61.1156
-59.2043
-57.3157
-55.452
-53.615
-51.8072
-50.0296
-48.2838
-46.5712
-44.893
-43.2498
-41.6425
-40.0717
-38.5378
-37.0411
-35.5817
-34.1598
-32.7751
-31.4275
-30.1167
-28.8423
-27.6038
-26.4006
-25.2322
-24.0978
-22.9961
-21.9259
-20.8914
-19.8845
-18.8792
-17.9706
-17.1694
-15.7152
-15.1267
-18.267
-590.129
-617.901
-646.248
-675.178
-704.781
-735.046
-766.077
-797.854
-830.494
-864.056
-898.593
-934.157
-970.917
-1008.89
-1048.2
-1088.97
-1131.41
-1175.52
-1221.59
-1269.75
-1320.28
-1373.38
-1429.43
-99.6531
-97.9699
-96.2179
-94.4058
-92.5406
-90.6288
-88.6773
-86.6927
-84.6811
-82.6479
-80.5991
-78.5396
-76.4745
-74.4077
-72.3443
-70.2883
-68.2427
-66.2117
-64.198
-62.205
-60.2347
-58.2896
-56.3726
-54.4848
-52.6285
-50.805
-49.0154
-47.2611
-45.543
-43.862
-42.2185
-40.6132
-39.0463
-37.5179
-36.0282
-34.5769
-33.1639
-31.7888
-30.4513
-29.1507
-27.8865
-26.6578
-25.4638
-24.3038
-23.176
-22.0791
-21.017
-19.9821
-18.9459
-18.0014
-17.1774
-15.6842
-14.9962
-18.26
-589.925
-617.688
-646.027
-674.953
-704.55
-734.811
-765.837
-797.613
-830.251
-863.811
-898.345
-933.909
-970.668
-1008.65
-1047.95
-1088.72
-1131.16
-1175.27
-1221.34
-1269.5
-1320.03
-1373.13
-1429.16
-1488.39
-104.277
-102.532
-100.715
-98.8355
-96.8999
-94.9153
-92.8886
-90.8272
-88.7374
-86.6241
-84.4937
-82.3519
-80.2031
-78.0524
-75.9038
-73.7623
-71.6318
-69.5152
-67.4159
-65.3374
-63.2826
-61.2536
-59.2528
-57.2826
-55.3442
-53.4396
-51.5702
-49.737
-47.9411
-46.1836
-44.4648
-42.7855
-41.1458
-39.546
-37.9861
-36.4661
-34.9857
-33.5446
-32.1421
-30.7779
-29.4512
-28.1612
-26.9069
-25.6873
-24.5015
-23.3476
-22.2237
-21.1336
-20.0706
-19.0031
-18.0216
-17.1742
-15.6437
-14.8488
-18.2374
-589.706
-617.459
-645.79
-674.708
-704.299
-734.556
-765.576
-797.35
-829.987
-863.545
-898.076
-933.641
-970.397
-1008.37
-1047.68
-1088.45
-1130.89
-1175
-1221.06
-1269.23
-1319.76
-1372.86
-1428.88
-1488.09
-1550.96
-109.098
-107.289
-105.404
-103.454
-101.445
-99.3846
-97.2799
-95.1385
-92.9669
-90.7707
-88.5555
-86.3279
-84.0923
-81.8543
-79.6177
-77.3878
-75.1681
-72.963
-70.775
-68.6082
-66.465
-64.3486
-62.2609
-60.2045
-58.1811
-56.1923
-54.2399
-52.3248
-50.4482
-48.6112
-46.8143
-45.058
-43.3429
-41.6691
-40.0367
-38.4454
-36.8954
-35.386
-33.9168
-32.4871
-31.0963
-29.7436
-28.4278
-27.1479
-25.9027
-24.6911
-23.5108
-22.3597
-21.2413
-20.1497
-19.0509
-18.0313
-17.1596
-15.5939
-14.6845
-18.1983
-589.47
-617.212
-645.533
-674.446
-704.027
-734.28
-765.295
-797.067
-829.701
-863.257
-897.786
-933.35
-970.106
-1008.08
-1047.39
-1088.16
-1130.59
-1174.7
-1220.77
-1268.93
-1319.46
-1372.56
-1428.59
-1487.78
-1550.62
-1617.57
-114.125
-112.249
-110.294
-108.269
-106.184
-104.044
-101.859
-99.6346
-97.3773
-95.0944
-92.7917
-90.4751
-88.1494
-85.8201
-83.4922
-81.1704
-78.8586
-76.5607
-74.281
-72.0219
-69.7875
-67.58
-65.4022
-63.2564
-61.1443
-59.068
-57.0291
-55.0288
-53.0683
-51.1488
-49.2706
-47.4347
-45.6413
-43.8907
-42.183
-40.518
-38.8958
-37.3158
-35.7775
-34.2804
-32.8237
-31.4064
-30.0276
-28.6861
-27.3806
-26.1098
-24.8722
-23.6655
-22.4871
-21.3401
-20.2196
-19.0891
-18.0304
-17.1336
-15.5351
-14.5032
-18.1428
-589.217
-616.947
-645.256
-674.162
-703.735
-733.982
-764.992
-796.76
-829.391
-862.943
-897.47
-933.034
-969.788
-1007.76
-1047.07
-1087.84
-1130.27
-1174.38
-1220.44
-1268.6
-1319.13
-1372.23
-1428.26
-1487.45
-1550.27
-1617.18
-1688.76
-119.368
-117.421
-115.392
-113.29
-111.125
-108.903
-106.633
-104.322
-101.976
-99.6041
-97.2094
-94.8
-92.3811
-89.9571
-87.5342
-85.1165
-82.7091
-80.3156
-77.9397
-75.5854
-73.2556
-70.9537
-68.6819
-66.4429
-64.2388
-62.0718
-59.9428
-57.8541
-55.8064
-53.8008
-51.8383
-49.9193
-48.0447
-46.2143
-44.4285
-42.687
-40.99
-39.3368
-37.7271
-36.1602
-34.6353
-33.1515
-31.7078
-30.3031
-28.936
-27.6049
-26.3083
-25.0447
-23.8115
-22.6056
-21.4297
-20.28
-19.1177
-18.0188
-17.0958
-15.4673
-14.3047
-18.0693
-588.946
-616.664
-644.961
-673.856
-703.421
-733.662
-764.663
-796.428
-829.055
-862.605
-897.129
-932.692
-969.443
-1007.42
-1046.72
-1087.49
-1129.92
-1174.03
-1220.09
-1268.25
-1318.78
-1371.88
-1427.89
-1487.09
-1549.91
-1616.8
-1688.33
-1765.17
-124.837
-122.815
-120.708
-118.526
-116.278
-113.97
-111.612
-109.211
-106.772
-104.306
-101.817
-99.3105
-96.7941
-94.2725
-91.7505
-89.2335
-86.7263
-84.2331
-81.7579
-79.3042
-76.8758
-74.4753
-72.106
-69.77
-67.4704
-65.2082
-62.9861
-60.8051
-58.6666
-56.5717
-54.5214
-52.5164
-50.557
-48.6438
-46.7768
-44.9559
-43.1811
-41.4521
-39.7683
-38.129
-36.5336
-34.9811
-33.4706
-32.0006
-30.57
-29.1773
-27.8206
-26.4984
-25.2087
-23.9489
-22.7153
-21.5102
-20.331
-19.1368
-17.9967
-17.0463
-15.3911
-14.0888
-17.9769
-588.66
-616.362
-644.645
-673.529
-703.082
-733.317
-764.31
-796.07
-828.693
-862.24
-896.759
-932.321
-969.07
-1007.04
-1046.34
-1087.11
-1129.53
-1173.65
-1219.7
-1267.86
-1318.39
-1371.48
-1427.5
-1486.69
-1549.51
-1616.39
-1687.89
-1764.69
-1847.59
-130.544
-128.443
-126.254
-123.987
-121.651
-119.253
-116.803
-114.308
-111.774
-109.21
-106.621
-104.015
-101.397
-98.773
-96.1483
-93.5284
-90.9176
-88.3208
-85.7419
-83.1851
-80.6533
-78.151
-75.6801
-73.2437
-70.844
-68.4836
-66.1642
-63.8873
-61.6544
-59.4665
-57.3249
-55.2302
-53.1829
-51.1834
-49.232
-47.3285
-45.473
-43.6651
-41.9042
-40.1899
-38.5214
-36.8978
-35.3178
-33.7805
-32.2845
-30.8282
-29.4099
-28.0277
-26.6798
-25.364
-24.0774
-22.816
-21.5816
-20.3725
-19.1463
-17.964
-16.9849
-15.3068
-13.8555
-17.865
-588.358
-616.041
-644.307
-673.18
-702.721
-732.947
-763.93
-795.685
-828.303
-861.845
-896.36
-931.92
-968.665
-1006.63
-1045.94
-1086.7
-1129.12
-1173.23
-1219.29
-1267.44
-1317.96
-1371.06
-1427.07
-1486.25
-1549.06
-1615.94
-1687.44
-1764.2
-1847.03
-1936.72
-136.499
-134.314
-132.04
-129.684
-127.256
-124.765
-122.217
-119.624
-116.989
-114.323
-111.631
-108.921
-106.197
-103.467
-100.735
-98.0079
-95.2899
-92.5852
-89.8986
-87.2341
-84.596
-81.9867
-79.4106
-76.8696
-74.3663
-71.9032
-69.4828
-67.106
-64.7748
-62.4901
-60.2536
-58.0655
-55.9265
-53.8373
-51.7981
-49.8087
-47.8691
-45.9792
-44.1384
-42.3462
-40.6017
-38.9041
-37.2524
-35.6452
-34.0814
-32.5593
-31.0774
-29.6336
-28.226
-26.8524
-25.5104
-24.197
-22.9078
-21.6438
-20.4045
-19.1464
-17.9209
-16.9116
-15.2145
-13.6046
-17.7347
-588.038
-615.705
-643.952
-672.809
-702.336
-732.55
-763.523
-795.271
-827.883
-861.42
-895.931
-931.489
-968.229
-1006.2
-1045.49
-1086.26
-1128.67
-1172.78
-1218.83
-1266.99
-1317.51
-1370.59
-1426.59
-1485.78
-1548.58
-1615.45
-1686.94
-1763.69
-1846.47
-1936.07
-2033.51
-142.713
-140.442
-138.076
-135.626
-133.102
-130.512
-127.864
-125.167
-122.429
-119.656
-116.857
-114.037
-111.203
-108.363
-105.52
-102.68
-99.8503
-97.034
-94.2353
-91.4592
-88.7094
-85.9903
-83.3039
-80.6541
-78.0429
-75.4734
-72.9474
-70.4669
-68.0331
-65.6479
-63.3122
-61.027
-58.7929
-56.6102
-54.4796
-52.4006
-50.3738
-48.3985
-46.4745
-44.6011
-42.7776
-41.0032
-39.2769
-37.5972
-35.9631
-34.3729
-32.825
-31.3175
-29.8483
-28.4154
-27.0161
-25.6479
-24.3077
-22.9906
-21.6968
-20.427
-19.137
-17.8676
-16.8259
-15.1147
-13.3372
-17.5828
-587.685
-615.341
-643.575
-672.418
-701.927
-732.128
-763.089
-794.828
-827.433
-860.962
-895.469
-931.022
-967.756
-1005.72
-1045.02
-1085.78
-1128.19
-1172.3
-1218.34
-1266.49
-1317
-1370.09
-1426.08
-1485.26
-1548.05
-1614.91
-1686.39
-1763.12
-1845.9
-1935.44
-2032.76
-2140.59
-149.202
-146.837
-144.375
-141.827
-139.201
-136.507
-133.754
-130.949
-128.101
-125.217
-122.307
-119.372
-116.425
-113.468
-110.51
-107.555
-104.608
-101.674
-98.7596
-95.8675
-93.0025
-90.1675
-87.3673
-84.604
-81.8807
-79.2
-76.5646
-73.9757
-71.4354
-68.9455
-66.5066
-64.12
-61.7867
-59.5067
-57.2809
-55.1089
-52.991
-50.9269
-48.9162
-46.9584
-45.0528
-43.1985
-41.3944
-39.6395
-37.9323
-36.2713
-34.655
-33.0813
-31.5484
-30.0541
-28.5958
-27.1708
-25.7766
-24.4095
-23.0643
-21.7406
-20.4401
-19.1183
-17.8042
-16.7281
-15.0085
-13.0529
-17.4103
-587.304
-614.943
-643.166
-672
-701.497
-731.684
-762.629
-794.356
-826.951
-860.472
-894.972
-930.522
-967.25
-1005.21
-1044.5
-1085.26
-1127.67
-1171.77
-1217.81
-1265.95
-1316.46
-1369.54
-1425.52
-1484.69
-1547.47
-1614.32
-1685.78
-1762.5
-1845.26
-1934.78
-2032.03
-2139.7
-2260.95
-155.978
-153.514
-150.951
-148.298
-145.566
-142.763
-139.898
-136.981
-134.018
-131.019
-127.99
-124.937
-121.87
-118.794
-115.714
-112.638
-109.57
-106.515
-103.479
-100.466
-97.481
-94.5268
-91.607
-88.7261
-85.8859
-83.0898
-80.34
-77.6386
-74.9876
-72.3884
-69.8423
-67.3505
-64.9135
-62.5321
-60.207
-57.9381
-55.7255
-53.5688
-51.4679
-49.4222
-47.431
-45.4935
-43.6085
-41.7751
-39.9918
-38.2572
-36.5697
-34.9273
-33.3282
-31.77
-30.2505
-28.7671
-27.3166
-25.8962
-24.5023
-23.1291
-21.7753
-20.4438
-19.0904
-17.7309
-16.6179
-14.8961
-12.7517
-17.2163
-586.908
-614.521
-642.724
-671.545
-701.032
-731.211
-762.143
-793.857
-826.44
-859.95
-894.44
-929.984
-966.704
-1004.66
-1043.94
-1084.7
-1127.1
-1171.2
-1217.24
-1265.37
-1315.87
-1368.94
-1424.92
-1484.07
-1546.84
-1613.68
-1685.12
-1761.82
-1844.56
-1934.06
-2031.28
-2138.83
-2260.01
-2336.78
-163.057
-160.488
-157.816
-155.053
-152.208
-149.291
-146.309
-143.273
-140.191
-137.07
-133.918
-130.742
-127.55
-124.349
-121.143
-117.94
-114.745
-111.564
-108.402
-105.264
-102.153
-99.0744
-96.0312
-93.0268
-90.0657
-87.1493
-84.2809
-81.4624
-78.6958
-75.9829
-73.3249
-70.7232
-68.1786
-65.6917
-63.2631
-60.8932
-58.5816
-56.3287
-54.1338
-51.9965
-49.9161
-47.8918
-45.9226
-44.0074
-42.1449
-40.3337
-38.5719
-36.858
-35.1899
-33.5654
-31.9822
-30.4377
-28.9292
-27.4533
-26.0068
-24.5861
-23.185
-21.801
-20.4382
-19.0534
-17.6483
-16.4956
-14.778
-12.4346
-16.9999
-586.495
-614.083
-642.26
-671.06
-700.53
-730.699
-761.625
-793.331
-825.9
-859.396
-893.874
-929.409
-966.121
-1004.07
-1043.34
-1084.1
-1126.49
-1170.58
-1216.61
-1264.74
-1315.23
-1368.29
-1424.26
-1483.4
-1546.16
-1612.97
-1684.39
-1761.07
-1843.79
-1933.26
-2030.45
-2137.95
-2259.03
-2335.59
-2361.89
-170.453
-167.772
-164.986
-162.106
-159.142
-156.103
-152.999
-149.838
-146.63
-143.381
-140.101
-136.796
-133.474
-130.142
-126.805
-123.47
-120.144
-116.831
-113.538
-110.268
-107.027
-103.819
-100.647
-97.5154
-94.4272
-91.386
-88.3937
-85.4535
-82.5667
-79.7354
-76.9608
-74.2448
-71.5878
-68.9911
-66.4549
-63.9794
-61.565
-59.2114
-56.9185
-54.6856
-52.5123
-50.3976
-48.3406
-46.3403
-44.3951
-42.5039
-40.6648
-38.8763
-37.1362
-35.4426
-33.7929
-32.1849
-30.6156
-29.082
-27.5808
-26.1084
-24.6608
-23.2318
-21.8177
-20.4233
-19.0075
-17.5567
-16.3608
-14.6553
-12.1021
-16.7619
-586.064
-613.626
-641.778
-670.555
-700.002
-730.153
-761.063
-792.764
-825.325
-858.811
-893.277
-928.8
-965.498
-1003.43
-1042.71
-1083.45
-1125.83
-1169.92
-1215.94
-1264.06
-1314.54
-1367.59
-1423.54
-1482.67
-1545.41
-1612.21
-1683.61
-1760.26
-1842.94
-1932.38
-2029.52
-2136.98
-2258
-2334.66
-2360.69
-2386.99
-178.184
-175.384
-172.476
-169.472
-166.382
-163.215
-159.981
-156.69
-153.348
-149.966
-146.551
-143.111
-139.653
-136.184
-132.71
-129.238
-125.774
-122.325
-118.895
-115.489
-112.112
-108.769
-105.463
-102.198
-98.9787
-95.8071
-92.6861
-89.6187
-86.6068
-83.6519
-80.7564
-77.9208
-75.1472
-72.4358
-69.7872
-67.2021
-64.6804
-62.2221
-59.8269
-57.4944
-55.2242
-53.0152
-50.8666
-48.7773
-46.746
-44.7714
-42.8516
-40.9852
-39.1701
-37.4042
-35.6851
-34.0106
-32.3779
-30.7839
-29.2256
-27.6992
-26.2009
-24.7266
-23.2698
-21.8255
-20.3994
-18.953
-17.4565
-16.2134
-14.5289
-11.7552
-16.4982
-585.617
-613.15
-641.276
-670.028
-699.453
-729.582
-760.471
-792.156
-824.707
-858.184
-892.641
-928.158
-964.842
-1002.76
-1042.02
-1082.76
-1125.12
-1169.2
-1215.21
-1263.33
-1313.79
-1366.83
-1422.77
-1481.88
-1544.6
-1611.38
-1682.75
-1759.37
-1842.02
-1931.42
-2028.51
-2135.9
-2256.86
-2333.56
-2359.75
-2385.83
-2412.75
-186.267
-183.34
-180.303
-177.167
-173.943
-170.641
-167.27
-163.84
-160.36
-156.838
-153.282
-149.699
-146.099
-142.487
-138.869
-135.255
-131.648
-128.055
-124.482
-120.935
-117.416
-113.932
-110.487
-107.084
-103.728
-100.421
-97.1653
-93.9658
-90.8229
-87.7401
-84.7181
-81.7589
-78.8628
-76.0322
-73.2668
-70.5671
-67.9333
-65.3657
-62.8641
-60.4279
-58.0564
-55.7491
-53.5049
-51.3229
-49.2017
-47.1399
-45.136
-43.1881
-41.2946
-39.4531
-37.6616
-35.9176
-34.2184
-32.5612
-30.9428
-29.3598
-27.8083
-26.2844
-24.7835
-23.2989
-21.8247
-20.3666
-18.89
-17.3482
-16.0537
-14.3999
-11.3939
-16.2135
-585.152
-612.654
-640.752
-669.48
-698.88
-728.987
-759.855
-791.519
-824.051
-857.512
-891.96
-927.469
-964.144
-1002.05
-1041.3
-1082.02
-1124.37
-1168.44
-1214.44
-1262.54
-1312.99
-1366.01
-1421.93
-1481.03
-1543.73
-1610.48
-1681.82
-1758.41
-1841.02
-1930.36
-2027.4
-2134.72
-2255.61
-2332.32
-2358.65
-2384.93
-2411.58
-2438.45
-194.723
-191.659
-188.483
-185.208
-181.841
-178.396
-174.881
-171.306
-167.679
-164.009
-160.304
-156.573
-152.823
-149.061
-145.294
-141.53
-137.775
-134.033
-130.311
-126.615
-122.949
-119.318
-115.728
-112.181
-108.682
-105.234
-101.839
-98.5017
-95.2236
-92.0066
-88.8532
-85.7644
-82.7419
-79.7865
-76.899
-74.0802
-71.3298
-68.6483
-66.0353
-63.4907
-61.0139
-58.604
-56.26
-53.9813
-51.7662
-49.6135
-47.5215
-45.4887
-43.5131
-41.5927
-39.7253
-37.9085
-36.1397
-34.4161
-32.7347
-31.092
-29.4846
-27.9083
-26.3588
-24.8315
-23.3194
-21.8154
-20.3252
-18.8187
-17.2329
-15.8816
-14.2693
-11.0204
-15.9053
-584.668
-612.138
-640.208
-668.908
-698.283
-728.368
-759.212
-790.856
-823.368
-856.808
-891.237
-926.733
-963.396
-1001.29
-1040.53
-1081.24
-1123.57
-1167.62
-1213.61
-1261.69
-1312.13
-1365.13
-1421.03
-1480.1
-1542.77
-1609.5
-1680.8
-1757.35
-1839.92
-1929.21
-2026.19
-2133.43
-2254.22
-2330.96
-2357.42
-2383.85
-2410.66
-2437.34
-2464.8
-203.569
-200.36
-197.037
-193.612
-190.096
-186.498
-182.83
-179.101
-175.319
-171.494
-167.633
-163.746
-159.839
-155.921
-151.997
-148.077
-144.165
-140.267
-136.391
-132.54
-128.72
-124.937
-121.195
-117.499
-113.851
-110.256
-106.716
-103.235
-99.8153
-96.4593
-93.1689
-89.9456
-86.7906
-83.7056
-80.691
-77.7476
-74.8757
-72.0754
-69.3467
-66.6889
-64.1019
-61.5849
-59.137
-56.7571
-54.444
-52.1962
-50.0125
-47.8908
-45.8295
-43.8265
-41.8796
-39.9866
-38.1448
-36.3515
-34.6037
-32.8982
-31.2316
-29.6
-27.9991
-26.4243
-24.8707
-23.3313
-21.7978
-20.2753
-18.7395
-17.1111
-15.6971
-14.1384
-10.6359
-15.5706
-584.164
-611.601
-639.641
-668.313
-697.66
-727.721
-758.542
-790.164
-822.655
-856.075
-890.483
-925.959
-962.603
-1000.49
-1039.71
-1080.41
-1122.73
-1166.76
-1212.72
-1260.79
-1311.2
-1364.18
-1420.05
-1479.1
-1541.75
-1608.44
-1679.71
-1756.21
-1838.73
-1927.96
-2024.86
-2132.01
-2252.69
-2329.46
-2356.06