/*--------------------------------*- C++ -*----------------------------------*\
  =========                 |
  \\      /  F ield         | OpenFOAM: The Open Source CFD Toolbox
   \\    /   O peration     | Website:  https://openfoam.org
    \\  /    A nd           | Version:  7
     \\/     M anipulation  |
\*---------------------------------------------------------------------------*/
FoamFile
{
    version     2.0;
    format      ascii;
    class       surfaceScalarField;
    location    "1400";
    object      phi;
}
// * * * * * * * * * * * * * * * * * * * * * * * * * * * * * * * * * * * * * //

dimensions      [0 3 -1 0 0 0 0];

internalField   nonuniform List<scalar> 
45818
(
0.0756485
0.146616
0.0724779
0.140221
0.0757456
0.149938
0.0694392
0.134108
0.0725685
0.143398
0.0758229
0.153254
0.0665307
0.128263
0.0695284
0.137149
0.0726409
0.14658
0.0758819
0.156561
0.063735
0.122697
0.0666148
0.131177
0.0696042
0.140185
0.0727117
0.149751
0.0759311
0.159865
0.0610641
0.117344
0.0638362
0.125475
0.0666941
0.134087
0.0696785
0.143218
0.0727692
0.152912
0.0759654
0.163165
0.0585093
0.112239
0.0611738
0.120006
0.063919
0.12825
0.066772
0.136993
0.0697345
0.146253
0.072802
0.156076
0.0759764
0.166476
0.0560641
0.107376
0.0585991
0.114813
0.0612367
0.122689
0.063982
0.13104
0.0668131
0.139915
0.0697623
0.149293
0.0728214
0.159231
0.0759726
0.169769
0.0537189
0.102723
0.0561547
0.10982
0.058684
0.117366
0.0613132
0.125357
0.0640366
0.133817
0.0668678
0.142809
0.0697986
0.152316
0.072821
0.162382
0.0759589
0.173059
0.0514722
0.0982738
0.0538113
0.105067
0.0562415
0.112263
0.0587641
0.119915
0.0613798
0.128014
0.0640848
0.1366
0.0669026
0.145705
0.0697933
0.155343
0.0727974
0.165544
0.0759303
0.176328
0.0493246
0.0940251
0.0515656
0.10052
0.053894
0.107414
0.0563107
0.114716
0.0588208
0.122474
0.0614232
0.130676
0.0641147
0.139388
0.0669008
0.148598
0.0697999
0.158341
0.0727957
0.168678
0.0758652
0.179596
0.047266
0.089967
0.0494112
0.0961795
0.0516514
0.102762
0.0539713
0.109753
0.0563773
0.11716
0.0588727
0.125024
0.0614616
0.133329
0.0641398
0.142149
0.0669075
0.15149
0.0697615
0.161375
0.072729
0.171815
0.0757936
0.182862
0.0452886
0.0860911
0.0473543
0.0920239
0.0495001
0.0983308
0.0517219
0.105011
0.0540311
0.1121
0.0564273
0.119605
0.0589097
0.127576
0.0614668
0.136002
0.0641316
0.144925
0.066886
0.154366
0.069735
0.164369
0.0726708
0.174937
0.0756988
0.186105
0.0434051
0.0823795
0.0453801
0.0880653
0.0474365
0.0940875
0.0495702
0.100483
0.0517876
0.107255
0.0540834
0.114444
0.0564639
0.122051
0.0589284
0.130115
0.0614906
0.138643
0.064132
0.147679
0.066868
0.157233
0.0696803
0.167359
0.0725844
0.178052
0.0755842
0.189354
0.0415906
0.0788448
0.0434885
0.0842711
0.0454654
0.0900364
0.0475097
0.096148
0.049639
0.102631
0.051843
0.109495
0.0541331
0.116774
0.0564975
0.124482
0.0589557
0.13265
0.0614811
0.141294
0.0641042
0.150442
0.0668034
0.16011
0.0696024
0.170341
0.0724916
0.181145
0.0754548
0.19258
0.0398615
0.0754557
0.0416808
0.0806525
0.0435706
0.0861659
0.0455355
0.0920106
0.0475803
0.0982067
0.0496926
0.104782
0.0518809
0.111747
0.0541575
0.119114
0.0565112
0.126926
0.0589363
0.135194
0.0614617
0.143936
0.064053
0.153193
0.0667389
0.162973
0.0695097
0.173323
0.0723572
0.184242
0.0753022
0.195794
0.0381999
0.0722298
0.0399421
0.0771944
0.0417597
0.0824634
0.0436502
0.0880512
0.0456043
0.0939867
0.0476285
0.100271
0.0497364
0.106926
0.0519226
0.113982
0.0541758
0.12145
0.0565161
0.129347
0.058944
0.137712
0.0614326
0.146557
0.0640105
0.155921
0.0666631
0.16582
0.0693971
0.176283
0.072218
0.187326
0.0751381
0.19898
0.0366074
0.0691419
0.0382823
0.0738895
0.0400265
0.0789277
0.0418361
0.0842774
0.0437108
0.0899447
0.0456605
0.0959546
0.0476853
0.102322
0.0497748
0.109074
0.051944
0.116214
0.0541852
0.123781
0.0565008
0.13179
0.0588914
0.140253
0.0613752
0.149192
0.0639298
0.158655
0.066569
0.168648
0.0692797
0.179222
0.0720624
0.190402
0.0749192
0.202172
0.0350866
0.0661854
0.0366916
0.0707326
0.0383636
0.0755524
0.0400947
0.0806691
0.0418985
0.0860897
0.0437688
0.0918364
0.0457056
0.0979344
0.047717
0.10438
0.0498008
0.111217
0.0519529
0.118447
0.054182
0.126099
0.0564843
0.134197
0.058861
0.142767
0.0612994
0.151823
0.0638442
0.161379
0.0664417
0.171486
0.0691242
0.18216
0.0718885
0.193433
0.0747121
0.205332
0.0336298
0.0633708
0.0351649
0.0677122
0.0367697
0.0723265
0.0384322
0.0772149
0.0401652
0.0824024
0.0419548
0.0879038
0.0438157
0.0937263
0.0457504
0.099901
0.0477438
0.106437
0.0498141
0.113356
0.0519493
0.120679
0.054165
0.128419
0.0564489
0.136609
0.0588073
0.145259
0.0612358
0.154431
0.0637254
0.164096
0.0663046
0.174306
0.0689504
0.185098
0.0716766
0.196468
0.074472
0.208479
0.0322284
0.0606778
0.0337036
0.0648321
0.0352434
0.0692384
0.0368437
0.073915
0.0384982
0.0788819
0.0402183
0.0841389
0.0420098
0.0897097
0.04386
0.0956167
0.0457753
0.101869
0.0477653
0.108486
0.0498164
0.115489
0.0519431
0.122901
0.0541305
0.130737
0.0563947
0.139022
0.0587253
0.14777
0.0611355
0.157021
0.0636018
0.166798
0.0661478
0.177108
0.0687737
0.188001
0.0714498
0.19949
0.074207
0.211612
0.030891
0.0581025
0.0323026
0.0620787
0.0337825
0.066293
0.0353092
0.0707729
0.0369015
0.0755117
0.0385594
0.0805408
0.0402737
0.085875
0.0420508
0.0915188
0.0438917
0.0975003
0.0458
0.103835
0.0477693
0.110533
0.0498083
0.117623
0.051913
0.125119
0.0540921
0.13304
0.056328
0.141419
0.0586429
0.150263
0.0610155
0.159607
0.0634718
0.169474
0.0659811
0.179901
0.068552
0.190899
0.0711949
0.202503
0.0739056
0.214727
0.0296065
0.0556461
0.0309622
0.059443
0.032382
0.0634791
0.0338488
0.0677534
0.0353775
0.072297
0.0369618
0.0771093
0.0386052
0.0822093
0.0403129
0.0876129
0.0420794
0.0933312
0.0439109
0.0993893
0.0458085
0.105796
0.0477671
0.112574
0.0497878
0.119749
0.0518805
0.12733
0.0540299
0.135338
0.0562524
0.143809
0.0585327
0.152745
0.060894
0.162185
0.0633052
0.17215
0.0657897
0.182663
0.0683373
0.193756
0.070942
0.205466
0.0736061
0.217811
0.0283778
0.0532966
0.0296772
0.0569311
0.0310356
0.0607894
0.0324474
0.0648805
0.0339125
0.0692185
0.0354345
0.0738242
0.0370158
0.0786987
0.0386577
0.0838646
0.0403532
0.089339
0.0421103
0.0951318
0.0439262
0.101272
0.0458044
0.107758
0.0477461
0.114615
0.0497597
0.121869
0.0518254
0.129535
0.0539565
0.137634
0.0561593
0.146183
0.0584173
0.155222
0.0607275
0.164763
0.0631139
0.174826
0.0655666
0.185434
0.0680711
0.196627
0.0706292
0.208443
0.0732552
0.220876
0.0271992
0.051051
0.0284481
0.0545257
0.0297561
0.0582107
0.0311078
0.0621289
0.0325079
0.0662851
0.0339713
0.0706817
0.0354904
0.0753496
0.0370586
0.0802978
0.0386833
0.0855344
0.0403723
0.091077
0.0421201
0.0969379
0.0439316
0.103144
0.0457965
0.109708
0.0477275
0.116648
0.0497105
0.123984
0.0517601
0.131731
0.0538742
0.139919
0.0560411
0.148559
0.0582771
0.157673
0.0605681
0.167309
0.0629312
0.177461
0.0653323
0.188173
0.0677951
0.199461
0.0703334
0.211365
0.0729029
0.223909
0.0260723
0.0489049
0.0272709
0.0522282
0.0285206
0.0557612
0.0298159
0.0595026
0.031166
0.0634709
0.0325708
0.0676857
0.0340212
0.0721508
0.0355322
0.076876
0.0370975
0.0818837
0.0387206
0.0871862
0.0403939
0.0928032
0.0421323
0.0987372
0.0439218
0.105019
0.0457724
0.111663
0.04768
0.118678
0.0496547
0.12609
0.0516837
0.133922
0.0537732
0.142187
0.0559167
0.150919
0.0581204
0.16012
0.0603988
0.169841
0.0626969
0.180097
0.0650697
0.190898
0.0674944
0.2023
0.0699628
0.214305
0.0724942
0.226942
0.0249905
0.0468561
0.0261407
0.0500351
0.0273375
0.0534113
0.0285809
0.0569962
0.0298759
0.0607926
0.0312207
0.064821
0.0326161
0.0690908
0.0340698
0.0736132
0.0355678
0.0784056
0.0371251
0.0834791
0.0387339
0.0888461
0.0404028
0.0945327
0.0421206
0.100538
0.0439058
0.106886
0.0457444
0.113599
0.0476364
0.120697
0.0495841
0.128189
0.0515935
0.136101
0.0536546
0.144449
0.0557772
0.153263
0.0579513
0.162568
0.060178
0.17236
0.0624662
0.1827
0.0648009
0.193591
0.0671789
0.205084
0.0696091
0.21719
0.072089
0.229929
0.0239565
0.0448968
0.025059
0.0479379
0.0262079
0.0511647
0.0273999
0.0545922
0.0286449
0.0582272
0.0299333
0.0620801
0.031275
0.066162
0.0326651
0.0704955
0.0341059
0.0750752
0.0356023
0.0799285
0.0371452
0.0850679
0.038751
0.090498
0.0404056
0.0962476
0.0421127
0.102331
0.0438759
0.108754
0.0456952
0.11554
0.0475702
0.12271
0.0494983
0.130285
0.0514807
0.138275
0.0535172
0.146709
0.0556102
0.155604
0.0577584
0.164987
0.0599475
0.174879
0.0621975
0.185304
0.0644855
0.196285
0.0668387
0.207855
0.0692174
0.220062
0.0716442
0.232889
0.0229645
0.0430252
0.0240212
0.0459345
0.0251227
0.049023
0.0262678
0.0522968
0.0274659
0.0557713
0.0286978
0.0594627
0.0299858
0.0633692
0.0313209
0.0675062
0.0327094
0.071892
0.0341371
0.0765403
0.0356227
0.0814509
0.0371641
0.0866548
0.0387492
0.0921544
0.0403895
0.0979708
0.0420873
0.10412
0.0438349
0.110615
0.0456358
0.117474
0.0474889
0.12472
0.0494013
0.132364
0.0513591
0.140433
0.053371
0.148948
0.0554358
0.157926
0.057543
0.167392
0.0597106
0.177365
0.0619055
0.187884
0.0641688
0.198955
0.0664571
0.210615
0.068806
0.2229
0.071163
0.235834
0.0220144
0.0412363
0.0230283
0.0440181
0.024085
0.0469723
0.0251842
0.0501066
0.0263295
0.0534332
0.0275113
0.0569577
0.0287544
0.0606942
0.0300344
0.0646558
0.0313592
0.0688565
0.0327332
0.0732959
0.034163
0.0780001
0.0356384
0.0829766
0.037169
0.088235
0.0387462
0.0937978
0.0403758
0.0996823
0.042053
0.105902
0.0437863
0.112464
0.0455666
0.119396
0.0474014
0.12672
0.0492855
0.134438
0.0512201
0.142584
0.0532087
0.151175
0.0552375
0.160232
0.0573188
0.169784
0.0594411
0.17983
0.0616157
0.190437
0.063819
0.201593
0.0660591
0.213362
0.0683382
0.225725
0.0706654
0.238738
0.0211038
0.0395266
0.0220768
0.0421878
0.0230898
0.0450133
0.0241446
0.0480119
0.0252414
0.0511946
0.0263818
0.0545627
0.027567
0.0581451
0.0287933
0.0619352
0.0300681
0.0659469
0.0313948
0.0701949
0.0327673
0.0746916
0.0341854
0.0794531
0.0356515
0.0844941
0.0371627
0.0898184
0.0387256
0.095448
0.0403424
0.101393
0.0420089
0.107679
0.0437188
0.114312
0.0454872
0.12131
0.0473014
0.128704
0.0491573
0.136501
0.0510686
0.144725
0.0530226
0.15339
0.0550255
0.162525
0.0570709
0.172154
0.0591514
0.182294
0.0612843
0.192971
0.0634444
0.204207
0.0656514
0.216049
0.0678774
0.228513
0.0701249
0.241623
1.5933e-06
-9.65546e-05
0.0202315
0.0378944
0.0211634
0.0404401
0.0221365
0.0431411
0.0231475
0.0460104
0.024201
0.0490523
0.0252964
0.05228
0.0264301
0.0556995
0.0276114
0.059327
0.028836
0.0631672
0.0301091
0.0672326
0.0314229
0.0715393
0.0327787
0.0760983
0.0341889
0.0809157
0.0356456
0.0860113
0.0371503
0.0913937
0.0387025
0.0970878
0.0403022
0.1031
0.0419495
0.109449
0.0436452
0.116154
0.0453867
0.123225
0.0471776
0.130684
0.0490202
0.138549
0.0508982
0.146849
0.0528214
0.155594
0.0547911
0.164805
0.0568006
0.174505
0.0588488
0.18473
0.0609333
0.195483
0.0630502
0.206809
0.0651957
0.21873
0.0673702
0.231268
0.069578
0.244449
3.25578e-06
-0.000108425
1.59023e-06
-9.81464e-05
0.0193957
0.0363311
0.0202913
0.0387665
0.0212231
0.0413535
0.0221914
0.0440972
0.0232024
0.0470089
0.024253
0.0500957
0.0253402
0.0533699
0.026475
0.0568359
0.0276546
0.0605085
0.0288726
0.0644038
0.0301326
0.0685229
0.0314411
0.0728769
0.0327989
0.0774882
0.0341961
0.0823652
0.0356399
0.0875217
0.0371289
0.0929673
0.0386668
0.0987232
0.0402537
0.104795
0.041884
0.11121
0.0435577
0.117983
0.0452822
0.125121
0.0470462
0.132658
0.0488556
0.140592
0.0507091
0.148961
0.0526054
0.157779
0.0545378
0.167068
0.0565065
0.176847
0.0585176
0.187145
0.0605491
0.197984
0.0626279
0.209376
0.0647253
0.221375
0.0668417
0.234004
0.0689748
0.247264
5.07748e-06
-0.000119077
3.28692e-06
-0.000110121
1.56437e-06
-9.97123e-05
0.0185958
0.0348403
0.0194522
0.0371701
0.0203473
0.0396424
0.0212777
0.0422671
0.0222469
0.0450527
0.0232546
0.0480073
0.0243008
0.0511351
0.0253877
0.0544572
0.0265172
0.0579733
0.0276901
0.061691
0.0289014
0.065635
0.0301562
0.0698078
0.0314567
0.0742191
0.032798
0.0788864
0.0341844
0.0838207
0.0356202
0.0890303
0.0370964
0.0945378
0.0386214
0.100355
0.0401862
0.106493
0.0418009
0.112967
0.0434577
0.119807
0.0451567
0.12701
0.0468974
0.134616
0.04868
0.142621
0.0505089
0.151058
0.0523693
0.159948
0.0542672
0.169307
0.0562001
0.179164
0.0581626
0.189532
0.0601537
0.200458
0.062171
0.211931
0.0642119
0.224005
0.0662719
0.236707
0.0683469
0.250046
6.98204e-06
-0.000128701
5.07421e-06
-0.000120864
3.27166e-06
-0.000111828
1.63621e-06
-0.00010135
0.0178283
0.0334147
0.0186505
0.035642
0.0195079
0.0380096
0.0204005
0.0405195
0.0213304
0.0431837
0.0222977
0.0460096
0.023302
0.0490061
0.0243474
0.0521754
0.0254304
0.055544
0.0265568
0.0591066
0.027713
0.0628794
0.0289241
0.0668671
0.0301722
0.0710923
0.0314597
0.0755573
0.0327966
0.0802741
0.0341743
0.0852667
0.0355944
0.0905323
0.0370612
0.0960979
0.0385643
0.101977
0.0401149
0.108179
0.041704
0.11472
0.0433416
0.121623
0.0450173
0.12889
0.0467348
0.136561
0.0484891
0.14464
0.0502799
0.153147
0.0521094
0.162106
0.0539729
0.171534
0.0558685
0.181458
0.0577916
0.191894
0.0597423
0.202887
0.0617044
0.214438
0.0636922
0.226584
0.0656991
0.239355
0.0677028
0.252786
9.04727e-06
-0.000138117
7.02023e-06
-0.000130647
5.14196e-06
-0.000122734
3.31039e-06
-0.000113502
1.57901e-06
-0.00010293
0.0170933
0.0320508
0.0178828
0.0341824
0.0187044
0.0364455
0.0195607
0.0388493
0.0204529
0.0413971
0.0213809
0.0441005
0.0223448
0.0469669
0.0233463
0.0500073
0.0243813
0.0532245
0.0254676
0.0566332
0.0265801
0.0602395
0.0277425
0.064061
0.0289405
0.0680989
0.0301806
0.0723714
0.0314616
0.0768924
0.0327869
0.0816616
0.0341538
0.0867073
0.0355574
0.0920361
0.0370036
0.0976586
0.0384987
0.103594
0.0400287
0.109854
0.0416023
0.11646
0.0432166
0.123423
0.0448655
0.13076
0.0465561
0.138494
0.0482859
0.146634
0.0500435
0.155213
0.0518399
0.164239
0.0536611
0.173742
0.055511
0.183739
0.0573856
0.194251
0.0592874
0.205304
0.0612082
0.216922
0.0631296
0.229154
0.0650651
0.241992
0.0670158
0.25548
1.12427e-05
-0.00014763
9.09168e-06
-0.000140189
7.05872e-06
-0.000132564
5.15008e-06
-0.000124573
3.3003e-06
-0.000115223
1.62018e-06
-0.000104551
0.0163897
0.0307476
0.0171455
0.0327881
0.0179344
0.0349524
0.0187555
0.0372508
0.0196123
0.0396898
0.0205
0.0422779
0.0214256
0.0450198
0.0223871
0.047926
0.0233857
0.051003
0.0244269
0.0542652
0.0254928
0.0577205
0.0266086
0.0613733
0.0277629
0.0652386
0.0289507
0.0693288
0.0301828
0.0736501
0.0314572
0.0782221
0.0327631
0.0830523
0.0341171
0.0881476
0.0355115
0.0935282
0.0369447
0.0992126
0.0384193
0.105203
0.0399323
0.111524
0.0414853
0.118191
0.0430742
0.125215
0.0447011
0.132614
0.0463649
0.140415
0.0480552
0.148623
0.0497883
0.157265
0.0515388
0.166361
0.0533243
0.175928
0.0551383
0.185986
0.0569658
0.196572
0.0588093
0.207703
0.0606606
0.219391
0.0625473
0.231672
0.0644164
0.244592
0.0662908
0.258136
1.35762e-05
-0.000157409
1.12954e-05
-0.000149834
9.14119e-06
-0.000142271
7.11465e-06
-0.000134528
5.11428e-06
-0.000126387
3.3929e-06
-0.000116995
1.63536e-06
-0.000106188
0.015714
0.0295027
0.0164401
0.0314529
0.0171968
0.0335257
0.0179827
0.0357252
0.0188048
0.0380583
0.0196576
0.0405322
0.0205468
0.0431567
0.02147
0.0459369
0.0224291
0.0488826
0.0234238
0.052006
0.0244532
0.0553048
0.0255239
0.0588052
0.026628
0.0625082
0.0277721
0.0664172
0.0289519
0.0705598
0.0301738
0.0749334
0.0314352
0.07955
0.0327396
0.0844298
0.0340779
0.0895811
0.0354543
0.0950187
0.036872
0.10076
0.0383273
0.106808
0.0398212
0.113188
0.0413536
0.119912
0.0429142
0.127001
0.044513
0.134466
0.0461486
0.142321
0.047812
0.150599
0.0495056
0.159298
0.0512304
0.168455
0.0529728
0.178094
0.0547347
0.188217
0.0565151
0.198866
0.0583165
0.210047
0.0601201
0.221818
0.0619271
0.234161
0.0637332
0.247149
0.0655263
0.260763
1.60575e-05
-0.000167604
1.36399e-05
-0.000159753
1.13168e-05
-0.000152009
9.16849e-06
-0.000144325
7.13367e-06
-0.000136548
5.21961e-06
-0.000128214
3.34612e-06
-0.000118706
1.62451e-06
-0.000107813
0.0150682
0.028311
0.0157637
0.0301791
0.0164877
0.0321621
0.0172439
0.0342645
0.0180317
0.0364983
0.0188503
0.0388657
0.0197031
0.0413759
0.0205884
0.0440382
0.0215096
0.0468564
0.0224614
0.049845
0.0234543
0.053005
0.0244784
0.0563503
0.0255388
0.0598944
0.0266391
0.0636412
0.0277751
0.067594
0.0289532
0.0717804
0.0301686
0.0762
0.0314156
0.080874
0.0327007
0.085807
0.0340238
0.0910116
0.0353896
0.096501
0.0367931
0.102294
0.0382278
0.108401
0.0396975
0.114845
0.0412017
0.121624
0.0427468
0.128768
0.0443187
0.136296
0.0459212
0.144212
0.0475551
0.152549
0.0492093
0.161319
0.050891
0.170537
0.0525962
0.180233
0.0543111
0.190421
0.0560458
0.201137
0.0577824
0.212384
0.0595353
0.22421
0.0612723
0.236622
0.0630204
0.249655
0.0647555
0.263339
1.86541e-05
-0.000178252
1.60924e-05
-0.000170056
1.36765e-05
-0.000162113
1.14412e-05
-0.000154282
9.24494e-06
-0.000146436
7.17388e-06
-0.000138502
5.19758e-06
-0.000130065
3.38943e-06
-0.00012047
1.69248e-06
-0.000109506
0.0144484
0.0271742
0.0151142
0.0289605
0.0158105
0.0308563
0.0165355
0.0328704
0.0172901
0.0350061
0.0180774
0.0372712
0.0188945
0.0396744
0.0197454
0.042219
0.0206267
0.0449212
0.0215445
0.0477732
0.0224973
0.050802
0.0234799
0.0540035
0.0244987
0.0573904
0.0255574
0.0609761
0.0266497
0.0647666
0.0277754
0.0687718
0.0289434
0.0730056
0.0301394
0.0774762
0.0313798
0.0821948
0.0326533
0.0871775
0.0339659
0.0924354
0.0353124
0.0979817
0.0366916
0.10383
0.0381108
0.109988
0.0395636
0.116483
0.0410436
0.123327
0.0425619
0.130525
0.044107
0.13811
0.0456763
0.146091
0.0472722
0.154487
0.0488919
0.163318
0.0505328
0.1726
0.052191
0.182353
0.0538615
0.192606
0.0555464
0.203373
0.0572324
0.214687
0.0589166
0.226566
0.0606063
0.239036
0.0622648
0.252146
0.0639186
0.265876
2.14614e-05
-0.000189503
1.87476e-05
-0.000180907
1.61891e-05
-0.000172569
1.37762e-05
-0.000164448
1.14542e-05
-0.000156491
9.30272e-06
-0.000148565
7.21105e-06
-0.000140515
5.3189e-06
-0.000131994
3.43352e-06
-0.000122211
1.64383e-06
-0.000111151
0.0138544
0.026086
0.0144936
0.0277947
0.0151613
0.0296097
0.0158566
0.0315352
0.016581
0.0335795
0.017336
0.0357475
0.0181198
0.0380459
0.0189359
0.0404839
0.0197823
0.0430633
0.0206647
0.045801
0.0215746
0.048696
0.0225206
0.0517613
0.0234978
0.0550044
0.0245178
0.05843
0.0255649
0.0620609
0.0266468
0.0658952
0.0277696
0.0699456
0.0289195
0.0742254
0.0301139
0.0787421
0.0313364
0.0835118
0.0326007
0.0885427
0.0338953
0.0938525
0.035224
0.0994493
0.036589
0.105352
0.0379826
0.111569
0.0394113
0.118115
0.0408731
0.125016
0.0423545
0.132277
0.0438729
0.139914
0.0454127
0.147951
0.0469754
0.156403
0.0485607
0.16529
0.0501573
0.174634
0.051771
0.184443
0.0533932
0.194759
0.0550175
0.205588
0.0566488
0.216955
0.0582733
0.228899
0.059884
0.241417
0.0614796
0.254585
0.0630656
0.268367
2.44043e-05
-0.000201322
2.15306e-05
-0.000192286
1.8866e-05
-0.000183584
1.63101e-05
-0.000175103
1.38544e-05
-0.000166848
1.15744e-05
-0.000158763
9.3618e-06
-0.000150716
7.35288e-06
-0.000142549
5.39465e-06
-0.000133955
3.48554e-06
-0.000124053
1.70561e-06
-0.000112857
0.0132849
0.0250462
0.0138985
0.0266812
0.0145385
0.0284175
0.0152046
0.0302617
0.0159003
0.0322159
0.0166236
0.0342919
0.0173766
0.0364907
0.0181599
0.0388218
0.0189735
0.0412927
0.0198174
0.0439106
0.0206924
0.0466832
0.0216019
0.0496147
0.0225426
0.0527165
0.023521
0.0560012
0.0245228
0.059472
0.025571
0.0631367
0.0266464
0.0670184
0.0277539
0.0711112
0.0289009
0.0754385
0.0300773
0.0800012
0.0312933
0.0848192
0.0325332
0.0899048
0.033815
0.0952615
0.0351281
0.10091
0.0364675
0.106867
0.037842
0.113138
0.0392474
0.119741
0.0406801
0.126691
0.0421397
0.13401
0.0436236
0.141703
0.0451267
0.149799
0.0466563
0.158307
0.0481972
0.16725
0.049758
0.176647
0.0513198
0.186517
0.0528963
0.19688
0.0544686
0.207768
0.0560366
0.219192
0.0575992
0.231184
0.0591426
0.243754
0.0606832
0.256967
0.0621696
0.270823
2.75832e-05
-0.000213893
2.45407e-05
-0.000204332
2.17182e-05
-0.000195138
1.89675e-05
-0.000186242
1.63706e-05
-0.000177619
1.39988e-05
-0.000169273
1.16153e-05
-0.000161016
9.48423e-06
-0.000152847
7.41104e-06
-0.000144565
5.39008e-06
-0.00013586
3.49647e-06
-0.000125843
1.72891e-06
-0.000114586
0.0127408
0.0240505
0.0133288
0.0256159
0.0139417
0.027278
0.0145806
0.0290415
0.0152481
0.0309139
0.0159427
0.0328968
0.0166655
0.0350031
0.0174159
0.0372346
0.0181972
0.0395981
0.0190083
0.0421019
0.0198508
0.0447522
0.0207224
0.0475627
0.0216265
0.0505308
0.0225634
0.0536742
0.02353
0.056994
0.024533
0.0605101
0.0255646
0.0642185
0.0266333
0.0681391
0.0277328
0.0722793
0.0288646
0.0766512
0.0300295
0.081265
0.0312247
0.0861277
0.0324582
0.0912616
0.0337193
0.0966702
0.0350146
0.102363
0.0363399
0.108369
0.0376938
0.114692
0.0390701
0.121351
0.0404796
0.128351
0.0419061
0.135728
0.0433545
0.143475
0.0448295
0.151626
0.0463185
0.160186
0.04782
0.169188
0.0493315
0.178635
0.0508476
0.188565
0.0523684
0.19898
0.0538911
0.209914
0.0554021
0.221389
0.0568965
0.23343
0.0583743
0.246063
0.0598208
0.259316
0.0612343
0.273229
3.09671e-05
-0.000227219
2.77473e-05
-0.000217099
2.47124e-05
-0.000207327
2.18488e-05
-0.000198019
1.91024e-05
-0.000188974
1.65872e-05
-0.000180207
1.40245e-05
-0.000171682
1.18081e-05
-0.00016334
9.61375e-06
-0.00015505
7.47675e-06
-0.000146652
5.46971e-06
-0.000137833
3.58168e-06
-0.000127696
1.75612e-06
-0.000116343
0.0122186
0.0231001
0.0127809
0.0245984
0.0133698
0.0261878
0.0139836
0.027875
0.0146229
0.0296668
0.0152888
0.0315678
0.0159818
0.0335804
0.016703
0.0357161
0.0174539
0.0379779
0.0182322
0.0403742
0.0190423
0.0429104
0.0198764
0.0455982
0.020749
0.0484402
0.0216428
0.0514514
0.0225728
0.0546314
0.0235357
0.0579914
0.0245269
0.0615477
0.0255518
0.0652999
0.0266089
0.0692629
0.0276982
0.0734457
0.0288207
0.07786
0.0299726
0.0825171
0.0311628
0.087423
0.032377
0.092604
0.0336203
0.0980646
0.0348936
0.103809
0.0361947
0.109868
0.0375231
0.116239
0.0388825
0.122948
0.0402566
0.13
0.0416577
0.137424
0.0430767
0.145228
0.0445137
0.153431
0.0459596
0.162047
0.0474218
0.171098
0.0488862
0.180596
0.0503594
0.190574
0.0518256
0.201046
0.0532841
0.212032
0.0547269
0.223559
0.0561603
0.235644
0.0575623
0.248321
0.0589422
0.261608
0.0602695
0.275572
3.45684e-05
-0.0002413
3.11166e-05
-0.000230589
2.79533e-05
-0.00022034
2.49219e-05
-0.0002104
2.19725e-05
-0.000200889
1.93524e-05
-0.000191739
1.66923e-05
-0.000182875
1.43386e-05
-0.000174212
1.19711e-05
-0.000165697
9.71203e-06
-0.000157285
7.58714e-06
-0.000148769
5.58326e-06
-0.000139834
3.64131e-06
-0.000129581
1.74717e-06
-0.000118091
0.0117173
0.0221913
0.0122581
0.023623
0.0128218
0.0251463
0.0134094
0.026762
0.0140231
0.0284748
0.0146623
0.0302932
0.0153291
0.0322205
0.01602
0.0342634
0.0167402
0.0364298
0.0174861
0.038724
0.0182623
0.0411542
0.0190645
0.0437223
0.0199027
0.0464445
0.0207599
0.0493231
0.0216614
0.0523628
0.0225825
0.0555845
0.0235386
0.0589797
0.0245247
0.0625748
0.0255379
0.0663709
0.0265898
0.0703714
0.0276661
0.0746002
0.028772
0.0790607
0.029916
0.0837639
0.0310819
0.0887182
0.0322768
0.0939474
0.0335059
0.0994522
0.0347578
0.105246
0.036042
0.11135
0.0373463
0.117775
0.0386689
0.124536
0.0400162
0.131642
0.0413892
0.139112
0.0427729
0.146969
0.0441704
0.15522
0.045582
0.163886
0.0469948
0.172989
0.0484164
0.18254
0.0498349
0.192565
0.0512482
0.203082
0.0526471
0.214112
0.0540317
0.225687
0.0553933
0.237813
0.0567221
0.250542
0.0580065
0.263871
0.0592703
0.277871
3.83138e-05
-0.000256279
3.47546e-05
-0.000244938
3.13602e-05
-0.000233995
2.81541e-05
-0.000223573
2.51325e-05
-0.00021356
2.23065e-05
-0.000203843
1.94499e-05
-0.000194496
1.6906e-05
-0.000185442
1.44495e-05
-0.000176691
1.2061e-05
-0.000168046
9.85747e-06
-0.000159555
7.73453e-06
-0.000150921
5.63664e-06
-0.00014183
3.6709e-06
-0.000131505
1.86379e-06
-0.000119955
0.011239
0.0213204
0.0117556
0.0226937
0.0122957
0.024149
0.0128613
0.0256944
0.0134498
0.0273353
0.0140628
0.0290743
0.0147009
0.0309215
0.0153636
0.0328769
0.016056
0.0349476
0.0167731
0.0371428
0.0175185
0.0394678
0.0182907
0.041928
0.0190899
0.044535
0.0199207
0.0472837
0.0207841
0.0502003
0.0216672
0.0532782
0.0225845
0.0565386
0.0235303
0.0599741
0.0245097
0.063603
0.0255177
0.067443
0.0265516
0.0714859
0.0276163
0.0757558
0.0287157
0.080261
0.0298368
0.085009
0.0309884
0.0900066
0.0321769
0.0952765
0.0333818
0.100828
0.0346117
0.106677
0.0358681
0.112828
0.0371456
0.119298
0.0384478
0.126104
0.0397684
0.133262
0.041106
0.140779
0.0424539
0.148685
0.0438148
0.156987
0.0451784
0.165703
0.0465506
0.174855
0.0479215
0.184453
0.0492858
0.194527
0.050641
0.205088
0.051983
0.21616
0.0533044
0.227776
0.0545865
0.239948
0.0558458
0.252702
0.0570588
0.266083
0.0582234
0.280099
4.23911e-05
-0.000272228
3.86209e-05
-0.000260145
3.50423e-05
-0.00024862
3.16999e-05
-0.000237541
2.84087e-05
-0.000226849
2.54161e-05
-0.000216669
2.24482e-05
-0.000206842
1.97986e-05
-0.000197389
1.71986e-05
-0.000188192
1.46267e-05
-0.000179256
1.22916e-05
-0.000170481
9.99841e-06
-0.000161819
7.82921e-06
-0.000153113
5.74804e-06
-0.000143907
3.82261e-06
-0.000133463
1.85876e-06
-0.000121814
0.0107785
0.0204891
0.0112741
0.021802
0.0117926
0.0231969
0.0123346
0.0246758
0.0128979
0.0262464
0.0134868
0.0279113
0.0140997
0.0296755
0.0147372
0.0315478
0.0154008
0.0335321
0.0160881
0.0356326
0.0168026
0.0378586
0.017545
0.0402135
0.0183128
0.0427051
0.0191106
0.0453451
0.0199359
0.0481318
0.0207839
0.0510836
0.0216696
0.0541931
0.0225788
0.0574901
0.0235194
0.0609644
0.0244885
0.0646322
0.0254849
0.0685097
0.0265071
0.0725951
0.0275654
0.0769061
0.0286468
0.081451
0.029755
0.0862424
0.0308951
0.0912884
0.032053
0.0966053
0.0332387
0.102201
0.0344508
0.108094
0.0356868
0.114287
0.0369375
0.120809
0.0382106
0.127662
0.0394994
0.134869
0.0407976
0.142435
0.0421152
0.150385
0.0434318
0.158734
0.0447611
0.167492
0.0460854
0.176691
0.0474044
0.186334
0.0487182
0.19645
0.0500164
0.207054
0.051288
0.218177
0.0525412
0.229821
0.0537602
0.242034
0.0549351
0.254826
0.0560623
0.268244
0.057113
0.282284
4.66773e-05
-0.000289164
4.2745e-05
-0.000276352
3.89661e-05
-0.000264069
3.53827e-05
-0.000252303
3.19092e-05
-0.000241042
2.8789e-05
-0.000230222
2.56066e-05
-0.000219828
2.27967e-05
-0.00020984
1.99986e-05
-0.000200189
1.73776e-05
-0.000190942
1.49037e-05
-0.000181869
1.25246e-05
-0.000173007
1.01846e-05
-0.000164174
7.9838e-06
-0.000155349
5.94073e-06
-0.000146025
3.80993e-06
-0.000135414
1.85975e-06
-0.000123674
0.0103368
0.0196943
0.0108124
0.0209508
0.0113098
0.0222847
0.0118292
0.0237022
0.0123705
0.0252031
0.0129347
0.0267984
0.0135235
0.0284875
0.0141337
0.030279
0.0147706
0.0321781
0.0154316
0.0341886
0.0161179
0.0363173
0.0168319
0.0385717
0.0175708
0.0409555
0.0183376
0.043478
0.01913
0.0461511
0.0199464
0.0489694
0.020794
0.0519593
0.021668
0.0551039
0.0225733
0.0584362
0.0235036
0.0619493
0.0244611
0.065656
0.0254458
0.069571
0.0264615
0.073699
0.0275032
0.0780497
0.0285717
0.0826343
0.0296684
0.0874691
0.0307792
0.0925621
0.0319243
0.0979196
0.0330958
0.103556
0.0342825
0.109498
0.0354866
0.115737
0.0367132
0.122306
0.0379596
0.129202
0.0392117
0.136455
0.0404782
0.144072
0.0417528
0.152064
0.0430364
0.160458
0.0443164
0.169261
0.0455902
0.178505
0.0468613
0.188191
0.0481183
0.198348
0.0493511
0.208991
0.0505695
0.220148
0.0517497
0.231832
0.0528942
0.244075
0.053991
0.256897
0.0550339
0.270323
0.0560184
0.284395
5.12838e-05
-0.00030722
4.71322e-05
-0.000293551
4.31459e-05
-0.000280532
3.93618e-05
-0.000268048
3.56974e-05
-0.000256091
3.23934e-05
-0.000244646
2.90361e-05
-0.000233651
2.60573e-05
-0.000223088
2.3149e-05
-0.00021299
2.03267e-05
-0.000203138
1.7659e-05
-0.000193698
1.51406e-05
-0.000184485
1.26696e-05
-0.000175492
1.03884e-05
-0.000166579
8.17777e-06
-0.000157586
5.97467e-06
-0.00014819
3.88915e-06
-0.000137444
1.94599e-06
-0.00012562
0.00991635
0.0189326
0.0103707
0.020136
0.0108476
0.021413
0.0113459
0.022768
0.0118656
0.0242071
0.0124066
0.0257312
0.0129707
0.0273512
0.0135562
0.029065
0.014169
0.0308806
0.0148027
0.032807
0.0154622
0.0348442
0.0161464
0.0370029
0.0168544
0.0392882
0.0175888
0.0417044
0.0183481
0.0442599
0.019138
0.0469594
0.0199541
0.0498093
0.0207979
0.0528293
0.0216629
0.0560143
0.022558
0.0593818
0.0234751
0.0629353
0.0244274
0.0666744
0.0254056
0.0706269
0.0264047
0.0747974
0.0274334
0.0791879
0.0284839
0.0838188
0.0295578
0.0886905
0.0306644
0.093822
0.0317853
0.0992302
0.032929
0.10491
0.0340916
0.110893
0.0352766
0.117174
0.0364778
0.123788
0.0376861
0.130727
0.0389115
0.138022
0.0401427
0.145682
0.0413793
0.153721
0.0426137
0.162161
0.0438444
0.171007
0.0450803
0.180286
0.0462947
0.190015
0.0474925
0.200207
0.0486672
0.210894
0.0498138
0.222084
0.0509223
0.233804
0.0519888
0.246077
0.053005
0.258926
0.0539621
0.272379
0.0548785
0.286457
5.61709e-05
-0.000326279
5.17441e-05
-0.000311832
4.75432e-05
-0.000297948
4.35517e-05
-0.000284722
3.97398e-05
-0.000272091
3.6156e-05
-0.000259854
3.27041e-05
-0.000248314
2.95482e-05
-0.000237142
2.6473e-05
-0.000226412
2.34412e-05
-0.000216105
2.06679e-05
-0.000206147
1.80026e-05
-0.00019656
1.53922e-05
-0.000187207
1.29765e-05
-0.00017808
1.06372e-05
-0.000169038
8.31219e-06
-0.000159923
6.11178e-06
-0.000150412
4.06894e-06
-0.000139566
2.00172e-06
-0.000127622
0.00950929
0.018206
0.00994743
0.0193559
0.0104037
0.02058
0.0108819
0.021877
0.01138
0.0232536
0.0118995
0.0247142
0.0124404
0.0262615
0.0130044
0.0279031
0.0135898
0.0296442
0.0141983
0.031485
0.014832
0.0334372
0.0154884
0.0355023
0.0161695
0.0376877
0.0168765
0.0400004
0.0176049
0.0424476
0.0183653
0.0450326
0.0191433
0.0477702
0.0199504
0.0506567
0.0207839
0.0537084
0.0216487
0.0569235
0.022532
0.0603249
0.0234505
0.0639123
0.0243811
0.067699
0.0253491
0.0716825
0.0263366
0.0758942
0.0273474
0.0803245
0.0283864
0.0849902
0.029451
0.0899039
0.0305312
0.0950761
0.0316329
0.100526
0.0327497
0.106252
0.0338982
0.112272
0.0350478
0.118604
0.0362186
0.125255
0.0373965
0.132242
0.0385866
0.139578
0.0397784
0.147283
0.0409771
0.155358
0.0421699
0.163836
0.0433615
0.172726
0.0445369
0.182044
0.0456957
0.191812
0.0468381
0.202036
0.0479524
0.212755
0.0490311
0.223975
0.0500679
0.235725
0.0510564
0.248026
0.0519882
0.2609
0.0528325
0.274425
0.0536369
0.28848
6.12957e-05
-0.000346575
5.66923e-05
-0.000331228
5.22723e-05