/*--------------------------------*- C++ -*----------------------------------*\
  =========                 |
  \\      /  F ield         | OpenFOAM: The Open Source CFD Toolbox
   \\    /   O peration     | Website:  https://openfoam.org
    \\  /    A nd           | Version:  7
     \\/     M anipulation  |
\*---------------------------------------------------------------------------*/
FoamFile
{
    version     2.0;
    format      ascii;
    class       volVectorField;
    location    "1400";
    object      U;
}
// * * * * * * * * * * * * * * * * * * * * * * * * * * * * * * * * * * * * * //

dimensions      [0 1 -1 0 0 0 0];

internalField   nonuniform List<vector> 
23064
(
(49.734 13.3372 7.4978e-17)
(49.7393 13.3633 8.53198e-18)
(49.7345 13.3371 0)
(49.7438 13.3891 -9.01923e-17)
(49.7402 13.363 3.34711e-18)
(49.7351 13.3369 9.84332e-18)
(49.7502 13.4151 -8.65688e-17)
(49.7448 13.3885 8.6146e-17)
(49.741 13.3626 -9.52882e-17)
(49.7358 13.3367 -4.88437e-18)
(49.7575 13.4421 -3.07566e-18)
(49.7517 13.4144 4.33946e-17)
(49.7459 13.3879 -9.16869e-17)
(49.7419 13.3622 5.503e-18)
(49.7364 13.3365 -5.28276e-18)
(49.765 13.4699 0)
(49.7593 13.4411 -4.92033e-17)
(49.7531 13.4135 -9.27741e-17)
(49.747 13.3873 9.03507e-17)
(49.7428 13.3618 5.62622e-18)
(49.7371 13.3362 0)
(49.7731 13.4986 -3.81655e-18)
(49.7672 13.4687 -3.56904e-18)
(49.7611 13.44 5.15772e-17)
(49.7545 13.4126 1.92058e-16)
(49.7481 13.3866 9.54058e-17)
(49.7437 13.3613 -5.73107e-18)
(49.7378 13.336 8.9437e-17)
(49.7816 13.5283 -1.30829e-16)
(49.7757 13.4972 7.63589e-18)
(49.7694 13.4675 0)
(49.7629 13.439 -1.12805e-16)
(49.756 13.4117 -9.29698e-17)
(49.7492 13.3859 -1.85282e-16)
(49.7447 13.3608 0)
(49.7385 13.3357 -1.8483e-16)
(49.7906 13.5591 -1.34788e-16)
(49.7847 13.5268 6.15014e-17)
(49.7783 13.4958 0)
(49.7716 13.4662 -5.57863e-17)
(49.7647 13.4378 1.01078e-16)
(49.7574 13.4108 6.57456e-18)
(49.7503 13.3851 1.94779e-16)
(49.7456 13.3603 5.96691e-18)
(49.7393 13.3354 -8.51391e-18)
(49.8 13.5911 -4.83105e-18)
(49.7941 13.5575 7.69041e-17)
(49.7877 13.5252 -6.95791e-17)
(49.7809 13.4943 -6.06952e-17)
(49.7738 13.4648 5.85119e-17)
(49.7665 13.4366 -6.86915e-18)
(49.7589 13.4097 0)
(49.7514 13.3844 -1.91864e-16)
(49.7466 13.3597 1.04436e-16)
(49.7401 13.335 6.90578e-17)
(49.8096 13.6244 0)
(49.8039 13.5893 -8.75518e-17)
(49.7976 13.5557 8.13282e-17)
(49.7908 13.5235 1.35282e-16)
(49.7835 13.4928 1.25722e-16)
(49.776 13.4634 -1.23376e-16)
(49.7684 13.4353 0)
(49.7604 13.4087 -6.58214e-18)
(49.7525 13.3835 -2.91123e-18)
(49.7476 13.3591 -8.47382e-17)
(49.741 13.3347 9.56329e-17)
(49.8196 13.6591 -4.76406e-17)
(49.8141 13.6225 0)
(49.8079 13.5874 1.60624e-16)
(49.8011 13.5539 -7.53684e-17)
(49.7938 13.5218 -6.56173e-17)
(49.7861 13.4911 -6.51086e-17)
(49.7782 13.4619 2.39347e-16)
(49.7703 13.434 1.2515e-16)
(49.7619 13.4075 0)
(49.7537 13.3827 1.00837e-16)
(49.7486 13.3584 0)
(49.7418 13.3343 -9.43918e-17)
(49.8299 13.6952 0)
(49.8246 13.657 -5.04694e-17)
(49.8186 13.6204 0)
(49.8119 13.5854 -8.30572e-17)
(49.8047 13.5519 8.45164e-17)
(49.7969 13.5199 7.36803e-17)
(49.7888 13.4894 8.1024e-17)
(49.7805 13.4603 -3.8954e-18)
(49.7721 13.4326 -1.16199e-16)
(49.7634 13.4064 -1.12088e-16)
(49.7548 13.3817 6.60254e-18)
(49.7496 13.3578 1.02766e-16)
(49.7428 13.3338 -1.11504e-17)
(49.8405 13.7327 -5.68665e-17)
(49.8355 13.6929 3.53924e-18)
(49.8297 13.6548 1.55867e-16)
(49.8231 13.6183 8.884e-17)
(49.816 13.5833 -9.27789e-17)
(49.8082 13.5499 -7.8362e-17)
(49.8 13.518 -7.24308e-17)
(49.7915 13.4876 8.04638e-17)
(49.7827 13.4587 -1.17829e-16)
(49.774 13.4311 -7.63543e-18)
(49.7649 13.4051 1.03766e-16)
(49.756 13.3808 9.98243e-17)
(49.7507 13.357 -1.14325e-16)
(49.7437 13.3333 1.12679e-17)
(49.8513 13.7719 2.48249e-19)
(49.8466 13.7304 5.60771e-17)
(49.841 13.6906 -6.03376e-17)
(49.8347 13.6525 -9.84243e-17)
(49.8277 13.616 3.09143e-18)
(49.82 13.5811 1.75354e-16)
(49.8118 13.5478 2.59661e-19)
(49.8031 13.516 -1.39908e-17)
(49.7941 13.4857 -1.54809e-16)
(49.785 13.4569 1.39703e-16)
(49.7759 13.4296 0)
(49.7665 13.4038 -2.58419e-19)
(49.7572 13.3798 -9.18591e-17)
(49.7518 13.3563 1.29623e-17)
(49.7447 13.3328 0)
(49.8623 13.8128 -4.45427e-18)
(49.858 13.7694 0)
(49.8527 13.7279 6.70362e-17)
(49.8466 13.6881 1.1752e-16)
(49.8398 13.65 -6.75981e-18)
(49.8322 13.6136 -9.51774e-17)
(49.824 13.5788 -9.32591e-17)
(49.8154 13.5456 -2.62629e-19)
(49.8062 13.5139 8.67148e-17)
(49.7968 13.4838 -1.43561e-16)
(49.7873 13.4552 -1.30045e-16)
(49.7778 13.428 7.57561e-18)
(49.768 13.4025 1.24168e-16)
(49.7583 13.3787 -1.2266e-16)
(49.7529 13.3555 2.13281e-16)
(49.7458 13.3322 2.16138e-16)
(49.8735 13.8554 0)
(49.8696 13.8102 0)
(49.8647 13.7668 -4.17374e-18)
(49.8589 13.7253 -6.61676e-17)
(49.8522 13.6855 -5.00551e-17)
(49.8448 13.6475 0)
(49.8368 13.6111 -1.0615e-16)
(49.8281 13.5764 5.52717e-18)
(49.8189 13.5433 -5.37593e-18)
(49.8094 13.5117 -7.63803e-17)
(49.7995 13.4817 2.78137e-16)
(49.7895 13.4533 -1.35479e-16)
(49.7797 13.4264 -1.34335e-16)
(49.7696 13.4011 -1.15423e-16)
(49.7595 13.3776 2.18191e-16)
(49.754 13.3546 -2.10861e-16)
(49.7468 13.3316 -2.02273e-16)
(49.885 13.8999 -1.35974e-16)
(49.8815 13.8527 -7.8875e-17)
(49.8769 13.8074 0)
(49.8714 13.7641 8.75342e-18)
(49.865 13.7226 0)
(49.8579 13.6828 1.19855e-16)
(49.8499 13.6448 6.6076e-18)
(49.8413 13.6085 1.04877e-16)
(49.8322 13.5739 1.1533e-17)
(49.8225 13.5408 8.61731e-17)
(49.8125 13.5094 9.60949e-18)
(49.8022 13.4796 -1.43801e-16)
(49.7918 13.4513 1.33821e-16)
(49.7816 13.4246 1.25147e-16)
(49.7711 13.3996 -1.19675e-16)
(49.7608 13.3765 -1.23146e-16)
(49.7551 13.3537 0)
(49.748 13.331 2.22262e-16)
(49.8966 13.9463 4.58745e-17)
(49.8936 13.8971 8.46744e-17)
(49.8894 13.8498 1.68582e-16)
(49.8843 13.8045 -4.70455e-18)
(49.8782 13.7612 0)
(49.8712 13.7197 -4.20544e-18)
(49.8635 13.68 -1.18166e-16)
(49.855 13.642 -6.71288e-18)
(49.8459 13.6058 -6.18078e-18)
(49.8362 13.5712 6.00615e-18)
(49.8261 13.5383 -1.72452e-16)
(49.8156 13.507 -1.02221e-17)
(49.8049 13.4774 -9.45635e-18)
(49.7941 13.4493 -8.77265e-18)
(49.7836 13.4228 1.2977e-16)
(49.7727 13.398 1.33e-16)
(49.762 13.3752 -9.83764e-17)
(49.7562 13.3527 -1.375e-17)
(49.7491 13.3302 -2.20044e-16)
(49.9085 13.9948 5.77422e-17)
(49.9059 13.9433 3.27559e-18)
(49.9022 13.894 0)
(49.8974 13.8468 -7.88503e-17)
(49.8916 13.8015 0)
(49.885 13.7581 9.04484e-18)
(49.8774 13.7167 -1.34567e-16)
(49.8691 13.677 -7.84168e-18)
(49.8601 13.6391 1.13493e-16)
(49.8505 13.603 1.04696e-16)
(49.8403 13.5685 9.60539e-17)
(49.8297 13.5357 9.69593e-17)
(49.8188 13.5046 9.87614e-18)
(49.8076 13.4751 -1.42253e-16)
(49.7964 13.4472 1.31719e-16)
(49.7855 13.4209 -2.67801e-16)
(49.7743 13.3964 -1.48453e-17)
(49.7632 13.374 2.24996e-16)
(49.7574 13.3517 1.38976e-17)
(49.7503 13.3295 0)
(49.9206 14.0454 -6.22388e-17)
(49.9185 13.9917 5.37582e-17)
(49.9152 13.9402 -3.33015e-18)
(49.9108 13.8908 9.05957e-17)
(49.9054 13.8436 5.61175e-18)
(49.899 13.7983 -4.85916e-18)
(49.8918 13.755 7.44023e-17)
(49.8837 13.7135 1.40889e-16)
(49.8748 13.6739 7.95616e-18)
(49.8652 13.6361 -1.18903e-16)
(49.8551 13.6 -1.03e-16)
(49.8444 13.5656 -1.0101e-16)
(49.8333 13.533 0)
(49.8219 13.502 -1.76105e-16)
(49.8103 13.4726 1.58909e-16)
(49.7987 13.445 -1.39345e-16)
(49.7874 13.4189 1.38133e-16)
(49.7759 13.3947 0)
(49.7644 13.3726 -1.26919e-16)
(49.7586 13.3507 -2.23904e-16)
(49.7516 13.3286 -2.41119e-16)
(49.9328 14.0982 0)
(49.9312 14.0421 -1.99354e-18)
(49.9284 13.9884 -5.28216e-17)
(49.9245 13.9369 0)
(49.9195 13.8875 -1.98639e-16)
(49.9134 13.8402 0)
(49.9064 13.7949 0)
(49.8986 13.7516 -7.33716e-17)
(49.8899 13.7102 4.8458e-19)
(49.8805 13.6706 0)
(49.8704 13.6329 -1.16607e-16)
(49.8597 13.5969 6.44677e-18)
(49.8485 13.5627 -9.85517e-17)
(49.8369 13.5301 1.09546e-17)
(49.8251 13.4993 -3.91031e-18)
(49.813 13.4701 1.91918e-17)
(49.801 13.4427 -1.52457e-16)
(49.7894 13.4169 0)
(49.7775 13.393 -6.06778e-19)
(49.7657 13.3712 1.46271e-17)
(49.7598 13.3495 -3.76786e-18)
(49.7529 13.3277 4.31917e-16)
(49.9453 14.1533 0)
(49.9443 14.0948 -4.43459e-18)
(49.9419 14.0387 1.30601e-16)
(49.9384 13.9849 1.17953e-16)
(49.9338 13.9333 1.08215e-16)
(49.9281 13.8839 9.6412e-17)
(49.9215 13.8367 0)
(49.9139 13.7914 0)
(49.9054 13.7481 -1.62166e-16)
(49.8961 13.7068 0)
(49.8861 13.6673 0)
(49.8755 13.6296 1.22626e-16)
(49.8643 13.5937 0)
(49.8526 13.5596 9.73534e-17)
(49.8405 13.5272 1.95359e-16)
(49.8282 13.4965 -1.40682e-17)
(49.8157 13.4675 1.56617e-16)
(49.8033 13.4403 -3.04327e-18)
(49.7913 13.4148 1.64417e-17)
(49.7791 13.3911 -1.52745e-17)
(49.7669 13.3698 1.4512e-17)
(49.761 13.3483 2.2348e-16)
(49.7543 13.3268 -2.29286e-16)
(49.958 14.2109 -8.40812e-17)
(49.9575 14.1498 4.629e-18)
(49.9557 14.0912 6.22593e-17)
(49.9527 14.0351 -6.74119e-17)
(49.9485 13.9812 -1.16205e-16)
(49.9432 13.9296 -1.06646e-16)
(49.9368 13.8802 0)
(49.9295 13.833 -5.86005e-18)
(49.9213 13.7877 0)
(49.9122 13.7445 1.50943e-16)
(49.9024 13.7032 9.02847e-18)
(49.8918 13.6637 1.22446e-16)
(49.8806 13.6262 0)
(49.8689 13.5904 0)
(49.8567 13.5564 7.59147e-17)
(49.8442 13.5241 -3.55546e-16)
(49.8314 13.4936 1.6755e-16)
(49.8184 13.4648 1.33595e-17)
(49.8056 13.4378 1.43635e-16)
(49.7933 13.4125 1.5378e-16)
(49.7808 13.3892 -1.26938e-16)
(49.7682 13.3682 0)
(49.7622 13.3471 1.44279e-17)
(49.7557 13.3257 1.20484e-17)
(49.9709 14.271 8.99248e-17)
(49.971 14.2072 8.27645e-17)
(49.9697 14.1461 9.67602e-18)
(49.9672 14.0874 6.42773e-18)
(49.9634 14.0312 -7.03265e-17)
(49.9585 13.9773 -7.70296e-18)
(49.9526 13.9257 -1.11243e-16)
(49.9455 13.8763 -9.58489e-17)
(49.9376 13.8291 -9.34459e-17)
(49.9287 13.7839 0)
(49.9191 13.7407 -1.56374e-16)
(49.9086 13.6994 0)
(49.8975 13.6601 -1.28652e-16)
(49.8858 13.6226 0)
(49.8735 13.5869 6.32434e-18)
(49.8608 13.553 -3.16058e-16)
(49.8478 13.5209 3.71388e-16)
(49.8345 13.4906 1.62587e-16)
(49.8211 13.462 -1.66656e-16)
(49.8079 13.4353 -1.79935e-17)
(49.7952 13.4102 -1.35154e-16)
(49.7824 13.3872 2.37479e-16)
(49.7695 13.3666 1.49835e-17)
(49.7635 13.3458 0)
(49.7571 13.3246 0)
(49.984 14.3337 -3.2437e-18)
(49.9847 14.2672 2.9858e-18)
(49.984 14.2033 -1.06843e-17)
(49.982 14.1421 0)
(49.9787 14.0834 -6.66037e-17)
(49.9742 14.0272 6.89501e-17)
(49.9686 13.9733 -1.22936e-16)
(49.9619 13.9217 1.09691e-16)
(49.9543 13.8723 1.00575e-16)
(49.9457 13.825 1.86804e-16)
(49.9362 13.7799 8.72771e-17)
(49.9259 13.7367 3.13701e-16)
(49.9149 13.6955 0)
(49.9032 13.6563 0)
(49.8909 13.6189 1.29657e-16)
(49.8781 13.5833 -1.26492e-16)
(49.8649 13.5496 2.01703e-16)
(49.8514 13.5176 -1.85665e-16)
(49.8377 13.4875 -3.35365e-16)
(49.8238 13.4591 -1.61282e-16)
(49.8102 13.4326 -1.8902e-17)
(49.7972 13.4078 3.44307e-17)
(49.784 13.3851 1.31836e-16)
(49.7708 13.3649 0)
(49.7647 13.3444 0)
(49.7586 13.3234 0)
(49.9973 14.3992 3.38503e-18)
(49.9987 14.3297 -3.11606e-18)
(49.9986 14.2631 5.73219e-18)
(49.9971 14.1992 0)
(49.9943 14.1379 0)
(49.9902 14.0792 -6.95863e-17)
(49.985 14.0229 0)
(49.9787 13.969 1.13302e-16)
(49.9714 13.9174 0)
(49.963 13.868 0)
(49.9538 13.8208 -9.87881e-17)
(49.9437 13.7757 -9.67061e-17)
(49.9328 13.7326 -3.17434e-16)
(49.9212 13.6915 0)
(49.9089 13.6523 -8.57488e-18)
(49.8961 13.615 -1.05964e-16)
(49.8827 13.5796 2.24348e-16)
(49.869 13.546 0)
(49.855 13.5142 -1.91531e-16)
(49.8408 13.4842 3.49312e-16)
(49.8266 13.4561 1.89672e-16)
(49.8125 13.4298 7.55172e-19)
(49.7992 13.4053 -1.56989e-16)
(49.7857 13.3829 -2.55491e-16)
(49.772 13.3632 1.51902e-17)
(49.766 13.3429 0)
(49.7602 13.3221 0)
(50.0108 14.4676 5.82967e-17)
(50.0129 14.3951 -3.6297e-18)
(50.0134 14.3255 0)
(50.0125 14.2588 -9.07661e-17)
(50.0102 14.1948 0)
(50.0066 14.1335 0)
(50.0018 14.0747 7.2968e-17)
(49.9959 14.0184 8.25532e-18)
(49.9888 13.9645 0)
(49.9808 13.9129 0)
(49.9718 13.8636 -1.18831e-16)
(49.9619 13.8164 1.16426e-17)
(49.9511 13.7713 1.77353e-16)
(49.9396 13.7283 6.57793e-18)
(49.9274 13.6873 8.952e-18)
(49.9146 13.6482 0)
(49.9012 13.611 1.24884e-16)
(49.8873 13.5757 -1.12135e-16)
(49.8731 13.5423 0)
(49.8586 13.5107 1.89501e-16)
(49.8439 13.4809 -1.96661e-16)
(49.8293 13.453 -1.94418e-16)
(49.8148 13.4269 0)
(49.8011 13.4027 -2.01776e-17)
(49.7873 13.3807 -1.58597e-17)
(49.7733 13.3613 0)
(49.7673 13.3414 2.48591e-16)
(49.7618 13.3208 0)
(50.0246 14.5389 8.44986e-18)
(50.0273 14.4633 -1.206e-16)
(50.0285 14.3907 -1.19877e-16)
(50.0282 14.321 1.0044e-16)
(50.0264 14.2542 9.54617e-17)
(50.0233 14.1902 0)
(50.019 14.1288 -5.25257e-18)
(50.0134 14.07 0)
(50.0067 14.0137 0)
(49.999 13.9598 8.10285e-18)
(49.9902 13.9083 1.44437e-17)
(49.9805 13.859 -2.55514e-18)
(49.97 13.8118 1.24563e-17)
(49.9586 13.7668 -1.8595e-16)
(49.9465 13.7239 1.60437e-16)
(49.9337 13.6829 1.40713e-16)
(49.9203 13.6439 -1.3764e-16)
(49.9063 13.6069 -1.39535e-16)
(49.8919 13.5717 1.00935e-16)
(49.8772 13.5384 1.34991e-17)
(49.8622 13.507 2.41963e-17)
(49.8471 13.4774 -1.68641e-16)
(49.832 13.4497 1.73002e-16)
(49.8171 13.424 -1.53612e-16)
(49.8031 13.4 2.63733e-16)
(49.789 13.3783 0)
(49.7746 13.3594 -1.50788e-17)
(49.7686 13.3397 -2.322e-16)
(49.7635 13.3193 -2.30597e-16)
(50.0386 14.6134 -7.99672e-17)
(50.0421 14.5344 6.51117e-17)
(50.0439 14.4587 6.59941e-17)
(50.0442 14.386 -3.31171e-18)
(50.043 14.3163 -1.12112e-16)
(50.0404 14.2494 0)
(50.0365 14.1854 9.67401e-17)
(50.0313 14.124 5.31677e-18)
(50.025 14.0651 0)
(50.0176 14.0088 -8.45808e-18)
(50.0091 13.9549 -1.59455e-17)
(49.9997 13.9034 1.18063e-16)
(49.9893 13.8541 9.25824e-17)
(49.9781 13.8071 0)
(49.9661 13.7621 1.92662e-16)
(49.9534 13.7193 2.05342e-17)
(49.94 13.6784 -1.48543e-16)
(49.926 13.6395 1.52848e-16)
(49.9115 13.6026 1.26477e-16)
(49.8965 13.5676 9.00811e-17)
(49.8813 13.5345 -2.65668e-17)
(49.8658 13.5032 0)
(49.8502 13.4738 1.66793e-16)
(49.8347 13.4464 -9.40662e-19)
(49.8194 13.4209 1.7018e-16)
(49.805 13.3972 2.20251e-18)
(49.7906 13.3758 2.81591e-16)
(49.7759 13.3574 2.42372e-16)
(49.7699 13.338 -1.45743e-17)
(49.7652 13.3177 2.56657e-16)
(50.0528 14.6911 -5.25096e-18)
(50.0571 14.6087 1.50494e-16)
(50.0596 14.5297 -7.28976e-17)
(50.0605 14.4538 -1.29665e-16)
(50.0599 14.3811 2.34808e-16)
(50.0578 14.3113 6.95082e-18)
(50.0544 14.2444 0)
(50.0497 14.1802 -9.55196e-17)
(50.0437 14.1188 5.37929e-18)
(50.0366 14.06 0)
(50.0284 14.0037 -1.33711e-16)
(50.0193 13.9499 -8.28596e-18)
(50.0091 13.8983 -1.16559e-16)
(49.9981 13.8491 1.09216e-16)
(49.9862 13.8021 -1.20323e-17)
(49.9736 13.7572 -1.90007e-16)
(49.9602 13.7145 0)
(49.9462 13.6737 1.62995e-16)
(49.9316 13.635 1.69177e-17)
(49.9166 13.5982 -2.38946e-16)
(49.9011 13.5633 -2.16788e-16)
(49.8853 13.5303 1.3745e-17)
(49.8694 13.4993 1.98367e-16)
(49.8533 13.4701 2.21038e-17)
(49.8373 13.4429 1.46601e-16)
(49.8217 13.4177 1.54973e-16)
(49.807 13.3943 -1.40981e-16)
(49.7923 13.3732 -2.79477e-16)
(49.7772 13.3553 -2.25197e-16)
(49.7712 13.3362 -1.56434e-17)
(49.767 13.316 2.33561e-16)
(31.7928 -2.91217 0)
(50.0672 14.7721 9.10881e-17)
(50.0723 14.6863 5.05216e-18)
(50.0756 14.6038 -1.48163e-16)
(50.0772 14.5246 6.68363e-17)
(50.0772 14.4487 2.66896e-16)
(50.0756 14.3758 -1.24731e-16)
(50.0727 14.306 -1.17894e-16)
(50.0684 14.239 0)
(50.0628 14.1749 -1.15437e-17)
(50.0561 14.1135 -1.71222e-16)
(50.0482 14.0546 0)
(50.0393 13.9984 1.49061e-16)
(50.0294 13.9445 -1.40026e-16)
(50.0186 13.8931 1.12854e-16)
(50.0068 13.8439 1.64585e-17)
(49.9943 13.797 1.28498e-17)
(49.981 13.7522 1.84708e-16)
(49.967 13.7095 -2.09443e-17)
(49.9525 13.6689 1.29564e-17)
(49.9373 13.6303 -1.59588e-16)
(49.9217 13.5936 2.56777e-16)
(49.9057 13.5589 -1.43476e-17)
(49.8894 13.5261 0)
(49.8729 13.4952 3.47081e-18)
(49.8564 13.4663 1.0589e-17)
(49.84 13.4393 -1.66429e-16)
(49.824 13.4143 -3.28576e-16)
(49.8089 13.3912 -2.89974e-16)
(49.794 13.3706 -1.6971e-17)
(49.7786 13.3531 -1.52722e-17)
(49.7725 13.3344 2.37572e-16)
(49.7688 13.3142 -2.07265e-16)
(34.2832 -3.12099 0)
(32.3223 -2.89165 1.68699e-15)
(50.082 14.8567 -1.00396e-16)
(50.0879 14.7671 -5.85238e-18)
(50.0919 14.6811 0)
(50.0942 14.5985 8.10474e-17)
(50.0948 14.5193 1.94741e-18)
(50.0938 14.4432 -2.62198e-16)
(50.0914 14.3703 1.37167e-16)
(50.0876 14.3004 1.02171e-16)
(50.0824 14.2334 6.18813e-18)
(50.0761 14.1693 9.43669e-17)
(50.0685 14.1078 1.79938e-16)
(50.0599 14.0491 0)
(50.0502 13.9928 -1.36478e-16)
(50.0395 13.939 2.7097e-16)
(50.028 13.8876 -1.33702e-16)
(50.0156 13.8385 -2.33767e-16)
(50.0024 13.7917 -2.03774e-16)
(49.9885 13.747 -1.71378e-16)
(49.9739 13.7044 5.82071e-19)
(49.9587 13.6639 2.18635e-17)
(49.943 13.6254 1.40071e-16)
(49.9268 13.5889 -1.28298e-16)
(49.9103 13.5543 0)
(49.8934 13.5217 0)
(49.8765 13.491 -3.87304e-16)
(49.8595 13.4623 0)
(49.8427 13.4356 0)
(49.8263 13.4109 1.68518e-17)
(49.8109 13.3881 1.37712e-17)
(49.7956 13.3678 -1.70615e-17)
(49.7799 13.3508 -2.44992e-16)
(49.7738 13.3324 -2.35828e-16)
(49.7707 13.3123 2.44624e-17)
(36.1374 -3.27583 0)
(34.8234 -3.09766 -7.68565e-21)
(32.8506 -2.867 1.97677e-21)
(50.0969 14.945 6.01882e-17)
(50.1037 14.8515 6.38541e-18)
(50.1086 14.7618 0)
(50.1116 14.6756 0)
(50.1128 14.5929 5.03515e-18)
(50.1125 14.5136 -7.11699e-17)
(50.1106 14.4375 -2.00433e-17)
(50.1072 14.3645 -1.12921e-16)
(50.1025 14.2946 0)
(50.0965 14.2276 -9.73692e-17)
(50.0893 14.1634 -3.18176e-18)
(50.0809 14.102 0)
(50.0715 14.0432 1.70301e-16)
(50.0611 13.987 -3.23133e-18)
(50.0497 13.9333 -1.31333e-16)
(50.0374 13.8819 -1.22842e-16)
(50.0243 13.8329 1.10063e-16)
(50.0105 13.7861 2.01447e-16)
(49.9959 13.7416 1.64766e-16)
(49.9807 13.6991 -1.72036e-16)
(49.9649 13.6587 -1.54382e-16)
(49.9486 13.6203 -1.8347e-17)
(49.9319 13.584 0)
(49.9148 13.5496 0)
(49.8975 13.5172 0)
(49.88 13.4867 1.99608e-16)
(49.8626 13.4582 0)
(49.8453 13.4317 0)
(49.8285 13.4073 1.78706e-17)
(49.8128 13.3848 1.40193e-17)
(49.7973 13.3649 0)
(49.7812 13.3484 4.88869e-16)
(49.7751 13.3303 2.95215e-17)
(49.7727 13.3102 2.44448e-17)
(37.4915 -3.38479 0)
(36.6944 -3.25023 -3.52386e-16)
(35.3648 -3.06988 4.95812e-16)
(33.383 -2.83823 -1.78195e-15)
(50.1121 15.037 5.67691e-17)
(50.1198 14.9396 -1.14886e-16)
(50.1255 14.846 2.02886e-16)
(50.1293 14.7561 -9.48299e-17)
(50.1312 14.6698 -9.25859e-17)
(50.1315 14.587 0)
(50.1301 14.5076 8.89281e-18)
(50.1273 14.4314 1.32463e-16)
(50.123 14.3584 1.24744e-16)
(50.1174 14.2884 -6.89093e-18)
(50.1105 14.2214 9.62609e-17)
(50.1025 14.1573 -9.40954e-17)
(50.0933 14.0959 -1.06257e-17)
(50.0831 14.0372 -3.09479e-16)
(50.0719 13.981 1.44834e-16)
(50.0598 13.9273 0)
(50.0469 13.8761 1.37188e-16)
(50.0331 13.8271 -1.44416e-17)
(50.0186 13.7804 2.57144e-17)
(50.0034 13.736 -3.75729e-16)
(49.9875 13.6936 1.70214e-16)
(49.9711 13.6534 1.9148e-17)
(49.9542 13.6151 1.84995e-17)
(49.937 13.5789 -2.65645e-16)
(49.9193 13.5447 1.54961e-17)
(49.9015 13.5125 2.37003e-16)
(49.8836 13.4822 -2.04309e-16)
(49.8657 13.454 0)
(49.848 13.4277 -1.93295e-16)
(49.8308 13.4036 3.15199e-16)
(49.8147 13.3815 -3.63095e-18)
(49.799 13.3618 -1.72254e-17)
(49.7825 13.3459 -2.74746e-16)
(49.7765 13.3281 -2.95832e-17)
(49.7747 13.308 -2.85348e-17)
(38.6162 -3.47097 0)
(38.0617 -3.35754 0)
(37.2534 -3.2203 3.63458e-16)
(35.9107 -3.03771 1.56197e-20)
(33.9171 -2.80392 0)
(50.1276 15.133 2.24144e-18)
(50.1363 15.0314 1.75146e-18)
(50.1428 14.9338 1.13375e-16)
(50.1474 14.84 -1.01312e-16)
(50.1501 14.75 8.73252e-17)
(50.151 14.6636 8.60433e-17)
(50.1502 14.5807 0)
(50.1479 14.5012 0)
(50.144 14.425 -1.45972e-16)
(50.1388 14.352 -2.49044e-16)
(50.1323 14.282 0)
(50.1246 14.215 -1.12783e-16)
(50.1157 14.1509 1.23598e-17)
(50.1057 14.0895 1.67395e-16)
(50.0948 14.0309 1.59654e-16)
(50.0828 13.9748 0)
(50.07 13.9212 1.20192e-16)
(50.0563 13.87 1.50715e-17)
(50.0418 13.8211 -2.27952e-16)
(50.0266 13.7746 0)
(50.0108 13.7302 3.78955e-16)
(49.9943 13.688 -1.1146e-17)
(49.9773 13.6478 -3.96932e-17)
(49.9599 13.6098 -1.27631e-16)
(49.942 13.5737 -3.63936e-18)
(49.9239 13.5397 -1.48133e-17)
(49.9055 13.5077 -2.20823e-16)
(49.8871 13.4776 2.15649e-16)
(49.8688 13.4496 1.88734e-16)
(49.8506 13.4236 -2.44383e-17)
(49.833 13.3998 2.02816e-18)
(49.8166 13.3779 3.09501e-16)
(49.8006 13.3587 -1.72989e-17)
(49.7838 13.3433 6.25487e-17)
(49.7778 13.3258 3.09411e-17)
(49.7768 13.3056 2.39839e-16)
(39.6148 -3.54447 0)
(39.1986 -3.4426 0)
(38.6341 -3.32594 -5.47321e-16)
(37.8152 -3.18491 3.74516e-16)
(36.4552 -3.00034 0)
(34.4539 -2.76493 -1.8761e-15)
(50.1433 15.2331 -1.42925e-16)
(50.153 15.1272 6.9452e-17)
(50.1605 15.0254 -1.87906e-16)
(50.1659 14.9276 0)
(50.1693 14.8337 -3.33943e-19)
(50.1709 14.7436 0)
(50.1707 14.6571 0)
(50.1689 14.5741 0)
(50.1656 14.4946 -1.41855e-16)
(50.1608 14.4183 -3.25715e-18)
(50.1547 14.3453 1.16244e-16)
(50.1473 14.2753 7.03187e-18)
(50.1387 14.2083 9.17816e-17)
(50.1289 14.1442 -1.96193e-16)
(50.1181 14.0829 -1.75927e-16)
(50.1064 14.0243 -1.6456e-16)
(50.0937 13.9683 0)
(50.0801 13.9148 -1.26318e-16)
(50.0657 13.8637 -1.41288e-16)
(50.0505 13.8149 4.71526e-16)
(50.0347 13.7685 2.10874e-16)
(50.0182 13.7242 1.5147e-17)
(50.0011 13.6821 2.12759e-17)
(49.9835 13.6421 -1.94605e-17)
(49.9655 13.6042 1.2708e-16)
(49.947 13.5684 5.3477e-16)
(49.9284 13.5345 -2.46707e-16)
(49.9095 13.5027 -1.36727e-17)
(49.8906 13.4728 0)
(49.8718 13.4451 4.98609e-17)
(49.8532 13.4194 1.71996e-16)
(49.8352 13.3958 -1.7865e-16)
(49.8185 13.3743 1.8053e-17)
(49.8023 13.3554 2.40323e-16)
(49.7851 13.3406 -2.47167e-16)
(49.7791 13.3235 0)
(49.7789 13.3031 -5.322e-16)
(40.5408 -3.61019 0)
(40.2092 -3.51516 0)
(39.7834 -3.40958 1.8207e-20)
(39.2094 -3.28872 -2.82236e-16)
(38.3789 -3.14498 0)
(37.0072 -2.95765 5.38013e-16)
(34.995 -2.72131 0)
(50.1593 15.3374 -8.43858e-17)
(50.1701 15.227 1.40648e-16)
(50.1785 15.1209 0)
(50.1848 15.019 1.22039e-16)
(50.189 14.9211 -3.6357e-19)
(50.1913 14.827 0)
(50.1917 14.7368 9.80779e-17)
(50.1905 14.6502 0)
(50.1877 14.5672 0)
(50.1833 14.4876 3.01281e-16)
(50.1776 14.4113 2.8517e-16)
(50.1705 14.3383 8.15983e-18)
(50.1622 14.2683 7.48704e-18)
(50.1527 14.2014 1.07999e-16)
(50.1421 14.1373 1.93764e-16)
(50.1305 14.0761 -1.69738e-16)
(50.118 14.0175 1.62624e-16)
(50.1045 13.9616 -9.15776e-18)
(50.0902 13.9081 -1.21264e-16)
(50.075 13.8571 1.25561e-16)
(50.0592 13.8085 -2.28144e-16)
(50.0427 13.7622 3.85251e-18)
(50.0255 13.7181 -1.90842e-16)
(50.0078 13.6761 -1.13232e-17)
(49.9896 13.6363 2.07051e-17)
(49.971 13.5985 -1.48437e-16)
(49.9521 13.5628 -2.67178e-16)
(49.9328 13.5292 -3.81405e-18)
(49.9135 13.4975 0)
(49.8941 13.4679 -2.52403e-17)
(49.8748 13.4404 -1.88364e-16)
(49.8558 13.415 4.36038e-17)
(49.8374 13.3918 1.40422e-16)
(49.8204 13.3705 3.16174e-16)
(49.8039 13.352 -2.7155e-16)
(49.7864 13.3378 2.45607e-16)
(49.7804 13.3209 6.08127e-17)
(49.7811 13.3004 2.68151e-16)
(41.4255 -3.67092 1.43449e-16)
(41.1475 -3.58013 0)
(40.8064 -3.48109 1.90805e-16)
(40.3715 -3.37095 4.60152e-16)
(39.788 -3.24665 0)
(38.9477 -3.09917 -3.96527e-16)
(37.5621 -2.90977 5.51996e-16)
(35.5398 -2.67146 0)
(50.1756 15.4462 -1.71831e-16)
(50.1875 15.3312 -2.28285e-18)
(50.1969 15.2206 -7.2438e-17)
(50.2041 15.1143 -4.35262e-18)
(50.2091 15.0121 1.34489e-16)
(50.2121 14.9141 0)
(50.2133 14.8199 -6.82488e-18)
(50.2126 14.7296 -2.02049e-16)
(50.2103 14.6429 0)
(50.2064 14.5599 -1.0632e-17)
(50.2011 14.4803 -1.50369e-16)
(50.1944 14.404 -2.87879e-16)
(50.1864 14.331 -1.29173e-16)
(50.1771 14.261 -1.18839e-16)
(50.1668 14.1941 -3.38385e-16)
(50.1553 14.1301 -2.47314e-17)
(50.1429 14.069 -3.65498e-18)
(50.1295 14.0105 1.56664e-16)
(50.1153 13.9546 -1.71579e-16)
(50.1002 13.9013 1.20536e-16)
(50.0844 13.8504 0)
(50.0679 13.8019 0)
(50.0507 13.7557 -2.10363e-16)
(50.0329 13.7117 2.42954e-17)
(50.0146 13.6699 -2.00509e-16)
(49.9958 13.6302 0)
(49.9766 13.5927 1.47093e-16)
(49.957 13.5572 -2.90761e-16)
(49.9373 13.5237 2.46264e-16)
(49.9174 13.4923 0)
(49.8975 13.4629 0)
(49.8778 13.4356 -4.77638e-17)
(49.8584 13.4104 2.13869e-17)
(49.8396 13.3875 -3.61659e-16)
(49.8223 13.3666 -1.59607e-17)
(49.8056 13.3484 -2.57521e-16)
(49.7878 13.3348 -2.787e-16)
(49.7817 13.3183 -3.11955e-17)
(49.7833 13.2976 2.14035e-16)
(42.2883 -3.72832 -1.38216e-20)
(42.0449 -3.64017 0)
(41.7576 -3.54515 0)
(41.4075 -3.44133 -1.97327e-16)
(40.9637 -3.32749 0)
(40.3712 -3.19845 2.99525e-16)
(39.5209 -3.04798 -8.15146e-16)
(38.121 -2.85536 0)
(36.0926 -2.61665 0)
(50.1921 15.5595 -2.45538e-19)
(50.2052 15.4397 8.58083e-17)
(50.2157 15.3244 7.9373e-17)
(50.2238 15.2136 7.99074e-17)
(50.2297 15.1072 0)
(50.2335 15.0049 -1.24976e-16)
(50.2353 14.9067 7.11739e-18)
(50.2353 14.8124 6.55366e-18)
(50.2335 14.722 9.7696e-17)
(50.2301 14.6353 1.10904e-17)
(50.2252 14.5522 -1.07333e-17)
(50.2188 14.4726 -9.86095e-18)
(50.2111 14.3964 1.39886e-16)
(50.2022 14.3233 1.27949e-16)
(50.192 14.2535 1.31817e-16)
(50.1808 14.1866 8.79205e-18)
(50.1685 14.1227 0)
(50.1553 14.0616 3.76017e-16)
(50.1411 14.0032 -1.65422e-16)
(50.1261 13.9474 1.51419e-16)
(50.1103 13.8942 0)
(50.0937 13.8435 -2.58117e-16)
(50.0765 13.7951 1.50423e-17)
(50.0587 13.749 -2.67756e-17)
(50.0402 13.7052 0)
(50.0213 13.6635 3.5738e-16)
(50.0019 13.624 -2.10065e-17)
(49.9821 13.5866 -1.32281e-16)
(49.962 13.5513 2.70998e-16)
(49.9417 13.518 -2.35495e-16)
(49.9213 13.4868 0)
(49.901 13.4577 -1.85064e-16)
(49.8808 13.4306 0)
(49.861 13.4058 -1.06571e-18)
(49.8418 13.3831 -1.23452e-16)
(49.8241 13.3626 -3.14627e-16)
(49.8072 13.3448 2.73334e-16)
(49.7891 13.3317 4.94114e-16)
(49.783 13.3156 6.09521e-17)
(49.7856 13.2945 2.20744e-18)
(43.1422 -3.78352 -1.42764e-20)
(42.9208 -3.69699 0)
(42.6681 -3.60447 0)
(42.3719 -3.50447 1.75538e-16)
(42.0133 -3.39654 0)
(41.561 -3.2775 0)
(40.9594 -3.14493 2.92598e-20)
(40.0988 -2.9903 1.25194e-20)
(38.6873 -2.79628 0)
(36.647 -2.55426 3.07732e-20)
(50.2089 15.6776 5.38504e-17)
(50.2232 15.5528 -3.38845e-18)
(50.2348 15.4327 5.65262e-18)
(50.244 15.3172 -5.22483e-18)
(50.2508 15.2062 -7.42357e-17)
(50.2554 15.0996 0)
(50.2579 14.9972 8.21088e-18)
(50.2585 14.8989 0)
(50.2573 14.8045 0)
(50.2544 14.7141 6.40886e-18)
(50.2499 14.6273 1.96887e-16)
(50.244 14.5442 -1.60293e-16)
(50.2366 14.4646 -1.66059e-16)
(50.2279 14.3884 0)
(50.218 14.3154 0)
(50.2069 14.2456 -1.3619e-16)
(50.1948 14.1788 2.31125e-16)
(50.1817 14.115 1.29064e-17)
(50.1676 14.054 3.51546e-18)
(50.1526 13.9957 1.69918e-16)
(50.1368 13.94 0)
(50.1203 13.8869 1.81194e-17)
(50.103 13.8363 2.5635e-16)
(50.0851 13.788 -2.2332e-16)
(50.0666 13.7421 0)
(50.0475 13.6984 0)
(50.0279 13.657 -1.79736e-16)
(50.0079 13.6176 0)
(49.9876 13.5804 1.49189e-16)
(49.967 13.5453 -1.67464e-17)
(49.9461 13.5122 2.49541e-16)
(49.9252 13.4812 0)
(49.9044 13.4523 2.09046e-16)
(49.8838 13.4255 1.92661e-16)
(49.8635 13.4009 -4.42353e-17)
(49.8439 13.3786 3.43071e-16)
(49.826 13.3584 0)
(49.8089 13.3409 -3.51674e-17)
(49.7904 13.3284 -2.77471e-16)
(49.7843 13.3127 0)
(49.788 13.2913 -2.42361e-16)
(43.9959 -3.83724 -1.49299e-20)
(43.7881 -3.75165 0)
(43.5577 -3.66061 0)
(43.2963 -3.56289 -1.88208e-20)
(42.9917 -3.45854 0)
(42.6246 -3.34526 0)
(42.1637 -3.22224 2.5227e-16)
(41.5532 -3.0848 0)
(40.6834 -2.92693 4.29674e-16)
(39.2558 -2.73036 1.18798e-15)
(37.2095 -2.4871 0)
(50.226 15.8007 0)
(50.2415 15.6707 6.36744e-18)
(50.2543 15.5456 -1.98884e-16)
(50.2645 15.4252 5.4461e-18)
(50.2723 15.3095 0)
(50.2778 15.1984 -7.70335e-17)
(50.2811 15.0916 -8.56121e-18)
(50.2823 14.989 8.29511e-18)
(50.2817 14.8906 0)
(50.2794 14.7962 -1.37165e-17)
(50.2753 14.7057 0)
(50.2697 14.619 -3.70546e-16)
(50.2627 14.5359 1.68364e-16)
(50.2543 14.4563 1.64639e-16)
(50.2446 14.3801 0)
(50.2338 14.3072 2.44804e-17)
(50.2218 14.2374 -1.70837e-17)
(50.2088 14.1707 1.95455e-16)
(50.1948 14.107 0)
(50.1799 14.0461 1.53562e-17)
(50.1641 13.9879 -1.57166e-16)
(50.1476 13.9324 1.04722e-18)
(50.1303 13.8794 -1.72908e-17)
(50.1123 13.8289 0)
(50.0937 13.7808 2.35359e-16)
(50.0745 13.735 0)
(50.0548 13.6915 -2.01191e-16)
(50.0346 13.6502 0)
(50.014 13.611 -1.66805e-16)
(49.9931 13.574 -3.04799e-16)
(49.9719 13.5391 0)
(49.9505 13.5062 -1.62484e-17)
(49.9291 13.4754 -2.3267e-16)
(49.9078 13.4468 -1.86982e-16)
(49.8867 13.4202 -1.68905e-16)
(49.866 13.3959 -2.16656e-17)
(49.8461 13.3739 -3.47468e-16)
(49.8278 13.354 3.37457e-16)
(49.8105 13.3369 0)
(49.7917 13.325 2.47867e-16)
(49.7856 13.3096 2.96513e-17)
(49.7904 13.2879 -2.39036e-17)
(44.856 -3.88996 -1.56895e-20)
(44.6558 -3.80483 0)
(44.4392 -3.71465 0)
(44.2002 -3.61825 -2.99602e-16)
(43.9305 -3.51602 0)
(43.6176 -3.40608 0)
(43.2421 -3.28843 0)
(42.7727 -3.15996 0)
(42.1538 -3.01875 -3.48792e-20)
(41.274 -2.85717 -8.81561e-16)
(39.8365 -2.65799 0)
(37.7801 -2.41237 -2.15672e-15)
(50.2433 15.9289 6.06433e-17)
(50.2602 15.7935 3.65497e-18)
(50.2743 15.6632 0)
(50.2856 15.5378 1.95306e-16)
(50.2943 15.4172 9.7202e-17)
(50.3007 15.3013 -5.34298e-18)
(50.3048 15.19 7.59108e-17)
(50.3068 15.0831 1.43888e-16)
(50.3068 14.9804 8.37648e-18)
(50.305 14.882 1.36639e-16)
(50.3014 14.7875 1.1184e-16)
(50.2962 14.697 0)
(50.2895 14.6103 3.7378e-16)
(50.2814 14.5272 -2.14855e-17)
(50.272 14.4476 1.59184e-16)
(50.2613 14.3715 1.46476e-16)
(50.2495 14.2986 0)
(50.2366 14.229 3.80511e-16)
(50.2227 14.1624 -2.20559e-16)
(50.2079 14.0987 -1.24252e-17)
(50.1921 14.0379 -1.96374e-16)
(50.1756 13.9799 -2.0817e-17)
(50.1583 13.9245 0)
(50.1402 13.8716 -1.25792e-16)
(50.1215 13.8213 0)
(50.1022 13.7733 0)
(50.0824 13.7277 2.66035e-17)
(50.062 13.6844 2.25871e-17)
(50.0412 13.6432 2.34547e-17)
(50.02 13.6043 1.65412e-16)
(49.9985 13.5674 -4.29945e-18)
(49.9767 13.5327 1.6952e-17)
(49.9549 13.5001 1.63436e-17)
(49.9329 13.4695 4.64882e-16)
(49.9111 13.4411 2.38641e-16)
(49.8896 13.4148 0)
(49.8685 13.3908 2.17478e-17)
(49.8482 13.3691 3.24682e-16)
(49.8296 13.3495 -2.99065e-16)
(49.8121 13.3327 2.77243e-16)
(49.793 13.3214 -2.77551e-16)
(49.7868 13.3065 2.66713e-16)
(49.7928 13.2842 0)
(45.7272 -3.94203 -1.67331e-20)
(45.5303 -3.85707 1.2203e-16)
(45.3215 -3.76721 0)
(45.0966 -3.67151 1.4211e-16)
(44.8495 -3.57047 0)
(44.5716 -3.46248 -1.7225e-16)
(44.2505 -3.34786 0)
(43.8666 -3.22446 0)
(43.3892 -3.09177 -2.67373e-16)
(42.7622 -2.94587 3.7551e-20)
(41.874 -2.78011 0)
(40.4227 -2.57836 5.51028e-20)
(38.3596 -2.33121 -1.10213e-15)
(50.2609 16.0624 -4.30928e-18)
(50.2792 15.9215 -3.80804e-18)
(50.2946 15.7858 0)
(50.3071 15.6551 0)
(50.3169 15.5295 -1.03505e-16)
(50.3242 15.4087 -8.44921e-17)
(50.3291 15.2926 -8.52369e-17)