/*--------------------------------*- C++ -*----------------------------------*\
  =========                 |
  \\      /  F ield         | OpenFOAM: The Open Source CFD Toolbox
   \\    /   O peration     | Website:  https://openfoam.org
    \\  /    A nd           | Version:  7
     \\/     M anipulation  |
\*---------------------------------------------------------------------------*/
FoamFile
{
    version     2.0;
    format      ascii;
    class       volScalarField;
    location    "1000";
    object      nut;
}
// * * * * * * * * * * * * * * * * * * * * * * * * * * * * * * * * * * * * * //

dimensions      [0 2 -1 0 0 0 0];

internalField   nonuniform List<scalar> 
23023
(
5.31266e-06
5.35081e-06
5.31228e-06
5.35976e-06
5.35191e-06
5.3118e-06
5.35932e-06
5.36215e-06
5.35287e-06
5.31125e-06
5.36258e-06
5.36446e-06
5.35367e-06
5.31063e-06
5.35217e-06
5.36582e-06
5.36669e-06
5.35431e-06
5.30999e-06
5.33169e-06
5.35603e-06
5.36902e-06
5.36883e-06
5.35479e-06
5.30936e-06
5.30508e-06
5.33564e-06
5.3599e-06
5.37217e-06
5.37086e-06
5.35508e-06
5.30881e-06
5.27781e-06
5.30859e-06
5.33967e-06
5.36379e-06
5.37527e-06
5.37279e-06
5.35519e-06
5.30837e-06
5.25813e-06
5.28037e-06
5.31221e-06
5.34377e-06
5.36769e-06
5.37831e-06
5.37461e-06
5.3551e-06
5.30811e-06
5.25569e-06
5.25934e-06
5.28306e-06
5.31596e-06
5.34793e-06
5.37159e-06
5.38128e-06
5.3763e-06
5.35481e-06
5.30804e-06
5.25561e-06
5.26067e-06
5.28589e-06
5.31981e-06
5.35216e-06
5.37548e-06
5.38418e-06
5.37787e-06
5.35433e-06
5.30814e-06
5.26205e-06
5.25555e-06
5.26212e-06
5.28886e-06
5.32378e-06
5.35644e-06
5.37936e-06
5.387e-06
5.3793e-06
5.35363e-06
5.30841e-06
5.26223e-06
5.26225e-06
5.25551e-06
5.2637e-06
5.29197e-06
5.32785e-06
5.36077e-06
5.38321e-06
5.38972e-06
5.38058e-06
5.35273e-06
5.30883e-06
5.25747e-06
5.26283e-06
5.2624e-06
5.25551e-06
5.26542e-06
5.29521e-06
5.33202e-06
5.36514e-06
5.38704e-06
5.39234e-06
5.38171e-06
5.35162e-06
5.30939e-06
5.2517e-06
5.2581e-06
5.26342e-06
5.26251e-06
5.25556e-06
5.26728e-06
5.2986e-06
5.3363e-06
5.36954e-06
5.39082e-06
5.39486e-06
5.38267e-06
5.3503e-06
5.31008e-06
5.25214e-06
5.25874e-06
5.264e-06
5.26258e-06
5.25567e-06
5.26928e-06
5.30212e-06
5.34067e-06
5.37398e-06
5.39456e-06
5.39727e-06
5.38347e-06
5.34879e-06
5.31091e-06
5.24789e-06
5.2526e-06
5.2594e-06
5.26456e-06
5.2626e-06
5.25587e-06
5.27144e-06
5.30577e-06
5.34512e-06
5.37843e-06
5.39824e-06
5.39955e-06
5.38408e-06
5.34709e-06
5.31187e-06
5.24703e-06
5.24812e-06
5.25307e-06
5.26006e-06
5.26509e-06
5.26258e-06
5.25619e-06
5.27375e-06
5.30956e-06
5.34967e-06
5.3829e-06
5.40186e-06
5.4017e-06
5.3845e-06
5.34521e-06
5.31298e-06
5.24717e-06
5.24836e-06
5.25357e-06
5.26073e-06
5.26561e-06
5.26251e-06
5.25662e-06
5.27621e-06
5.31349e-06
5.35429e-06
5.38737e-06
5.40541e-06
5.40372e-06
5.38472e-06
5.34317e-06
5.31423e-06
5.24787e-06
5.2473e-06
5.24861e-06
5.25408e-06
5.26142e-06
5.2661e-06
5.26241e-06
5.25722e-06
5.27884e-06
5.31754e-06
5.35898e-06
5.39184e-06
5.40888e-06
5.40559e-06
5.38474e-06
5.341e-06
5.31564e-06
5.24612e-06
5.24816e-06
5.24743e-06
5.24888e-06
5.25462e-06
5.2621e-06
5.26656e-06
5.26226e-06
5.258e-06
5.28162e-06
5.32172e-06
5.36374e-06
5.39629e-06
5.41225e-06
5.40731e-06
5.38454e-06
5.33872e-06
5.31721e-06
5.24389e-06
5.24643e-06
5.24845e-06
5.24756e-06
5.24917e-06
5.25517e-06
5.26279e-06
5.26698e-06
5.26208e-06
5.25893e-06
5.28457e-06
5.32602e-06
5.36856e-06
5.40073e-06
5.41553e-06
5.40888e-06
5.38412e-06
5.33637e-06
5.31896e-06
5.2429e-06
5.24409e-06
5.24675e-06
5.24875e-06
5.24769e-06
5.24946e-06
5.25574e-06
5.26348e-06
5.26737e-06
5.26188e-06
5.26004e-06
5.28768e-06
5.33045e-06
5.37344e-06
5.40514e-06
5.41871e-06
5.41027e-06
5.38346e-06
5.334e-06
5.32091e-06
5.24291e-06
5.24431e-06
5.24708e-06
5.24905e-06
5.24782e-06
5.24978e-06
5.25632e-06
5.26417e-06
5.26772e-06
5.26164e-06
5.26132e-06
5.29094e-06
5.33499e-06
5.37836e-06
5.40951e-06
5.42176e-06
5.41149e-06
5.38257e-06
5.33165e-06
5.32305e-06
5.2437e-06
5.24293e-06
5.24455e-06
5.24743e-06
5.24936e-06
5.24795e-06
5.25011e-06
5.25693e-06
5.26486e-06
5.26803e-06
5.2614e-06
5.26276e-06
5.29437e-06
5.33964e-06
5.38332e-06
5.41384e-06
5.4247e-06
5.41252e-06
5.38143e-06
5.32939e-06
5.3254e-06
5.24419e-06
5.2437e-06
5.24297e-06
5.2448e-06
5.24779e-06
5.24966e-06
5.24808e-06
5.25046e-06
5.25755e-06
5.26555e-06
5.2683e-06
5.26114e-06
5.26437e-06
5.29795e-06
5.3444e-06
5.38831e-06
5.41812e-06
5.42751e-06
5.41336e-06
5.38005e-06
5.32728e-06
5.32798e-06
5.24426e-06
5.24369e-06
5.24303e-06
5.24508e-06
5.24817e-06
5.24996e-06
5.24821e-06
5.25083e-06
5.25819e-06
5.26622e-06
5.26851e-06
5.26089e-06
5.26613e-06
5.30168e-06
5.34926e-06
5.39332e-06
5.42233e-06
5.43017e-06
5.41401e-06
5.37842e-06
5.3254e-06
5.33079e-06
5.24399e-06
5.24432e-06
5.24367e-06
5.2431e-06
5.24538e-06
5.24855e-06
5.25026e-06
5.24835e-06
5.25122e-06
5.25885e-06
5.26689e-06
5.26868e-06
5.26066e-06
5.26806e-06
5.30557e-06
5.35421e-06
5.39835e-06
5.42646e-06
5.43269e-06
5.41445e-06
5.37654e-06
5.32382e-06
5.33384e-06
5.24326e-06
5.24409e-06
5.24438e-06
5.24365e-06
5.2432e-06
5.24569e-06
5.24895e-06
5.25056e-06
5.2485e-06
5.25163e-06
5.25952e-06
5.26754e-06
5.26879e-06
5.26045e-06
5.27016e-06
5.30961e-06
5.35926e-06
5.40339e-06
5.43052e-06
5.43505e-06
5.41467e-06
5.37442e-06
5.32264e-06
5.33714e-06
5.24335e-06
5.24419e-06
5.24443e-06
5.24362e-06
5.24333e-06
5.24603e-06
5.24936e-06
5.25085e-06
5.24866e-06
5.25206e-06
5.2602e-06
5.26818e-06
5.26885e-06
5.26028e-06
5.27243e-06
5.31379e-06
5.36438e-06
5.40842e-06
5.43448e-06
5.43725e-06
5.41467e-06
5.37207e-06
5.3219e-06
5.34068e-06
5.24259e-06
5.24345e-06
5.24428e-06
5.24448e-06
5.24359e-06
5.24347e-06
5.24639e-06
5.24978e-06
5.25114e-06
5.24883e-06
5.25251e-06
5.2609e-06
5.26879e-06
5.26886e-06
5.26018e-06
5.27487e-06
5.31811e-06
5.36959e-06
5.41345e-06
5.43835e-06
5.43928e-06
5.41443e-06
5.36949e-06
5.3216e-06
5.34447e-06
5.24209e-06
5.24266e-06
5.24354e-06
5.24438e-06
5.24451e-06
5.24355e-06
5.24364e-06
5.24676e-06
5.25021e-06
5.25142e-06
5.24902e-06
5.25298e-06
5.26161e-06
5.26939e-06
5.26882e-06
5.26016e-06
5.27748e-06
5.32258e-06
5.37486e-06
5.41845e-06
5.44211e-06
5.44112e-06
5.41396e-06
5.3667e-06
5.32175e-06
5.34851e-06
5.24215e-06
5.24274e-06
5.24364e-06
5.24447e-06
5.24454e-06
5.24352e-06
5.24384e-06
5.24716e-06
5.25065e-06
5.25169e-06
5.24922e-06
5.25347e-06
5.26232e-06
5.26996e-06
5.26872e-06
5.26024e-06
5.28028e-06
5.32718e-06
5.3802e-06
5.42343e-06
5.44575e-06
5.44278e-06
5.41325e-06
5.36372e-06
5.32231e-06
5.35279e-06
5.24192e-06
5.2422e-06
5.24281e-06
5.24374e-06
5.24456e-06
5.24456e-06
5.24348e-06
5.24405e-06
5.24757e-06
5.25109e-06
5.25195e-06
5.24944e-06
5.25398e-06
5.26305e-06
5.2705e-06
5.26856e-06
5.26045e-06
5.28325e-06
5.33191e-06
5.38559e-06
5.42837e-06
5.44926e-06
5.44424e-06
5.41228e-06
5.36057e-06
5.32329e-06
5.35732e-06
5.24181e-06
5.24198e-06
5.24226e-06
5.24289e-06
5.24384e-06
5.24465e-06
5.24458e-06
5.24344e-06
5.24429e-06
5.248e-06
5.25155e-06
5.25221e-06
5.24967e-06
5.25451e-06
5.26378e-06
5.271e-06
5.26836e-06
5.26082e-06
5.28641e-06
5.33677e-06
5.39103e-06
5.43326e-06
5.45263e-06
5.4455e-06
5.41105e-06
5.35728e-06
5.32466e-06
5.36209e-06
5.24188e-06
5.24203e-06
5.24231e-06
5.24296e-06
5.24393e-06
5.24473e-06
5.24458e-06
5.24341e-06
5.24455e-06
5.24845e-06
5.252e-06
5.25245e-06
5.24992e-06
5.25505e-06
5.26451e-06
5.27148e-06
5.26811e-06
5.26138e-06
5.28974e-06
5.34175e-06
5.39651e-06
5.43809e-06
5.45587e-06
5.44655e-06
5.40957e-06
5.35388e-06
5.32642e-06
5.3671e-06
5.2417e-06
5.24195e-06
5.24209e-06
5.24237e-06
5.24304e-06
5.24403e-06
5.24481e-06
5.24458e-06
5.24339e-06
5.24483e-06
5.24892e-06
5.25247e-06
5.25267e-06
5.25017e-06
5.25562e-06
5.26525e-06
5.27191e-06
5.26782e-06
5.26214e-06
5.29326e-06
5.34685e-06
5.40202e-06
5.44286e-06
5.45894e-06
5.44737e-06
5.40781e-06
5.35043e-06
5.32857e-06
5.37234e-06
5.24134e-06
5.24179e-06
5.24202e-06
5.24214e-06
5.24242e-06
5.24312e-06
5.24413e-06
5.24488e-06
5.24457e-06
5.24338e-06
5.24514e-06
5.2494e-06
5.25293e-06
5.25289e-06
5.25044e-06
5.2562e-06
5.26598e-06
5.2723e-06
5.26749e-06
5.26316e-06
5.29695e-06
5.35206e-06
5.40756e-06
5.44755e-06
5.46186e-06
5.44797e-06
5.40579e-06
5.34695e-06
5.33112e-06
5.37781e-06
5.24083e-06
5.24143e-06
5.24187e-06
5.24209e-06
5.24219e-06
5.24248e-06
5.24319e-06
5.24422e-06
5.24495e-06
5.24454e-06
5.24338e-06
5.24548e-06
5.2499e-06
5.2534e-06
5.25309e-06
5.25071e-06
5.2568e-06
5.26672e-06
5.27264e-06
5.26713e-06
5.26441e-06
5.30082e-06
5.35737e-06
5.41311e-06
5.45216e-06
5.4646e-06
5.44833e-06
5.40351e-06
5.34351e-06
5.33405e-06
5.3835e-06
5.24025e-06
5.24091e-06
5.24152e-06
5.24196e-06
5.24215e-06
5.24224e-06
5.24253e-06
5.24327e-06
5.24432e-06
5.24501e-06
5.24451e-06
5.2434e-06
5.24584e-06
5.25042e-06
5.25387e-06
5.25327e-06
5.251e-06
5.25742e-06
5.26744e-06
5.27294e-06
5.26674e-06
5.2659e-06
5.30486e-06
5.36278e-06
5.41866e-06
5.45667e-06
5.46717e-06
5.44845e-06
5.40096e-06
5.34016e-06
5.33738e-06
5.38941e-06
5.23967e-06
5.24032e-06
5.241e-06
5.24162e-06
5.24204e-06
5.24222e-06
5.24229e-06
5.24258e-06
5.24335e-06
5.24441e-06
5.24507e-06
5.24448e-06
5.24344e-06
5.24622e-06
5.25094e-06
5.25433e-06
5.25343e-06
5.25129e-06
5.25805e-06
5.26816e-06
5.27318e-06
5.26634e-06
5.26763e-06
5.30907e-06
5.36829e-06
5.42421e-06
5.46108e-06
5.46954e-06
5.44831e-06
5.39815e-06
5.33698e-06
5.34111e-06
5.39554e-06
5.23912e-06
5.23971e-06
5.24039e-06
5.24109e-06
5.24171e-06
5.24213e-06
5.24228e-06
5.24234e-06
5.24264e-06
5.24342e-06
5.2445e-06
5.24512e-06
5.24443e-06
5.24351e-06
5.24663e-06
5.25149e-06
5.2548e-06
5.25357e-06
5.2516e-06
5.25869e-06
5.26887e-06
5.27338e-06
5.26594e-06
5.26958e-06
5.31344e-06
5.37388e-06
5.42975e-06
5.46537e-06
5.47172e-06
5.44792e-06
5.3951e-06
5.33404e-06
5.34525e-06
5.40188e-06
5.23914e-06
5.23976e-06
5.24046e-06
5.24118e-06
5.24181e-06
5.24221e-06
5.24234e-06
5.24238e-06
5.24269e-06
5.2435e-06
5.24459e-06
5.24516e-06
5.24438e-06
5.24361e-06
5.24707e-06
5.25204e-06
5.25526e-06
5.2537e-06
5.25191e-06
5.25935e-06
5.26956e-06
5.27351e-06
5.26555e-06
5.27174e-06
5.31797e-06
5.37954e-06
5.43526e-06
5.46953e-06
5.47369e-06
5.44725e-06
5.39181e-06
5.33141e-06
5.34979e-06
5.40842e-06
5.23862e-06
5.23917e-06
5.23982e-06
5.24054e-06
5.24128e-06
5.24191e-06
5.2423e-06
5.2424e-06
5.24242e-06
5.24274e-06
5.24357e-06
5.24468e-06
5.2452e-06
5.24432e-06
5.24375e-06
5.24753e-06
5.2526e-06
5.25572e-06
5.2538e-06
5.25224e-06
5.26002e-06
5.27024e-06
5.27359e-06
5.26517e-06
5.27411e-06
5.32266e-06
5.38528e-06
5.44074e-06
5.47356e-06
5.47545e-06
5.44632e-06
5.3883e-06
5.32919e-06
5.35476e-06
5.41516e-06
5.23817e-06
5.23862e-06
5.2392e-06
5.23988e-06
5.24063e-06
5.24138e-06
5.24202e-06
5.24238e-06
5.24246e-06
5.24246e-06
5.24278e-06
5.24365e-06
5.24476e-06
5.24523e-06
5.24426e-06
5.24392e-06
5.24801e-06
5.25318e-06
5.25617e-06
5.25389e-06
5.25258e-06
5.26071e-06
5.2709e-06
5.27362e-06
5.26484e-06
5.27669e-06
5.32749e-06
5.39108e-06
5.44618e-06
5.47745e-06
5.47699e-06
5.4451e-06
5.3846e-06
5.32747e-06
5.36014e-06
5.42209e-06
5.23816e-06
5.23863e-06
5.23924e-06
5.23994e-06
5.24071e-06
5.24148e-06
5.24212e-06
5.24247e-06
5.24252e-06
5.2425e-06
5.24283e-06
5.24373e-06
5.24484e-06
5.24524e-06
5.2442e-06
5.24413e-06
5.24852e-06
5.25376e-06
5.25661e-06
5.25395e-06
5.25293e-06
5.2614e-06
5.27153e-06
5.27358e-06
5.26456e-06
5.27946e-06
5.33247e-06
5.39693e-06
5.45156e-06
5.48119e-06
5.47829e-06
5.4436e-06
5.38072e-06
5.32633e-06
5.36593e-06
5.42921e-06
5.23782e-06
5.23815e-06
5.23865e-06
5.23927e-06
5.24001e-06
5.24081e-06
5.24159e-06
5.24222e-06
5.24255e-06
5.24257e-06
5.24254e-06
5.24288e-06
5.2438e-06
5.24492e-06
5.24525e-06
5.24413e-06
5.24437e-06
5.24905e-06
5.25435e-06
5.25704e-06
5.254e-06
5.25329e-06
5.26211e-06
5.27214e-06
5.27348e-06
5.26436e-06
5.28244e-06
5.33758e-06
5.40283e-06
5.45688e-06
5.48476e-06
5.47936e-06
5.44181e-06
5.37671e-06
5.32585e-06
5.37214e-06
5.43651e-06
5.23771e-06
5.23779e-06
5.23814e-06
5.23866e-06
5.23932e-06
5.24008e-06
5.2409e-06
5.2417e-06
5.24233e-06
5.24263e-06
5.24262e-06
5.24257e-06
5.24292e-06
5.24387e-06
5.24499e-06
5.24525e-06
5.24407e-06
5.24465e-06
5.2496e-06
5.25495e-06
5.25746e-06
5.25402e-06
5.25367e-06
5.26282e-06
5.27272e-06
5.27333e-06
5.26426e-06
5.28561e-06
5.34282e-06
5.40876e-06
5.46213e-06
5.48815e-06
5.48018e-06
5.43973e-06
5.37259e-06
5.32601e-06
5.37877e-06
5.44398e-06
5.23791e-06
5.23767e-06
5.23777e-06
5.23813e-06
5.23868e-06
5.23936e-06
5.24016e-06
5.241e-06
5.24181e-06
5.24243e-06
5.24272e-06
5.24267e-06
5.2426e-06
5.24297e-06
5.24395e-06
5.24506e-06
5.24525e-06
5.24401e-06
5.24495e-06
5.25017e-06
5.25555e-06
5.25786e-06
5.25403e-06
5.25406e-06
5.26354e-06
5.27326e-06
5.27312e-06
5.26427e-06
5.28898e-06
5.34819e-06
5.41472e-06
5.4673e-06
5.49137e-06
5.48074e-06
5.43736e-06
5.36842e-06
5.32683e-06
5.38581e-06
5.45162e-06
5.2384e-06
5.23787e-06
5.23762e-06
5.23774e-06
5.23813e-06
5.2387e-06
5.23942e-06
5.24024e-06
5.24111e-06
5.24193e-06
5.24254e-06
5.24279e-06
5.24271e-06
5.24263e-06
5.24301e-06
5.24402e-06
5.24513e-06
5.24523e-06
5.24396e-06
5.24529e-06
5.25076e-06
5.25616e-06
5.25825e-06
5.25401e-06
5.25447e-06
5.26426e-06
5.27377e-06
5.27285e-06
5.26444e-06
5.29254e-06
5.35367e-06
5.4207e-06
5.47237e-06
5.49439e-06
5.48104e-06
5.43468e-06
5.36425e-06
5.32828e-06
5.39325e-06
5.45942e-06
5.23898e-06
5.23837e-06
5.23781e-06
5.23758e-06
5.23772e-06
5.23813e-06
5.23872e-06
5.23947e-06
5.24032e-06
5.24121e-06
5.24204e-06
5.24265e-06
5.24287e-06
5.24275e-06
5.24265e-06
5.24305e-06
5.24409e-06
5.24519e-06
5.2452e-06
5.24391e-06
5.24566e-06
5.25137e-06
5.25676e-06
5.25863e-06
5.25399e-06
5.25489e-06
5.26499e-06
5.27424e-06
5.27253e-06
5.26478e-06
5.29629e-06
5.35927e-06
5.42669e-06
5.47734e-06
5.49722e-06
5.48107e-06
5.43172e-06
5.36012e-06
5.33034e-06
5.4011e-06
5.46737e-06
5.23945e-06
5.23899e-06
5.23833e-06
5.23776e-06
5.23754e-06
5.2377e-06
5.23813e-06
5.23875e-06
5.23953e-06
5.24041e-06
5.24133e-06
5.24216e-06
5.24275e-06
5.24294e-06
5.24279e-06
5.24268e-06
5.24309e-06
5.24416e-06
5.24524e-06
5.24517e-06
5.24388e-06
5.24606e-06
5.252e-06
5.25737e-06
5.25898e-06
5.25395e-06
5.25534e-06
5.26572e-06
5.27467e-06
5.27217e-06
5.26534e-06
5.30023e-06
5.36497e-06
5.43268e-06
5.4822e-06
5.49983e-06
5.48082e-06
5.42847e-06
5.35611e-06
5.33298e-06
5.40934e-06
5.47546e-06
5.23967e-06
5.23951e-06
5.23899e-06
5.23829e-06
5.2377e-06
5.2375e-06
5.23768e-06
5.23813e-06
5.23879e-06
5.2396e-06
5.24051e-06
5.24144e-06
5.24229e-06
5.24286e-06
5.24302e-06
5.24283e-06
5.2427e-06
5.24313e-06
5.24423e-06
5.24529e-06
5.24512e-06
5.24386e-06
5.24649e-06
5.25264e-06
5.25798e-06
5.25932e-06
5.2539e-06
5.2558e-06
5.26644e-06
5.27506e-06
5.27176e-06
5.26613e-06
5.30436e-06
5.37077e-06
5.43866e-06
5.48693e-06
5.50222e-06
5.48028e-06
5.42495e-06
5.35229e-06
5.33619e-06
5.41798e-06
5.48369e-06
5.23959e-06
5.23977e-06
5.23956e-06
5.23899e-06
5.23824e-06
5.23764e-06
5.23746e-06
5.23767e-06
5.23814e-06
5.23882e-06
5.23967e-06
5.24061e-06
5.24156e-06
5.24241e-06
5.24297e-06
5.24308e-06
5.24285e-06
5.24271e-06
5.24317e-06
5.24429e-06
5.24533e-06
5.24507e-06
5.24387e-06
5.24695e-06
5.2533e-06
5.25859e-06
5.25963e-06
5.25384e-06
5.25629e-06
5.26717e-06
5.27539e-06
5.27131e-06
5.2672e-06
5.30866e-06
5.37665e-06
5.44462e-06
5.49152e-06
5.50438e-06
5.47945e-06
5.42115e-06
5.34873e-06
5.33995e-06
5.427e-06
5.49204e-06
5.23923e-06
5.23972e-06
5.23987e-06
5.2396e-06
5.23898e-06
5.23819e-06
5.23758e-06
5.23743e-06
5.23765e-06
5.23815e-06
5.23886e-06
5.23974e-06
5.24071e-06
5.24168e-06
5.24253e-06
5.24307e-06
5.24315e-06
5.24288e-06
5.24273e-06
5.24321e-06
5.24436e-06
5.24537e-06
5.24501e-06
5.2439e-06
5.24743e-06
5.25398e-06
5.25919e-06
5.25991e-06
5.25379e-06
5.2568e-06
5.26789e-06
5.27568e-06
5.27084e-06
5.26856e-06
5.31315e-06
5.38262e-06
5.45054e-06
5.49597e-06
5.50631e-06
5.47832e-06
5.4171e-06
5.34551e-06
5.34426e-06
5.43639e-06
5.50051e-06
5.23868e-06
5.23937e-06
5.23985e-06
5.23996e-06
5.23965e-06
5.23896e-06
5.23813e-06
5.23752e-06
5.2374e-06
5.23764e-06
5.23816e-06
5.23891e-06
5.23982e-06
5.24082e-06
5.24181e-06
5.24266e-06
5.24317e-06
5.24321e-06
5.2429e-06
5.24274e-06
5.24325e-06
5.24442e-06
5.24539e-06
5.24494e-06
5.24396e-06
5.24795e-06
5.25466e-06
5.25979e-06
5.26018e-06
5.25373e-06
5.25732e-06
5.2686e-06
5.27591e-06
5.27034e-06
5.27021e-06
5.31781e-06
5.38866e-06
5.45643e-06
5.50026e-06
5.50799e-06
5.47688e-06
5.41281e-06
5.34273e-06
5.3491e-06
5.44616e-06
5.50908e-06
5.23802e-06
5.23881e-06
5.23952e-06
5.23998e-06
5.24006e-06
5.23968e-06
5.23894e-06
5.23807e-06
5.23746e-06
5.23737e-06
5.23764e-06
5.23818e-06
5.23896e-06
5.23991e-06
5.24093e-06
5.24194e-06
5.24279e-06
5.24327e-06
5.24327e-06
5.24292e-06
5.24275e-06
5.24328e-06
5.24448e-06
5.24542e-06
5.24487e-06
5.24406e-06
5.2485e-06
5.25536e-06
5.26038e-06
5.26041e-06
5.25369e-06
5.25787e-06
5.2693e-06
5.27608e-06
5.26984e-06
5.27215e-06
5.32263e-06
5.39477e-06
5.46227e-06
5.50439e-06
5.50941e-06
5.47514e-06
5.40831e-06
5.34048e-06
5.35446e-06
5.45629e-06
5.51775e-06
5.23736e-06
5.23814e-06
5.23895e-06
5.23967e-06
5.24012e-06
5.24015e-06
5.23972e-06
5.23891e-06
5.238e-06
5.2374e-06
5.23735e-06
5.23763e-06
5.2382e-06
5.23901e-06
5.24e-06
5.24105e-06
5.24207e-06
5.24292e-06
5.24337e-06
5.24332e-06
5.24293e-06
5.24275e-06
5.24332e-06
5.24454e-06
5.24543e-06
5.24479e-06
5.2442e-06
5.24907e-06
5.25607e-06
5.26096e-06
5.26061e-06
5.25366e-06
5.25844e-06
5.26999e-06
5.2762e-06
5.26934e-06
5.27436e-06
5.32761e-06
5.40094e-06
5.46804e-06
5.50834e-06
5.51057e-06
5.47307e-06
5.40363e-06
5.33887e-06
5.36033e-06
5.46678e-06
5.52652e-06
5.23674e-06
5.23745e-06
5.23826e-06
5.2391e-06
5.23982e-06
5.24025e-06
5.24024e-06
5.23974e-06
5.23887e-06
5.23793e-06
5.23735e-06
5.23734e-06
5.23763e-06
5.23822e-06
5.23907e-06
5.24009e-06
5.24117e-06
5.24221e-06
5.24305e-06
5.24347e-06
5.24337e-06
5.24294e-06
5.24275e-06
5.24335e-06
5.24459e-06
5.24543e-06
5.24471e-06
5.24438e-06
5.24967e-06
5.25678e-06
5.26153e-06
5.26079e-06
5.25366e-06
5.25903e-06
5.27066e-06
5.27626e-06
5.26885e-06
5.27683e-06
5.33274e-06
5.40715e-06
5.47374e-06
5.5121e-06
5.51146e-06
5.47069e-06
5.39879e-06
5.33797e-06
5.36671e-06
5.47766e-06
5.53531e-06
5.23619e-06
5.2368e-06
5.23755e-06
5.2384e-06
5.23926e-06
5.23998e-06
5.24039e-06
5.24032e-06
5.23976e-06
5.23882e-06
5.23785e-06
5.2373e-06
5.23734e-06
5.23764e-06
5.23825e-06
5.23913e-06
5.24019e-06
5.2413e-06
5.24235e-06
5.24318e-06
5.24357e-06
5.24341e-06
5.24294e-06
5.24275e-06
5.24338e-06
5.24464e-06
5.24543e-06
5.24463e-06
5.24461e-06
5.25029e-06
5.2575e-06
5.26209e-06
5.26093e-06
5.25368e-06
5.25964e-06
5.27132e-06
5.27627e-06
5.2684e-06
5.27953e-06
5.33802e-06
5.4134e-06
5.47935e-06
5.51566e-06
5.51206e-06
5.46799e-06
5.39384e-06
5.33788e-06
5.37361e-06
5.4888e-06
5.54408e-06
5.23574e-06
5.23623e-06
5.23687e-06
5.23766e-06
5.23854e-06
5.23942e-06
5.24014e-06
5.24052e-06
5.2404e-06
5.23977e-06
5.23877e-06
5.23776e-06
5.23725e-06
5.23734e-06
5.23764e-06
5.23828e-06
5.23921e-06
5.2403e-06
5.24143e-06
5.24249e-06
5.2433e-06
5.24366e-06
5.24345e-06
5.24294e-06
5.24275e-06
5.24341e-06
5.24469e-06
5.24542e-06
5.24454e-06
5.24489e-06
5.25094e-06
5.25823e-06
5.26264e-06
5.26104e-06
5.25374e-06
5.26027e-06
5.27195e-06
5.27621e-06
5.26799e-06
5.28247e-06
5.34343e-06
5.41968e-06
5.48488e-06
5.51902e-06
5.51238e-06
5.46497e-06
5.38882e-06
5.3386e-06
5.38096e-06
5.50017e-06
5.55292e-06
5.23544e-06
5.23576e-06
5.23627e-06
5.23695e-06
5.23778e-06
5.23869e-06
5.23959e-06
5.24031e-06
5.24065e-06
5.24048e-06
5.23977e-06
5.23871e-06
5.23768e-06
5.23722e-06
5.23735e-06
5.23765e-06
5.23831e-06
5.23928e-06
5.24041e-06
5.24157e-06
5.24264e-06
5.24343e-06
5.24375e-06
5.24348e-06
5.24293e-06
5.24274e-06
5.24344e-06
5.24473e-06
5.2454e-06
5.24446e-06
5.24521e-06
5.25162e-06
5.25896e-06
5.26317e-06
5.26112e-06
5.25385e-06
5.26092e-06
5.27256e-06
5.27609e-06
5.26765e-06
5.28563e-06
5.34898e-06
5.42598e-06
5.49029e-06
5.52216e-06
5.51239e-06
5.46165e-06
5.38375e-06
5.34013e-06
5.3887e-06
5.51185e-06
5.56177e-06
5.23545e-06
5.23578e-06
5.23633e-06
5.23704e-06
5.23791e-06
5.23885e-06
5.23977e-06
5.24048e-06
5.24079e-06
5.24055e-06
5.23977e-06
5.23864e-06
5.23759e-06
5.23719e-06
5.23736e-06
5.23766e-06
5.23835e-06
5.23936e-06
5.24053e-06
5.24171e-06
5.24278e-06
5.24356e-06
5.24383e-06
5.24351e-06
5.24292e-06
5.24274e-06
5.24347e-06
5.24477e-06
5.24537e-06
5.24439e-06
5.24557e-06
5.25231e-06
5.2597e-06
5.26368e-06
5.26116e-06
5.254e-06
5.26158e-06
5.27314e-06
5.27591e-06
5.2674e-06
5.28901e-06
5.35465e-06
5.43228e-06
5.49559e-06
5.52507e-06
5.51211e-06
5.45797e-06
5.37873e-06
5.34238e-06
5.39689e-06
5.52381e-06
5.57061e-06
5.23537e-06
5.23545e-06
5.23581e-06
5.23639e-06
5.23714e-06
5.23804e-06
5.23902e-06
5.23995e-06
5.24065e-06
5.24092e-06
5.24061e-06
5.23975e-06
5.23856e-06
5.23751e-06
5.23718e-06
5.23737e-06
5.23767e-06
5.2384e-06
5.23945e-06
5.24065e-06
5.24186e-06
5.24293e-06
5.24369e-06
5.24391e-06
5.24353e-06
5.2429e-06
5.24273e-06
5.24349e-06
5.24481e-06
5.24534e-06
5.24432e-06
5.24597e-06
5.25302e-06
5.26043e-06
5.26418e-06
5.26116e-06
5.25419e-06
5.26226e-06
5.27369e-06
5.27567e-06
5.26726e-06
5.2926e-06
5.36043e-06
5.43859e-06
5.50076e-06
5.52775e-06
5.51148e-06
5.45399e-06
5.37388e-06
5.34535e-06
5.4055e-06
5.536e-06
5.57945e-06
5.23538e-06
5.23546e-06
5.23584e-06
5.23645e-06
5.23725e-06
5.23819e-06
5.2392e-06
5.24014e-06
5.24083e-06
5.24105e-06
5.24067e-06
5.23973e-06
5.23847e-06
5.23742e-06
5.23718e-06
5.23739e-06
5.23769e-06
5.23845e-06
5.23954e-06
5.24078e-06
5.24201e-06
5.24308e-06
5.24382e-06
5.24399e-06
5.24355e-06
5.24288e-06
5.24271e-06
5.24352e-06
5.24484e-06
5.24529e-06
5.24427e-06
5.24641e-06
5.25376e-06
5.26117e-06
5.26465e-06
5.26114e-06
5.25442e-06
5.26295e-06
5.2742e-06
5.27537e-06
5.26726e-06
5.29639e-06
5.36632e-06
5.44489e-06
5.50579e-06
5.53016e-06
5.5105e-06
5.44978e-06
5.36919e-06
5.349e-06
5.41451e-06
5.54843e-06
5.58825e-06
5.23561e-06
5.23538e-06
5.23548e-06
5.23588e-06
5.23653e-06
5.23737e-06
5.23834e-06
5.23938e-06
5.24033e-06
5.241e-06
5.24117e-06
5.24072e-06
5.23969e-06
5.23838e-06
5.23734e-06
5.23718e-06
5.23741e-06
5.2377e-06
5.2385e-06
5.23964e-06
5.24092e-06
5.24216e-06
5.24323e-06
5.24394e-06
5.24406e-06
5.24356e-06
5.24285e-06
5.2427e-06
5.24354e-06
5.24487e-06
5.24524e-06
5.24423e-06
5.24688e-06
5.25451e-06
5.2619e-06
5.2651e-06
5.26107e-06
5.25468e-06
5.26364e-06
5.27468e-06
5.27502e-06
5.26742e-06
5.30038e-06
5.37231e-06
5.45116e-06
5.51068e-06
5.53227e-06
5.50925e-06
5.44531e-06
5.36476e-06
5.3533e-06
5.42389e-06
5.56108e-06
5.59702e-06
5.23563e-06
5.23539e-06
5.23549e-06
5.23593e-06
5.23662e-06
5.2375e-06
5.23851e-06
5.23957e-06
5.24053e-06
5.24118e-06
5.24129e-06
5.24076e-06
5.23965e-06
5.23828e-06
5.23727e-06
5.2372e-06
5.23743e-06
5.23772e-06
5.23856e-06
5.23975e-06
5.24106e-06
5.24232e-06
5.24339e-06
5.24406e-06
5.24413e-06
5.24356e-06
5.24282e-06
5.24268e-06
5.24357e-06
5.24489e-06
5.24518e-06
5.24421e-06
5.24739e-06
5.25527e-06
5.26262e-06
5.26553e-06
5.26097e-06
5.25498e-06
5.26435e-06
5.27511e-06
5.27462e-06
5.26777e-06
5.30456e-06
5.37839e-06
5.45742e-06
5.51534e-06
5.53413e-06
5.50768e-06
5.44061e-06
5.36067e-06
5.3582e-06
5.43365e-06
5.57393e-06
5.60574e-06
5.23565e-06
5.2354e-06
5.23551e-06
5.23598e-06
5.23671e-06
5.23763e-06
5.23868e-06
5.23977e-06
5.24073e-06
5.24135e-06
5.24141e-06
5.24079e-06
5.2396e-06
5.23817e-06
5.2372e-06
5.23722e-06
5.23745e-06
5.23775e-06
5.23863e-06
5.23986e-06
5.2412e-06
5.24248e-06
5.24354e-06
5.24418e-06
5.24419e-06
5.24356e-06
5.24278e-06
5.24266e-06
5.24359e-06
5.24491e-06
5.24512e-06
5.24421e-06
5.24793e-06
5.25605e-06
5.26334e-06
5.26593e-06
5.26084e-06
5.2553e-06
5.26506e-06
5.27551e-06
5.27418e-06
5.26835e-06
5.30893e-06
5.38457e-06
5.46358e-06
5.51981e-06
5.53572e-06
5.5058e-06
5.4357e-06
5.35697e-06
5.36369e-06
5.44375e-06
5.58698e-06
5.6144e-06
5.23567e-06
5.2354e-06
5.23554e-06
5.23604e-06
5.23681e-06
5.23778e-06
5.23886e-06
5.23998e-06
5.24094e-06
5.24153e-06
5.24152e-06
5.24081e-06
5.23953e-06
5.23806e-06
5.23715e-06
5.23725e-06
5.23746e-06
5.23777e-06
5.2387e-06
5.23998e-06
5.24136e-06
5.24264e-06
5.24369e-06
5.2443e-06
5.24424e-06
5.24355e-06
5.24274e-06
5.24264e-06
5.24361e-06
5.24492e-06
5.24504e-06
5.24424e-06
5.2485e-06
5.25685e-06
5.26406e-06
5.26631e-06
5.26067e-06
5.25565e-06
5.26577e-06
5.27585e-06
5.27369e-06
5.26919e-06
5.31351e-06
5.39078e-06
5.46963e-06
5.5241e-06
5.53704e-06
5.50361e-06
5.43061e-06
5.35376e-06
5.36974e-06
5.45421e-06
5.6002e-06
5.62298e-06
5.23625e-06
5.23569e-06
5.23541e-06
5.23556e-06
5.2361e-06
5.23692e-06
5.23793e-06
5.23906e-06
5.24019e-06
5.24115e-06
5.2417e-06
5.24162e-06
5.24083e-06
5.23945e-06
5.23795e-06
5.23711e-06
5.23729e-06
5.23748e-06
5.2378e-06
5.23878e-06
5.24011e-06
5.24151e-06
5.24281e-06
5.24385e-06
5.24441e-06
5.24429e-06
5.24353e-06
5.24269e-06
5.24262e-06
5.24363e-06
5.24492e-06
5.24497e-06
5.2443e-06
5.24911e-06
5.25765e-06
5.26476e-06
5.26665e-06
5.26047e-06
5.25603e-06
5.26648e-06
5.27615e-06
5.27318e-06
5.27033e-06
5.31822e-06
5.39698e-06
5.47561e-06
5.52819e-06
5.53807e-06
5.50109e-06
5.42536e-06
5.35112e-06
5.37634e-06
5.46499e-06
5.61359e-06
5.63149e-06
5.2363e-06
5.2357e-06
5.23542e-06
5.23559e-06
5.23617e-06
5.23704e-06
5.23809e-06
5.23925e-06
5.24041e-06
5.24136e-06
5.24187e-06
5.24171e-06
5.24083e-06
5.23937e-06
5.23783e-06
5.23709e-06
5.23733e-06
5.23749e-06
5.23784e-06
5.23887e-06
5.24024e-06
5.24168e-06
5.24298e-06
5.244e-06
5.24452e-06
5.24433e-06
5.24351e-06
5.24264e-06
5.24259e-06
5.24364e-06
5.24492e-06
5.24488e-06
5.24439e-06
5.24974e-06
5.25846e-06
5.26545e-06
5.26696e-06
5.26024e-06
5.25643e-06
5.26718e-06
5.27639e-06
5.27263e-06
5.27179e-06
5.32306e-06
5.40323e-06
5.48149e-06
5.53205e-06
5.5388e-06
5.49827e-06
5.41999e-06
5.34914e-06
5.38345e-06
5.47609e-06
5.62713e-06
5.63989e-06
5.23703e-06
5.23634e-06
5.2357e-06
5.23542e-06
5.23563e-06
5.23625e-06
5.23717e-06
5.23827e-06
5.23946e-06
5.24063e-06
5.24158e-06
5.24204e-06
5.2418e-06
5.24082e-06
5.23927e-06
5.23771e-06
5.23708e-06
5.23737e-06
5.23751e-06
5.23787e-06
5.23896e-06
5.24038e-06
5.24184e-06
5.24315e-06
5.24416e-06
5.24463e-06
5.24437e-06
5.24348e-06
5.24259e-06
5.24256e-06
5.24366e-06
5.24491e-06
5.2448e-06
5.24453e-06
5.2504e-06
5.25928e-06
5.26613e-06
5.26723e-06
5.25998e-06
5.25686e-06
5.26788e-06
5.27658e-06
5.27206e-06
5.27354e-06
5.32804e-06
5.40949e-06
5.48725e-06
5.53569e-06
5.53923e-06
5.49513e-06
5.41453e-06
5.3479e-06
5.39106e-06
5.48749e-06
5.64081e-06
5.6482e-06
5.23713e-06
5.23638e-06
5.23571e-06
5.23543e-06
5.23567e-06
5.23634e-06
5.2373e-06
5.23845e-06
5.23968e-06
5.24086e-06
5.24179e-06
5.2422e-06
5.24188e-06
5.2408e-06
5.23916e-06
5.23759e-06
5.23708e-06
5.23742e-06
5.23752e-06
5.23792e-06
5.23906e-06
5.24053e-06
5.24202e-06
5.24333e-06
5.24431e-06
5.24473e-06
5.2444e-06
5.24344e-06
5.24253e-06
5.24254e-06
5.24367e-06
5.2449e-06
5.24471e-06
5.24472e-06
5.25109e-06
5.26011e-06
5.26679e-06
5.26748e-06
5.2597e-06
5.2573e-06
5.26858e-06
5.27671e-06
5.2715e-06
5.27559e-06
5.33314e-06
5.41575e-06
5.49288e-06
5.53909e-06
5.53936e-06
5.49169e-06
5.40903e-06
5.34746e-06
5.39916e-06
5.49919e-06
5.65462e-06
5.65639e-06
5.23723e-06
5.23641e-06
5.23571e-06
5.23544e-06
5.23571e-06
5.23644e-06
5.23745e-06
5.23864e-06
5.2399e-06
5.2411e-06
5.24201e-06
5.24236e-06
5.24195e-06
5.24076e-06
5.23904e-06
5.23748e-06
5.2371e-06
5.23747e-06
5.23753e-06
5.23796e-06
5.23917e-06
5.24069e-06
5.2422e-06
5.24351e-06
5.24446e-06
5.24483e-06
5.24442e-06
5.24339e-06
5.24246e-06
5.24251e-06
5.24368e-06
5.24488e-06
5.24462e-06
5.24497e-06
5.25181e-06
5.26094e-06
5.26744e-06
5.26768e-06
5.25939e-06
5.25777e-06
5.26925e-06
5.27677e-06
5.27094e-06
5.27792e-06
5.33835e-06
5.42199e-06
5.49837e-06
5.54225e-06
5.53918e-06
5.48796e-06
5.40354e-06
5.34792e-06
5.40773e-06
5.51117e-06
5.66853e-06
5.66445e-06
5.23732e-06
5.23644e-06
5.2357e-06
5.23545e-06
5.23577e-06
5.23654e-06
5.23761e-06
5.23884e-06
5.24013e-06
5.24134e-06
5.24222e-06
5.24251e-06
5.24201e-06
5.24071e-06
5.23892e-06
5.23738e-06
5.23712e-06
5.23752e-06
5.23753e-06
5.23802e-06
5.23929e-06
5.24085e-06
5.24238e-06
5.24369e-06
5.24461e-06
5.24492e-06
5.24443e-06
5.24334e-06
5.24239e-06
5.24248e-06
5.24369e-06
5.24485e-06
5.24454e-06
5.24526e-06
5.25255e-06
5.26178e-06
5.26807e-06
5.26784e-06
5.25907e-06
5.25826e-06
5.26989e-06
5.27678e-06
5.27041e-06
5.2805e-06
5.34366e-06
5.42821e-06
5.50371e-06
5.54515e-06
5.53869e-06
5.48394e-06
5.39809e-06
5.34927e-06
5.41674e-06
5.52343e-06
5.68254e-06
5.67237e-06
5.2374e-06
5.23646e-06
5.23569e-06
5.23546e-06
5.23582e-06
5.23665e-06
5.23777e-06
5.23905e-06
5.24037e-06
5.24158e-06
5.24243e-06
5.24266e-06
5.24206e-06
5.24066e-06
5.23878e-06
5.23728e-06
5.23716e-06
5.23757e-06
5.23754e-06
5.23808e-06
5.23941e-06
5.24102e-06
5.24257e-06
5.24387e-06
5.24476e-06
5.24501e-06
5.24444e-06
5.24328e-06
5.24232e-06
5.24245e-06
5.2437e-06
5.24482e-06
5.24446e-06
5.24561e-06
5.25331e-06
5.26261e-06
5.26868e-06
5.26797e-06
5.25874e-06
5.25876e-06
5.27052e-06
5.27672e-06
5.2699e-06
5.28332e-06
5.34905e-06
5.43438e-06
5.50889e-06
5.5478e-06
5.53789e-06
5.47964e-06
5.39275e-06
5.35148e-06
5.4262e-06
5.53594e-06
5.69662e-06
5.68014e-06
5.23747e-06
5.23647e-06
5.23568e-06
5.23547e-06
5.23588e-06
5.23677e-06
5.23795e-06
5.23926e-06
5.24061e-06
5.24183e-06
5.24265e-06
5.2428e-06
5.2421e-06
5.24058e-06
5.23864e-06
5.2372e-06
5.23721e-06
5.23761e-06
5.23754e-06
5.23814e-06
5.23954e-06
5.24119e-06
5.24276e-06
5.24405e-06
5.24491e-06
5.24509e-06
5.24444e-06
5.24321e-06
5.24225e-06
5.24242e-06
5.2437e-06
5.24478e-06
5.24439e-06
5.246e-06
5.25409e-06
5.26345e-06
5.26926e-06
5.26804e-06
5.25841e-06
5.25928e-06
5.27111e-06
5.2766e-06
5.26945e-06
5.28634e-06
5.35452e-06
5.44051e-06
5.5139e-06
5.55019e-06
5.53678e-06
5.47509e-06
5.38758e-06
5.35452e-06
5.43607e-06
5.5487e-06
5.71076e-06
5.68776e-06
5.23754e-06
5.23647e-06
5.23566e-06
5.23548e-06
5.23595e-06
5.2369e-06
5.23813e-06
5.23949e-06
5.24087e-06
5.24208e-06
5.24286e-06
5.24293e-06
5.24212e-06
5.2405e-06
5.23849e-06
5.23714e-06
5.23727e-06
5.23766e-06
5.23754e-06
5.23822e-06
5.23969e-06
5.24138e-06
5.24295e-06
5.24423e-06
5.24505e-06
5.24516e-06
5.24443e-06
5.24314e-06
5.24217e-06
5.24238e-06