/*--------------------------------*- C++ -*----------------------------------*\
  =========                 |
  \\      /  F ield         | OpenFOAM: The Open Source CFD Toolbox
   \\    /   O peration     | Website:  https://openfoam.org
    \\  /    A nd           | Version:  7
     \\/     M anipulation  |
\*---------------------------------------------------------------------------*/
FoamFile
{
    version     2.0;
    format      ascii;
    class       volScalarField;
    location    "1000";
    object      nuTilda;
}
// * * * * * * * * * * * * * * * * * * * * * * * * * * * * * * * * * * * * * //

dimensions      [0 2 -1 0 0 0 0];

internalField   nonuniform List<scalar> 
23023
(
3.45213e-05
3.45903e-05
3.45208e-05
3.46042e-05
3.45926e-05
3.45201e-05
3.46013e-05
3.46088e-05
3.45947e-05
3.45191e-05
3.46074e-05
3.46133e-05
3.45966e-05
3.45181e-05
3.45861e-05
3.46135e-05
3.46176e-05
3.45981e-05
3.45168e-05
3.45468e-05
3.45933e-05
3.46196e-05
3.46218e-05
3.45994e-05
3.45155e-05
3.44969e-05
3.4554e-05
3.46005e-05
3.46256e-05
3.46258e-05
3.46003e-05
3.45142e-05
3.44472e-05
3.45033e-05
3.45614e-05
3.46077e-05
3.46315e-05
3.46296e-05
3.46009e-05
3.4513e-05
3.44138e-05
3.44517e-05
3.45098e-05
3.45689e-05
3.4615e-05
3.46373e-05
3.46332e-05
3.46012e-05
3.45119e-05
3.44143e-05
3.44157e-05
3.44564e-05
3.45166e-05
3.45766e-05
3.46223e-05
3.46429e-05
3.46367e-05
3.46011e-05
3.45111e-05
3.44141e-05
3.44178e-05
3.44614e-05
3.45236e-05
3.45844e-05
3.46295e-05
3.46485e-05
3.46399e-05
3.46007e-05
3.45108e-05
3.44258e-05
3.44139e-05
3.44202e-05
3.44667e-05
3.45308e-05
3.45923e-05
3.46368e-05
3.46539e-05
3.46428e-05
3.45999e-05
3.45108e-05
3.44246e-05
3.44262e-05
3.44136e-05
3.44228e-05
3.44722e-05
3.45382e-05
3.46002e-05
3.4644e-05
3.46592e-05
3.46455e-05
3.45986e-05
3.45111e-05
3.4415e-05
3.44258e-05
3.44267e-05
3.44134e-05
3.44256e-05
3.4478e-05
3.45458e-05
3.46083e-05
3.46512e-05
3.46643e-05
3.46479e-05
3.4597e-05
3.45118e-05
3.44041e-05
3.44162e-05
3.44269e-05
3.4427e-05
3.44133e-05
3.44287e-05
3.4484e-05
3.45536e-05
3.46165e-05
3.46584e-05
3.46692e-05
3.46501e-05
3.45951e-05
3.45127e-05
3.44049e-05
3.44174e-05
3.44281e-05
3.44272e-05
3.44132e-05
3.44321e-05
3.44903e-05
3.45616e-05
3.46247e-05
3.46654e-05
3.46739e-05
3.46519e-05
3.45927e-05
3.45139e-05
3.43972e-05
3.44058e-05
3.44186e-05
3.44292e-05
3.44274e-05
3.44132e-05
3.44357e-05
3.44968e-05
3.45697e-05
3.46329e-05
3.46724e-05
3.46784e-05
3.46535e-05
3.45899e-05
3.45153e-05
3.43959e-05
3.43976e-05
3.44066e-05
3.44199e-05
3.44303e-05
3.44275e-05
3.44133e-05
3.44396e-05
3.45037e-05
3.4578e-05
3.46412e-05
3.46793e-05
3.46827e-05
3.46547e-05
3.45868e-05
3.4517e-05
3.43962e-05
3.43981e-05
3.44075e-05
3.44211e-05
3.44314e-05
3.44275e-05
3.44136e-05
3.44438e-05
3.45107e-05
3.45865e-05
3.46496e-05
3.4686e-05
3.46867e-05
3.46556e-05
3.45834e-05
3.4519e-05
3.43971e-05
3.43964e-05
3.43985e-05
3.44085e-05
3.44224e-05
3.44324e-05
3.44274e-05
3.44142e-05
3.44483e-05
3.4518e-05
3.45951e-05
3.46579e-05
3.46926e-05
3.46905e-05
3.46561e-05
3.45796e-05
3.45212e-05
3.43937e-05
3.43976e-05
3.43967e-05
3.4399e-05
3.44094e-05
3.44237e-05
3.44334e-05
3.44272e-05
3.44149e-05
3.44531e-05
3.45255e-05
3.46038e-05
3.46662e-05
3.46991e-05
3.46941e-05
3.46562e-05
3.45756e-05
3.45237e-05
3.43898e-05
3.43942e-05
3.43982e-05
3.43969e-05
3.43995e-05
3.44104e-05
3.4425e-05
3.44343e-05
3.44269e-05
3.4416e-05
3.44582e-05
3.45333e-05
3.46127e-05
3.46745e-05
3.47054e-05
3.46973e-05
3.46559e-05
3.45713e-05
3.45265e-05
3.43887e-05
3.43901e-05
3.43948e-05
3.43988e-05
3.43972e-05
3.44e-05
3.44115e-05
3.44264e-05
3.44351e-05
3.44266e-05
3.44175e-05
3.44636e-05
3.45413e-05
3.46217e-05
3.46828e-05
3.47115e-05
3.47003e-05
3.46553e-05
3.45669e-05
3.45297e-05
3.43886e-05
3.43905e-05
3.43954e-05
3.43993e-05
3.43974e-05
3.44006e-05
3.44125e-05
3.44277e-05
3.44359e-05
3.44261e-05
3.44193e-05
3.44693e-05
3.45496e-05
3.46307e-05
3.4691e-05
3.47174e-05
3.47029e-05
3.46542e-05
3.45623e-05
3.45331e-05
3.43904e-05
3.43886e-05
3.43908e-05
3.4396e-05
3.43999e-05
3.43976e-05
3.44011e-05
3.44137e-05
3.4429e-05
3.44366e-05
3.44257e-05
3.44215e-05
3.44754e-05
3.4558e-05
3.46399e-05
3.46991e-05
3.47231e-05
3.47052e-05
3.46526e-05
3.45578e-05
3.4537e-05
3.43911e-05
3.43904e-05
3.43886e-05
3.43913e-05
3.43967e-05
3.44005e-05
3.43979e-05
3.44018e-05
3.44148e-05
3.44303e-05
3.44373e-05
3.44252e-05
3.4424e-05
3.44817e-05
3.45667e-05
3.46491e-05
3.47071e-05
3.47286e-05
3.47072e-05
3.46506e-05
3.45533e-05
3.45412e-05
3.43913e-05
3.43904e-05
3.43887e-05
3.43917e-05
3.43974e-05
3.44011e-05
3.43981e-05
3.44024e-05
3.4416e-05
3.44317e-05
3.44378e-05
3.44246e-05
3.44268e-05
3.44883e-05
3.45755e-05
3.46584e-05
3.47151e-05
3.47338e-05
3.47089e-05
3.46482e-05
3.45491e-05
3.45458e-05
3.43906e-05
3.43914e-05
3.43903e-05
3.43887e-05
3.43922e-05
3.43981e-05
3.44016e-05
3.43983e-05
3.44031e-05
3.44172e-05
3.4433e-05
3.44383e-05
3.4424e-05
3.44299e-05
3.44952e-05
3.45845e-05
3.46677e-05
3.47229e-05
3.47388e-05
3.47101e-05
3.46453e-05
3.45451e-05
3.45509e-05
3.43892e-05
3.43908e-05
3.43915e-05
3.43903e-05
3.43888e-05
3.43928e-05
3.43988e-05
3.44022e-05
3.43986e-05
3.44038e-05
3.44184e-05
3.44342e-05
3.44386e-05
3.44235e-05
3.44333e-05
3.45024e-05
3.45937e-05
3.46771e-05
3.47306e-05
3.47435e-05
3.4711e-05
3.4642e-05
3.45417e-05
3.45564e-05
3.43894e-05
3.4391e-05
3.43916e-05
3.43903e-05
3.43889e-05
3.43934e-05
3.43996e-05
3.44028e-05
3.43988e-05
3.44046e-05
3.44197e-05
3.44355e-05
3.44389e-05
3.4423e-05
3.44371e-05
3.45099e-05
3.46031e-05
3.46864e-05
3.47381e-05
3.4748e-05
3.47116e-05
3.46382e-05
3.45389e-05
3.45623e-05
3.4388e-05
3.43895e-05
3.43912e-05
3.43917e-05
3.43902e-05
3.43891e-05
3.4394e-05
3.44003e-05
3.44033e-05
3.43991e-05
3.44054e-05
3.4421e-05
3.44367e-05
3.44391e-05
3.44225e-05
3.44412e-05
3.45176e-05
3.46126e-05
3.46958e-05
3.47455e-05
3.47521e-05
3.47117e-05
3.46339e-05
3.45369e-05
3.45687e-05
3.43871e-05
3.43881e-05
3.43897e-05
3.43914e-05
3.43918e-05
3.43901e-05
3.43894e-05
3.43947e-05
3.44011e-05
3.44039e-05
3.43994e-05
3.44062e-05
3.44223e-05
3.44379e-05
3.44391e-05
3.44221e-05
3.44456e-05
3.45257e-05
3.46223e-05
3.47051e-05
3.47527e-05
3.47559e-05
3.47114e-05
3.46293e-05
3.45359e-05
3.45756e-05
3.43872e-05
3.43882e-05
3.43899e-05
3.43916e-05
3.43919e-05
3.439e-05
3.43897e-05
3.43953e-05
3.44019e-05
3.44044e-05
3.43997e-05
3.44071e-05
3.44237e-05
3.44391e-05
3.44391e-05
3.44219e-05
3.44503e-05
3.45339e-05
3.46321e-05
3.47144e-05
3.47597e-05
3.47594e-05
3.47106e-05
3.46242e-05
3.45357e-05
3.45829e-05
3.43868e-05
3.43873e-05
3.43884e-05
3.43901e-05
3.43917e-05
3.4392e-05
3.439e-05
3.439e-05
3.43961e-05
3.44028e-05
3.44049e-05
3.44001e-05
3.4408e-05
3.4425e-05
3.44402e-05
3.44389e-05
3.44218e-05
3.44554e-05
3.45425e-05
3.4642e-05
3.47236e-05
3.47665e-05
3.47626e-05
3.47094e-05
3.46187e-05
3.45363e-05
3.45906e-05
3.43865e-05
3.43869e-05
3.43874e-05
3.43885e-05
3.43903e-05
3.43919e-05
3.4392e-05
3.43899e-05
3.43904e-05
3.43969e-05
3.44036e-05
3.44055e-05
3.44004e-05
3.4409e-05
3.44264e-05
3.44413e-05
3.44387e-05
3.44219e-05
3.44608e-05
3.45512e-05
3.4652e-05
3.47328e-05
3.4773e-05
3.47654e-05
3.47078e-05
3.46129e-05
3.45377e-05
3.45988e-05
3.43867e-05
3.4387e-05
3.43875e-05
3.43887e-05
3.43905e-05
3.43921e-05
3.4392e-05
3.43898e-05
3.43908e-05
3.43977e-05
3.44045e-05
3.44059e-05
3.44009e-05
3.44099e-05
3.44278e-05
3.44423e-05
3.44383e-05
3.44222e-05
3.44666e-05
3.45602e-05
3.46621e-05
3.47418e-05
3.47793e-05
3.47678e-05
3.47056e-05
3.46069e-05
3.45399e-05
3.46075e-05
3.43863e-05
3.43868e-05
3.43871e-05
3.43876e-05
3.43888e-05
3.43907e-05
3.43922e-05
3.43921e-05
3.43897e-05
3.43913e-05
3.43985e-05
3.44053e-05
3.44064e-05
3.44013e-05
3.4411e-05
3.44292e-05
3.44432e-05
3.44378e-05
3.44229e-05
3.44727e-05
3.45695e-05
3.46723e-05
3.47508e-05
3.47853e-05
3.47698e-05
3.4703e-05
3.46006e-05
3.45428e-05
3.46166e-05
3.43856e-05
3.43865e-05
3.43869e-05
3.43872e-05
3.43877e-05
3.43889e-05
3.43908e-05
3.43924e-05
3.4392e-05
3.43896e-05
3.43918e-05
3.43994e-05
3.44062e-05
3.44068e-05
3.44018e-05
3.4412e-05
3.44306e-05
3.44441e-05
3.44373e-05
3.44239e-05
3.44791e-05
3.45789e-05
3.46825e-05
3.47596e-05
3.47911e-05
3.47714e-05
3.46999e-05
3.45941e-05
3.45465e-05
3.46261e-05
3.43846e-05
3.43858e-05
3.43866e-05
3.43871e-05
3.43873e-05
3.43878e-05
3.43891e-05
3.4391e-05
3.43925e-05
3.4392e-05
3.43896e-05
3.43923e-05
3.44003e-05
3.44071e-05
3.44073e-05
3.44023e-05
3.44131e-05
3.4432e-05
3.44448e-05
3.44367e-05
3.44254e-05
3.44859e-05
3.45886e-05
3.46927e-05
3.47683e-05
3.47965e-05
3.47727e-05
3.46964e-05
3.45875e-05
3.45508e-05
3.4636e-05
3.43835e-05
3.43848e-05
3.43859e-05
3.43868e-05
3.43872e-05
3.43874e-05
3.43879e-05
3.43892e-05
3.43912e-05
3.43927e-05
3.4392e-05
3.43895e-05
3.43929e-05
3.44012e-05
3.4408e-05
3.44076e-05
3.44028e-05
3.44143e-05
3.44334e-05
3.44455e-05
3.4436e-05
3.44273e-05
3.4493e-05
3.45984e-05
3.4703e-05
3.47769e-05
3.48016e-05
3.47734e-05
3.46923e-05
3.4581e-05
3.45559e-05
3.46464e-05
3.43824e-05
3.43836e-05
3.43849e-05
3.43861e-05
3.43869e-05
3.43873e-05
3.43875e-05
3.4388e-05
3.43894e-05
3.43914e-05
3.43928e-05
3.43919e-05
3.43895e-05
3.43936e-05
3.44022e-05
3.44089e-05
3.4408e-05
3.44033e-05
3.44154e-05
3.44348e-05
3.44461e-05
3.44352e-05
3.44298e-05
3.45004e-05
3.46085e-05
3.47133e-05
3.47852e-05
3.48065e-05
3.47738e-05
3.46877e-05
3.45745e-05
3.45618e-05
3.46571e-05
3.43814e-05
3.43825e-05
3.43838e-05
3.43851e-05
3.43863e-05
3.43871e-05
3.43875e-05
3.43876e-05
3.43881e-05
3.43895e-05
3.43916e-05
3.43929e-05
3.43919e-05
3.43896e-05
3.43943e-05
3.44032e-05
3.44097e-05
3.44083e-05
3.44039e-05
3.44166e-05
3.44362e-05
3.44467e-05
3.44344e-05
3.44327e-05
3.45082e-05
3.46187e-05
3.47236e-05
3.47934e-05
3.48109e-05
3.47737e-05
3.46827e-05
3.45683e-05
3.45684e-05
3.46683e-05
3.43815e-05
3.43826e-05
3.43839e-05
3.43853e-05
3.43865e-05
3.43873e-05
3.43876e-05
3.43877e-05
3.43882e-05
3.43897e-05
3.43917e-05
3.4393e-05
3.43918e-05
3.43896e-05
3.4395e-05
3.44042e-05
3.44106e-05
3.44086e-05
3.44044e-05
3.44178e-05
3.44375e-05
3.44471e-05
3.44336e-05
3.44361e-05
3.45162e-05
3.4629e-05
3.47338e-05
3.48014e-05
3.4815e-05
3.47731e-05
3.46772e-05
3.45624e-05
3.45757e-05
3.46798e-05
3.43805e-05
3.43815e-05
3.43827e-05
3.43841e-05
3.43854e-05
3.43867e-05
3.43874e-05
3.43877e-05
3.43877e-05
3.43883e-05
3.43898e-05
3.43919e-05
3.43931e-05
3.43917e-05
3.43898e-05
3.43958e-05
3.44052e-05
3.44115e-05
3.44088e-05
3.4405e-05
3.44191e-05
3.44389e-05
3.44474e-05
3.44328e-05
3.44399e-05
3.45246e-05
3.46395e-05
3.4744e-05
3.48091e-05
3.48188e-05
3.4772e-05
3.46712e-05
3.45571e-05
3.45838e-05
3.46916e-05
3.43797e-05
3.43805e-05
3.43816e-05
3.43828e-05
3.43842e-05
3.43856e-05
3.43868e-05
3.43876e-05
3.43878e-05
3.43878e-05
3.43884e-05
3.439e-05
3.43921e-05
3.43932e-05
3.43916e-05
3.43899e-05
3.43967e-05
3.44063e-05
3.44124e-05
3.4409e-05
3.44056e-05
3.44203e-05
3.44402e-05
3.44476e-05
3.4432e-05
3.44441e-05
3.45332e-05
3.46501e-05
3.47542e-05
3.48166e-05
3.48221e-05
3.47705e-05
3.46648e-05
3.45524e-05
3.45927e-05
3.47039e-05
3.43797e-05
3.43805e-05
3.43816e-05
3.43829e-05
3.43844e-05
3.43858e-05
3.4387e-05
3.43878e-05
3.43879e-05
3.43879e-05
3.43885e-05
3.43901e-05
3.43922e-05
3.43932e-05
3.43914e-05
3.43902e-05
3.43976e-05
3.44074e-05
3.44132e-05
3.44092e-05
3.44062e-05
3.44216e-05
3.44414e-05
3.44477e-05
3.44312e-05
3.44487e-05
3.45422e-05
3.46609e-05
3.47642e-05
3.48238e-05
3.4825e-05
3.47684e-05
3.46581e-05
3.45485e-05
3.46023e-05
3.47165e-05
3.43791e-05
3.43797e-05
3.43805e-05
3.43817e-05
3.4383e-05
3.43845e-05
3.4386e-05
3.43872e-05
3.43879e-05
3.4388e-05
3.4388e-05
3.43886e-05
3.43902e-05
3.43924e-05
3.43933e-05
3.43913e-05
3.43905e-05
3.43985e-05
3.44085e-05
3.44141e-05
3.44094e-05
3.44069e-05
3.44229e-05
3.44427e-05
3.44477e-05
3.44305e-05
3.44537e-05
3.45514e-05
3.46717e-05
3.47742e-05
3.48307e-05
3.48276e-05
3.47658e-05
3.4651e-05
3.45456e-05
3.46127e-05
3.47294e-05
3.4379e-05
3.43791e-05
3.43796e-05
3.43806e-05
3.43818e-05
3.43832e-05
3.43847e-05
3.43862e-05
3.43874e-05
3.43881e-05
3.43881e-05
3.4388e-05
3.43886e-05
3.43904e-05
3.43925e-05
3.43933e-05
3.43912e-05
3.4391e-05
3.43995e-05
3.44096e-05
3.44149e-05
3.44094e-05
3.44076e-05
3.44243e-05
3.44438e-05
3.44475e-05
3.44299e-05
3.44591e-05
3.45608e-05
3.46826e-05
3.4784e-05
3.48374e-05
3.48297e-05
3.47627e-05
3.46436e-05
3.45438e-05
3.46238e-05
3.47426e-05
3.43795e-05
3.43789e-05
3.4379e-05
3.43796e-05
3.43806e-05
3.43818e-05
3.43833e-05
3.43849e-05
3.43864e-05
3.43876e-05
3.43882e-05
3.43882e-05
3.43881e-05
3.43887e-05
3.43905e-05
3.43927e-05
3.43933e-05
3.4391e-05
3.43914e-05
3.44005e-05
3.44107e-05
3.44157e-05
3.44095e-05
3.44083e-05
3.44256e-05
3.4445e-05
3.44473e-05
3.44295e-05
3.44649e-05
3.45705e-05
3.46936e-05
3.47938e-05
3.48437e-05
3.48313e-05
3.4759e-05
3.46359e-05
3.45434e-05
3.46357e-05
3.47562e-05
3.43805e-05
3.43794e-05
3.43789e-05
3.4379e-05
3.43796e-05
3.43806e-05
3.43819e-05
3.43834e-05
3.43851e-05
3.43866e-05
3.43878e-05
3.43884e-05
3.43883e-05
3.43882e-05
3.43888e-05
3.43907e-05
3.43928e-05
3.43933e-05
3.43909e-05
3.4392e-05
3.44016e-05
3.44118e-05
3.44165e-05
3.44095e-05
3.4409e-05
3.4427e-05
3.4446e-05
3.44469e-05
3.44293e-05
3.4471e-05
3.45804e-05
3.47046e-05
3.48033e-05
3.48497e-05
3.48325e-05
3.47548e-05
3.46282e-05
3.45442e-05
3.46484e-05
3.477e-05
3.43815e-05
3.43804e-05
3.43793e-05
3.43788e-05
3.43789e-05
3.43796e-05
3.43807e-05
3.4382e-05
3.43836e-05
3.43853e-05
3.43868e-05
3.4388e-05
3.43885e-05
3.43884e-05
3.43882e-05
3.43889e-05
3.43908e-05
3.4393e-05
3.43933e-05
3.43908e-05
3.43926e-05
3.44027e-05
3.4413e-05
3.44172e-05
3.44095e-05
3.44098e-05
3.44284e-05
3.4447e-05
3.44464e-05
3.44293e-05
3.44775e-05
3.45906e-05
3.47157e-05
3.48127e-05
3.48554e-05
3.48332e-05
3.47501e-05
3.46203e-05
3.45462e-05
3.46618e-05
3.47842e-05
3.43824e-05
3.43816e-05
3.43804e-05
3.43792e-05
3.43787e-05
3.43789e-05
3.43796e-05
3.43807e-05
3.43821e-05
3.43838e-05
3.43855e-05
3.43871e-05
3.43882e-05
3.43887e-05
3.43885e-05
3.43883e-05
3.4389e-05
3.43909e-05
3.43931e-05
3.43932e-05
3.43907e-05
3.43932e-05
3.44038e-05
3.44141e-05
3.44179e-05
3.44094e-05
3.44106e-05
3.44297e-05
3.4448e-05
3.44459e-05
3.44296e-05
3.44843e-05
3.46009e-05
3.47267e-05
3.48219e-05
3.48607e-05
3.48334e-05
3.47448e-05
3.46125e-05
3.45495e-05
3.46759e-05
3.47986e-05
3.43827e-05
3.43825e-05
3.43816e-05
3.43803e-05
3.43791e-05
3.43786e-05
3.43788e-05
3.43796e-05
3.43808e-05
3.43822e-05
3.43839e-05
3.43857e-05
3.43873e-05
3.43884e-05
3.43888e-05
3.43885e-05
3.43883e-05
3.4389e-05
3.43911e-05
3.43932e-05
3.43932e-05
3.43906e-05
3.43939e-05
3.4405e-05
3.44153e-05
3.44186e-05
3.44094e-05
3.44114e-05
3.44311e-05
3.44488e-05
3.44452e-05
3.44303e-05
3.44915e-05
3.46115e-05
3.47378e-05
3.48309e-05
3.48656e-05
3.48331e-05
3.4739e-05
3.46048e-05
3.45538e-05
3.46908e-05
3.48132e-05
3.43824e-05
3.43829e-05
3.43826e-05
3.43816e-05
3.43802e-05
3.4379e-05
3.43785e-05
3.43788e-05
3.43796e-05
3.43808e-05
3.43824e-05
3.43841e-05
3.43859e-05
3.43875e-05
3.43887e-05
3.4389e-05
3.43886e-05
3.43883e-05
3.43891e-05
3.43912e-05
3.43933e-05
3.43931e-05
3.43905e-05
3.43947e-05
3.44062e-05
3.44164e-05
3.44193e-05
3.44093e-05
3.44123e-05
3.44325e-05
3.44496e-05
3.44444e-05
3.44314e-05
3.44991e-05
3.46222e-05
3.47489e-05
3.48396e-05
3.48701e-05
3.48323e-05
3.47327e-05
3.45974e-05
3.45592e-05
3.47063e-05
3.48281e-05
3.43817e-05
3.43827e-05
3.43831e-05
3.43827e-05
3.43816e-05
3.43801e-05
3.43789e-05
3.43784e-05
3.43787e-05
3.43796e-05
3.43809e-05
3.43825e-05
3.43843e-05
3.43861e-05
3.43878e-05
3.43889e-05
3.43891e-05
3.43887e-05
3.43884e-05
3.43892e-05
3.43913e-05
3.43934e-05
3.4393e-05
3.43905e-05
3.43956e-05
3.44074e-05
3.44176e-05
3.44199e-05
3.44092e-05
3.44132e-05
3.44339e-05
3.44503e-05
3.44436e-05
3.44329e-05
3.4507e-05
3.46331e-05
3.47599e-05
3.48481e-05
3.48742e-05
3.4831e-05
3.47259e-05
3.45904e-05
3.45656e-05
3.47226e-05
3.48432e-05
3.43806e-05
3.4382e-05
3.43829e-05
3.43833e-05
3.43828e-05
3.43816e-05
3.438e-05
3.43788e-05
3.43784e-05
3.43787e-05
3.43796e-05
3.4381e-05
3.43826e-05
3.43845e-05
3.43864e-05
3.4388e-05
3.43891e-05
3.43892e-05
3.43887e-05
3.43884e-05
3.43893e-05
3.43914e-05
3.43934e-05
3.43929e-05
3.43905e-05
3.43964e-05
3.44087e-05
3.44187e-05
3.44204e-05
3.4409e-05
3.44141e-05
3.44353e-05
3.44509e-05
3.44427e-05
3.4435e-05
3.45152e-05
3.46441e-05
3.47708e-05
3.48564e-05
3.48778e-05
3.48291e-05
3.47186e-05
3.45839e-05
3.45731e-05
3.47396e-05
3.48585e-05
3.43794e-05
3.43809e-05
3.43822e-05
3.43832e-05
3.43834e-05
3.43829e-05
3.43816e-05
3.43799e-05
3.43787e-05
3.43783e-05
3.43787e-05
3.43796e-05
3.43811e-05
3.43828e-05
3.43847e-05
3.43866e-05
3.43882e-05
3.43892e-05
3.43893e-05
3.43888e-05
3.43884e-05
3.43893e-05
3.43916e-05
3.43935e-05
3.43927e-05
3.43905e-05
3.43974e-05
3.441e-05
3.44199e-05
3.44209e-05
3.44089e-05
3.44151e-05
3.44366e-05
3.44513e-05
3.44417e-05
3.44377e-05
3.45238e-05
3.46553e-05
3.47817e-05
3.48643e-05
3.48811e-05
3.48266e-05
3.47108e-05
3.45782e-05
3.45816e-05
3.47572e-05
3.4874e-05
3.43781e-05
3.43796e-05
3.43811e-05
3.43825e-05
3.43834e-05
3.43836e-05
3.43829e-05
3.43815e-05
3.43798e-05
3.43785e-05
3.43782e-05
3.43787e-05
3.43797e-05
3.43811e-05
3.4383e-05
3.43849e-05
3.43868e-05
3.43885e-05
3.43894e-05
3.43895e-05
3.43888e-05
3.43884e-05
3.43894e-05
3.43917e-05
3.43935e-05
3.43926e-05
3.43906e-05
3.43984e-05
3.44113e-05
3.4421e-05
3.44214e-05
3.44088e-05
3.44161e-05
3.4438e-05
3.44517e-05
3.44407e-05
3.4441e-05
3.45326e-05
3.46665e-05
3.47924e-05
3.4872e-05
3.48838e-05
3.48236e-05
3.47026e-05
3.45733e-05
3.4591e-05
3.47754e-05
3.48897e-05
3.4377e-05
3.43783e-05
3.43798e-05
3.43814e-05
3.43828e-05
3.43837e-05
3.43838e-05
3.4383e-05
3.43815e-05
3.43797e-05
3.43784e-05
3.43782e-05
3.43787e-05
3.43797e-05
3.43812e-05
3.43831e-05
3.43851e-05
3.43871e-05
3.43887e-05
3.43896e-05
3.43896e-05
3.43888e-05
3.43884e-05
3.43895e-05
3.43918e-05
3.43936e-05
3.43924e-05
3.43908e-05
3.43994e-05
3.44126e-05
3.44221e-05
3.44218e-05
3.44087e-05
3.44172e-05
3.44393e-05
3.4452e-05
3.44397e-05
3.44448e-05
3.45418e-05
3.46779e-05
3.48031e-05
3.48793e-05
3.48861e-05
3.482e-05
3.46941e-05
3.45694e-05
3.46014e-05
3.47944e-05
3.49054e-05
3.4376e-05
3.43771e-05
3.43785e-05
3.438e-05
3.43817e-05
3.43831e-05
3.4384e-05
3.4384e-05
3.43831e-05
3.43814e-05
3.43795e-05
3.43783e-05
3.43781e-05
3.43787e-05
3.43797e-05
3.43814e-05
3.43833e-05
3.43854e-05
3.43874e-05
3.4389e-05
3.43898e-05
3.43896e-05
3.43888e-05
3.43884e-05
3.43895e-05
3.43919e-05
3.43936e-05
3.43923e-05
3.43911e-05
3.44006e-05
3.4414e-05
3.44232e-05
3.44221e-05
3.44086e-05
3.44183e-05
3.44406e-05
3.44522e-05
3.44387e-05
3.44491e-05
3.45512e-05
3.46894e-05
3.48136e-05
3.48863e-05
3.48879e-05
3.48159e-05
3.46852e-05
3.45668e-05
3.46129e-05
3.48138e-05
3.49211e-05
3.43752e-05
3.4376e-05
3.43772e-05
3.43786e-05
3.43803e-05
3.4382e-05
3.43834e-05
3.43842e-05
3.43841e-05
3.43831e-05
3.43813e-05
3.43794e-05
3.43782e-05
3.43781e-05
3.43787e-05
3.43798e-05
3.43815e-05
3.43835e-05
3.43856e-05
3.43876e-05
3.43892e-05
3.439e-05
3.43897e-05
3.43888e-05
3.43884e-05
3.43896e-05
3.4392e-05
3.43936e-05
3.43921e-05
3.43914e-05
3.44017e-05
3.44153e-05
3.44242e-05
3.44224e-05
3.44086e-05
3.44194e-05
3.44418e-05
3.44522e-05
3.44378e-05
3.44539e-05
3.4561e-05
3.47009e-05
3.4824e-05
3.4893e-05
3.48892e-05
3.48111e-05
3.46761e-05
3.45656e-05
3.46251e-05
3.48337e-05
3.49369e-05
3.43747e-05
3.43752e-05
3.43761e-05
3.43773e-05
3.43789e-05
3.43806e-05
3.43823e-05
3.43837e-05
3.43845e-05
3.43843e-05
3.43831e-05
3.43812e-05
3.43792e-05
3.43781e-05
3.43781e-05
3.43787e-05
3.43799e-05
3.43816e-05
3.43837e-05
3.43859e-05
3.43879e-05
3.43895e-05
3.43902e-05
3.43898e-05
3.43888e-05
3.43884e-05
3.43896e-05
3.43921e-05
3.43936e-05
3.43919e-05
3.43919e-05
3.44029e-05
3.44167e-05
3.44253e-05
3.44227e-05
3.44087e-05
3.44206e-05
3.4443e-05
3.44522e-05
3.44369e-05
3.44592e-05
3.4571e-05
3.47125e-05
3.48342e-05
3.48992e-05
3.48899e-05
3.48058e-05
3.46667e-05
3.45661e-05
3.46381e-05
3.48541e-05
3.49528e-05
3.43747e-05
3.43752e-05
3.43762e-05
3.43775e-05
3.43791e-05
3.43808e-05
3.43826e-05
3.4384e-05
3.43847e-05
3.43845e-05
3.43831e-05
3.43811e-05
3.4379e-05
3.4378e-05
3.43781e-05
3.43787e-05
3.43799e-05
3.43817e-05
3.43839e-05
3.43861e-05
3.43882e-05
3.43897e-05
3.43903e-05
3.43899e-05
3.43888e-05
3.43884e-05
3.43897e-05
3.43922e-05
3.43935e-05
3.43918e-05
3.43924e-05
3.44042e-05
3.44181e-05
3.44263e-05
3.44228e-05
3.44088e-05
3.44218e-05
3.44442e-05
3.4452e-05
3.44361e-05
3.44648e-05
3.45812e-05
3.47242e-05
3.48442e-05
3.49051e-05
3.48901e-05
3.47999e-05
3.46573e-05
3.4568e-05
3.4652e-05
3.48751e-05
3.49687e-05
3.43746e-05
3.43747e-05
3.43753e-05
3.43763e-05
3.43777e-05
3.43793e-05
3.43812e-05
3.43829e-05
3.43844e-05
3.4385e-05
3.43846e-05
3.43831e-05
3.4381e-05
3.43789e-05
3.43779e-05
3.43782e-05
3.43787e-05
3.438e-05
3.43819e-05
3.43841e-05
3.43864e-05
3.43884e-05
3.43899e-05
3.43905e-05
3.43899e-05
3.43888e-05
3.43884e-05
3.43897e-05
3.43922e-05
3.43935e-05
3.43916e-05
3.43931e-05
3.44054e-05
3.44195e-05
3.44273e-05
3.44229e-05
3.4409e-05
3.4423e-05
3.44453e-05
3.44517e-05
3.44355e-05
3.44709e-05
3.45916e-05
3.47358e-05
3.4854e-05
3.49106e-05
3.48898e-05
3.47933e-05
3.4648e-05
3.45715e-05
3.46666e-05
3.48964e-05
3.49846e-05
3.43746e-05
3.43747e-05
3.43753e-05
3.43764e-05
3.43779e-05
3.43796e-05
3.43815e-05
3.43833e-05
3.43847e-05
3.43852e-05
3.43847e-05
3.43831e-05
3.43808e-05
3.43787e-05
3.43779e-05
3.43782e-05
3.43787e-05
3.43801e-05
3.43821e-05
3.43843e-05
3.43866e-05
3.43887e-05
3.43902e-05
3.43907e-05
3.439e-05
3.43888e-05
3.43884e-05
3.43898e-05
3.43923e-05
3.43934e-05
3.43915e-05
3.43938e-05
3.44068e-05
3.44208e-05
3.44282e-05
3.4423e-05
3.44093e-05
3.44243e-05
3.44464e-05
3.44513e-05
3.4435e-05
3.44774e-05
3.46023e-05
3.47474e-05
3.48635e-05
3.49156e-05
3.48888e-05
3.47863e-05
3.46388e-05
3.45762e-05
3.4682e-05
3.49182e-05
3.50004e-05
3.43751e-05
3.43746e-05
3.43747e-05
3.43754e-05
3.43765e-05
3.43781e-05
3.43799e-05
3.43818e-05
3.43836e-05
3.4385e-05
3.43855e-05
3.43848e-05
3.43831e-05
3.43806e-05
3.43785e-05
3.43779e-05
3.43782e-05
3.43787e-05
3.43802e-05
3.43822e-05
3.43846e-05
3.43869e-05
3.4389e-05
3.43904e-05
3.43908e-05
3.439e-05
3.43887e-05
3.43884e-05
3.43898e-05
3.43924e-05
3.43933e-05
3.43913e-05
3.43946e-05
3.44081e-05
3.44222e-05
3.44291e-05
3.44229e-05
3.44097e-05
3.44256e-05
3.44474e-05
3.44508e-05
3.44347e-05
3.44843e-05
3.46132e-05
3.47591e-05
3.48728e-05
3.49201e-05
3.48873e-05
3.47788e-05
3.46299e-05
3.45823e-05
3.46981e-05
3.49404e-05
3.50162e-05
3.43752e-05
3.43746e-05
3.43747e-05
3.43755e-05
3.43767e-05
3.43783e-05
3.43802e-05
3.43822e-05
3.4384e-05
3.43853e-05
3.43857e-05
3.43849e-05
3.4383e-05
3.43805e-05
3.43784e-05
3.43779e-05
3.43782e-05
3.43788e-05
3.43803e-05
3.43824e-05
3.43848e-05
3.43872e-05
3.43893e-05
3.43907e-05
3.43909e-05
3.439e-05
3.43887e-05
3.43883e-05
3.43899e-05
3.43924e-05
3.43932e-05
3.43912e-05
3.43954e-05
3.44095e-05
3.44236e-05
3.443e-05
3.44228e-05
3.44102e-05
3.44269e-05
3.44483e-05
3.44502e-05
3.44347e-05
3.44916e-05
3.46242e-05
3.47707e-05
3.48818e-05
3.49241e-05
3.48852e-05
3.47708e-05
3.46214e-05
3.45895e-05
3.47149e-05
3.49629e-05
3.50319e-05
3.43752e-05
3.43747e-05
3.43748e-05
3.43755e-05
3.43768e-05
3.43785e-05
3.43805e-05
3.43825e-05
3.43844e-05
3.43857e-05
3.4386e-05
3.4385e-05
3.43829e-05
3.43803e-05
3.43782e-05
3.43779e-05
3.43783e-05
3.43788e-05
3.43804e-05
3.43826e-05
3.43851e-05
3.43875e-05
3.43896e-05
3.43909e-05
3.43911e-05
3.439e-05
3.43886e-05
3.43883e-05
3.43899e-05
3.43925e-05
3.43931e-05
3.43911e-05
3.43963e-05
3.4411e-05
3.4425e-05
3.44308e-05
3.44227e-05
3.44107e-05
3.44282e-05
3.44492e-05
3.44494e-05
3.44351e-05
3.44992e-05
3.46355e-05
3.47821e-05
3.48904e-05
3.49277e-05
3.48826e-05
3.47624e-05
3.46134e-05
3.45979e-05
3.47323e-05
3.49858e-05
3.50475e-05
3.43752e-05
3.43747e-05
3.43748e-05
3.43756e-05
3.4377e-05
3.43788e-05
3.43808e-05
3.43829e-05
3.43848e-05
3.4386e-05
3.43862e-05
3.43851e-05
3.43828e-05
3.43801e-05
3.43781e-05
3.43779e-05
3.43783e-05
3.43789e-05
3.43805e-05
3.43828e-05
3.43854e-05
3.43878e-05
3.43899e-05
3.43911e-05
3.43912e-05
3.439e-05
3.43885e-05
3.43883e-05
3.439e-05
3.43925e-05
3.4393e-05
3.43911e-05
3.43973e-05
3.44124e-05
3.44263e-05
3.44316e-05
3.44224e-05
3.44113e-05
3.44296e-05
3.445e-05
3.44486e-05
3.44358e-05
3.45073e-05
3.46468e-05
3.47934e-05
3.48987e-05
3.49308e-05
3.48794e-05
3.47536e-05
3.4606e-05
3.46074e-05
3.47504e-05
3.5009e-05
3.5063e-05
3.43764e-05
3.43753e-05
3.43747e-05
3.43748e-05
3.43757e-05
3.43772e-05
3.4379e-05
3.43811e-05
3.43833e-05
3.43852e-05
3.43864e-05
3.43864e-05
3.43851e-05
3.43827e-05
3.43799e-05
3.43779e-05
3.4378e-05
3.43784e-05
3.43789e-05
3.43806e-05
3.43831e-05
3.43857e-05
3.43881e-05
3.43902e-05
3.43913e-05
3.43913e-05
3.439e-05
3.43885e-05
3.43882e-05
3.439e-05
3.43925e-05
3.43929e-05
3.43911e-05
3.43983e-05
3.44139e-05
3.44277e-05
3.44323e-05
3.44221e-05
3.44119e-05
3.44309e-05
3.44507e-05
3.44477e-05
3.4437e-05
3.45156e-05
3.46582e-05
3.48045e-05
3.49066e-05
3.49333e-05
3.48757e-05
3.47444e-05
3.45994e-05
3.4618e-05
3.47691e-05
3.50325e-05
3.50784e-05
3.43765e-05
3.43753e-05
3.43747e-05
3.43749e-05
3.43759e-05
3.43774e-05
3.43793e-05
3.43815e-05
3.43837e-05
3.43856e-05
3.43867e-05
3.43866e-05
3.43852e-05
3.43826e-05
3.43796e-05
3.43778e-05
3.4378e-05
3.43784e-05
3.4379e-05
3.43808e-05
3.43833e-05
3.4386e-05
3.43884e-05
3.43904e-05
3.43916e-05
3.43914e-05
3.439e-05
3.43884e-05
3.43882e-05
3.439e-05
3.43925e-05
3.43927e-05
3.43911e-05
3.43995e-05
3.44154e-05
3.4429e-05
3.4433e-05
3.44218e-05
3.44126e-05
3.44323e-05
3.44513e-05
3.44467e-05
3.44387e-05
3.45242e-05
3.46696e-05
3.48155e-05
3.49141e-05
3.49354e-05
3.48714e-05
3.47349e-05
3.45938e-05
3.46295e-05
3.47884e-05
3.50562e-05
3.50936e-05
3.43778e-05
3.43766e-05
3.43753e-05
3.43747e-05
3.43749e-05
3.4376e-05
3.43776e-05
3.43796e-05
3.43819e-05
3.43841e-05
3.4386e-05
3.4387e-05
3.43868e-05
3.43852e-05
3.43824e-05
3.43794e-05
3.43778e-05
3.43781e-05
3.43784e-05
3.4379e-05
3.43809e-05
3.43835e-05
3.43863e-05
3.43888e-05
3.43907e-05
3.43918e-05
3.43915e-05
3.43899e-05
3.43883e-05
3.43881e-05
3.43901e-05
3.43925e-05
3.43926e-05
3.43913e-05
3.44006e-05
3.4417e-05
3.44303e-05
3.44336e-05
3.44214e-05
3.44133e-05
3.44336e-05
3.44518e-05
3.44457e-05
3.44409e-05
3.4533e-05
3.46811e-05
3.48263e-05
3.49213e-05
3.49369e-05
3.48665e-05
3.47251e-05
3.45893e-05
3.4642e-05
3.48083e-05
3.50803e-05
3.51087e-05
3.4378e-05
3.43767e-05
3.43753e-05
3.43747e-05
3.4375e-05
3.43761e-05
3.43779e-05
3.438e-05
3.43823e-05
3.43845e-05
3.43864e-05
3.43873e-05
3.4387e-05
3.43852e-05
3.43822e-05
3.43792e-05
3.43777e-05
3.43782e-05
3.43784e-05
3.43791e-05
3.43811e-05
3.43838e-05
3.43866e-05
3.43891e-05
3.4391e-05
3.4392e-05
3.43915e-05
3.43899e-05
3.43882e-05
3.43881e-05
3.43901e-05
3.43925e-05
3.43924e-05
3.43914e-05
3.44018e-05
3.44185e-05
3.44316e-05
3.44341e-05
3.44209e-05
3.44141e-05
3.4435e-05
3.44522e-05
3.44446e-05
3.44438e-05
3.45421e-05
3.46925e-05
3.48368e-05
3.4928e-05
3.49379e-05
3.4861e-05
3.47151e-05
3.4586e-05
3.46554e-05
3.48286e-05
3.51045e-05
3.51236e-05
3.43782e-05
3.43767e-05
3.43753e-05
3.43747e-05
3.43751e-05
3.43763e-05
3.43781e-05
3.43803e-05
3.43827e-05
3.4385e-05
3.43868e-05
3.43877e-05
3.43871e-05
3.43851e-05
3.4382e-05
3.43789e-05
3.43777e-05
3.43783e-05
3.43785e-05
3.43792e-05
3.43813e-05
3.43841e-05
3.43869e-05
3.43894e-05
3.43913e-05
3.43922e-05
3.43916e-05
3.43898e-05
3.43881e-05
3.4388e-05
3.43901e-05
3.43925e-05
3.43922e-05
3.43917e-05
3.44031e-05
3.44201e-05
3.44329e-05
3.44346e-05
3.44204e-05
3.4415e-05
3.44363e-05
3.44525e-05
3.44435e-05
3.44472e-05
3.45514e-05
3.4704e-05
3.48471e-05
3.49343e-05
3.49384e-05
3.4855e-05
3.4705e-05
3.45841e-05
3.46698e-05
3.48495e-05
3.51289e-05
3.51382e-05
3.43784e-05
3.43768e-05
3.43753e-05
3.43747e-05
3.43751e-05
3.43765e-05
3.43784e-05
3.43807e-05
3.43831e-05
3.43854e-05
3.43872e-05
3.4388e-05
3.43873e-05
3.43851e-05
3.43818e-05
3.43787e-05
3.43777e-05
3.43784e-05
3.43785e-05
3.43792e-05
3.43815e-05
3.43844e-05
3.43872e-05
3.43898e-05
3.43916e-05
3.43924e-05
3.43916e-05
3.43897e-05
3.43879e-05
3.4388e-05
3.43901e-05
3.43925e-05
3.43921e-05
3.43921e-05
3.44044e-05
3.44216e-05
3.44341e-05
3.4435e-05
3.44198e-05
3.44158e-05
3.44375e-05
3.44527e-05
3.44424e-05
3.44513e-05
3.45609e-05
3.47154e-05
3.48572e-05
3.49402e-05
3.49383e-05
3.48485e-05
3.46949e-05
3.45838e-05
3.46849e-05
3.48709e-05
3.51535e-05
3.51527e-05
3.43786e-05
3.43768e-05
3.43753e-05
3.43747e-05
3.43752e-05
3.43767e-05
3.43787e-05
3.4381e-05
3.43835e-05
3.43859e-05
3.43876e-05
3.43883e-05
3.43874e-05
3.4385e-05
3.43816e-05
3.43785e-05
3.43778e-05
3.43785e-05
3.43785e-05
3.43793e-05
3.43817e-05
3.43847e-05
3.43876e-05
3.43901e-05
3.43919e-05
3.43925e-05
3.43917e-05
3.43896e-05
3.43878e-05
3.43879e-05
3.43902e-05
3.43924e-05
3.43919e-05
3.43926e-05
3.44058e-05
3.44232e-05
3.44353e-05
3.44353e-05
3.44192e-05
3.44167e-05
3.44388e-05
3.44527e-05
3.44413e-05
3.44558e-05
3.45706e-05
3.47268e-05
3.4867e-05
3.49457e-05
3.49377e-05
3.48414e-05
3.46848e-05
3.45851e-05
3.47009e-05
3.48928e-05
3.51782e-05
3.51669e-05
3.43787e-05
3.43769e-05
3.43753e-05
3.43747e-05
3.43753e-05
3.43769e-05
3.4379e-05
3.43814e-05
3.4384e-05
3.43863e-05
3.4388e-05
3.43885e-05
3.43875e-05
3.43849e-05
3.43813e-05
3.43783e-05
3.43778e-05
3.43786e-05
3.43785e-05
3.43795e-05
3.43819e-05
3.4385e-05
3.43879e-05
3.43904e-05
3.43922e-05
3.43927e-05
3.43917e-05
3.43895e-05
3.43877e-05
3.43878e-05
3.43902e-05
3.43924e-05
3.43917e-05
3.43932e-05
3.44072e-05
3.44248e-05
3.44365e-05
3.44356e-05
3.44186e-05
3.44176e-05
3.44399e-05
3.44527e-05
3.44403e-05
3.44607e-05
3.45805e-05
3.47381e-05
3.48765e-05
3.49506e-05
3.49365e-05
3.48338e-05
3.46748e-05
3.45882e-05
3.47177e-05
3.49151e-05
3.5203e-05
3.51808e-05
3.43789e-05
3.43769e-05
3.43753e-05
3.43747e-05
3.43754e-05
3.43771e-05
3.43793e-05
3.43818e-05
3.43844e-05
3.43868e-05
3.43884e-05
3.43888e-05
3.43876e-05
3.43847e-05
3.4381e-05
3.43781e-05
3.43779e-05
3.43786e-05
3.43785e-05
3.43796e-05
3.43822e-05
3.43853e-05
3.43883e-05
3.43908e-05
3.43924e-05
3.43929e-05
3.43917e-05
3.43894e-05
3.43875e-05
3.43878e-05
3.43902e-05