/*--------------------------------*- C++ -*----------------------------------*\
  =========                 |
  \\      /  F ield         | OpenFOAM: The Open Source CFD Toolbox
   \\    /   O peration     | Website:  https://openfoam.org
    \\  /    A nd           | Version:  7
     \\/     M anipulation  |
\*---------------------------------------------------------------------------*/
FoamFile
{
    version     2.0;
    format      ascii;
    class       volScalarField;
    location    "1000";
    object      p;
}
// * * * * * * * * * * * * * * * * * * * * * * * * * * * * * * * * * * * * * //

dimensions      [0 2 -2 0 0 0 0];

internalField   nonuniform List<scalar> 
23023
(
9.33212
-3.55362
9.26189
-7.73131
-3.60719
9.18844
-12.9432
-7.75615
-3.66275
9.1119
-12.9233
-7.78012
-3.72015
9.03237
-15.1914
-12.9016
-7.80351
-3.77923
8.94998
-15.4608
-15.1293
-12.8783
-7.8265
-3.83992
8.86492
-13.1252
-15.368
-15.0643
-12.8535
-7.84914
-3.90226
8.77731
-8.83334
-13.0169
-15.2719
-14.9968
-12.8272
-7.87142
-3.96631
8.68723
-3.32673
-8.72546
-12.9052
-15.1726
-14.9267
-12.7996
-7.89338
-4.03214
8.59472
2.24701
-3.23303
-8.61489
-12.7904
-15.0702
-14.8543
-12.7707
-7.91506
-4.09973
8.49982
2.31777
-3.13762
-8.50163
-12.6723
-14.9649
-14.7796
-12.7406
-7.93651
-4.16905
8.4026
6.93457
2.38908
-3.04047
-8.38572
-12.5512
-14.8567
-14.7027
-12.7094
-7.95773
-4.24004
8.30313
9.9822
6.9787
2.46099
-2.94163
-8.26726
-12.4272
-14.7457
-14.6237
-12.6772
-7.97872
-4.31264
8.20148
11.3484
10.0011
7.02233
2.53347
-2.84117
-8.14633
-12.3003
-14.6322
-14.5427
-12.644
-7.99949
-4.3868
8.09774
11.3668
11.3476
10.0189
7.06558
2.60646
-2.73915
-8.02301
-12.1707
-14.5161
-14.4598
-12.6097
-8.02004
-4.46248
7.99198
11.3536
11.3456
10.0358
7.10848
2.67995
-2.63558
-7.89734
-12.0385
-14.3975
-14.3751
-12.5746
-8.04038
-4.53963
7.8843
10.6085
11.3394
11.3424
10.0516
7.15098
2.75398
-2.53045
-7.76941
-11.9037
-14.2767
-14.2886
-12.5385
-8.06054
-4.61824
7.77478
9.71935
10.5892
11.3242
11.3382
10.0665
7.19309
2.82858
-2.42384
-7.6393
-11.7664
-14.1535
-14.2003
-12.5015
-8.08054
-4.69827
7.66349
9.70055
10.5694
11.3081
11.3328
10.0805
7.23488
2.90374
-2.31578
-7.50706
-11.6267
-14.0281
-14.1104
-12.4637
-8.1004
-4.77971
7.55051
9.11799
9.6817
10.5491
11.2911
11.3263
10.0936
7.27638
2.97942
-2.20634
-7.37277
-11.4847
-13.9006
-14.0189
-12.4252
-8.12015
-4.86253
7.4359
9.05026
9.10299
9.66285
10.5284
11.2732
11.3188
10.1058
7.31758
3.05559
-2.09556
-7.23648
-11.3405
-13.7711
-13.9258
-12.3858
-8.1398
-4.94669
7.31973
9.49544
9.03949
9.08836
9.64404
10.5072
11.2545
11.3102
10.1171
7.35847
3.13223
-1.98344
-7.09823
-11.194
-13.6395
-13.8313
-12.3458
-8.15936
-5.03215
7.20204
10.3151
9.48755
9.02932
9.07412
9.62526
10.4856
11.2348
11.3005
10.1276
7.39904
3.20937
-1.87001
-6.95808
-11.0455
-13.5061
-13.7354
-12.3051
-8.17883
-5.11888
7.08291
10.308
9.48031
9.01977
9.06029
9.60648
10.4634
11.2142
11.2898
10.1372
7.43932
3.287
-1.7553
-6.8161
-10.8949
-13.3708
-13.6381
-12.2637
-8.19821
-5.20683
6.96238
11.3028
10.3015
9.47376
9.01086
9.04686
9.58761
10.4407
11.1926
11.278
10.1461
7.47934
3.36514
-1.63935
-6.67234
-10.7424
-13.2338
-13.5395
-12.2217
-8.21753
-5.29596
6.84052
12.2773
11.2951
10.2956
9.46792
9.00257
9.03376
9.56859
10.4174
11.1702
11.2653
10.1542
7.51915
3.44379
-1.52217
-6.52685
-10.588
-13.0951
-13.4397
-12.1792
-8.23677
-5.38625
6.71736
12.2669
11.2878
10.2904
9.46275
8.99482
9.02092
9.54941
10.3935
11.147
11.2518
10.1616
7.55877
3.52293
-1.40382
-6.3797
-10.4318
-12.9548
-13.3387
-12.136
-8.25597
-5.47765
6.59294
13.078
12.2567
11.2809
10.2857
9.4582
8.98757
9.00829
9.53007
10.3692
11.123
11.2373
10.1684
7.59822
3.60256
-1.28432
-6.23095
-10.2738
-12.8129
-13.2365
-12.0924
-8.27514
-5.57015
6.46731
13.6851
13.0645
12.2468
11.2746
10.2817
9.45423
8.98076
8.99583
9.5106
10.3443
11.0983
11.2221
10.1746
7.63751
3.68267
-1.1637
-6.08063
-10.1141
-12.6695
-13.1333
-12.0482
-8.29429
-5.66371
6.34049
13.6683
13.0511
12.2373
11.2687
10.2781
9.45078
8.97434
8.98355
9.49106
10.3191
11.0729
11.2061
10.1801
7.67666
3.76325
-1.042
-5.9288
-9.95274
-12.5246
-13.0289
-12.0035
-8.31343
-5.75829
6.21253
14.1245
13.6516
13.038
12.2281
11.2632
10.2751
9.44783
8.96833
8.97149
9.47147
10.2935
11.0469
11.1894
10.1851
7.71566
3.8443
-0.919227
-5.77549
-9.78981
-12.3783
-12.9236
-11.9584
-8.33256
-5.85387
6.08345
14.5469
14.1055
13.6351
13.0251
12.2193
11.2582
10.2726
9.44536
8.96274
8.95967
9.45184
10.2675
11.0202
11.1719
10.1896
7.75455
3.92581
-0.795421
-5.62076
-9.62534
-12.2306
-12.8173
-11.9129
-8.3517
-5.95042
5.9533
14.526
14.0866
13.619
13.0125
12.2107
11.2535
10.2705
9.44339
8.95759
8.9481
9.43219
10.2411
10.9929
11.1537
10.1935
7.79332
4.00778
-0.670608
-5.46465
-9.4594
-12.0817
-12.7101
-11.867
-8.37083
-6.04789
5.82213
15.0113
14.5054
14.0679
13.6032
13.0002
12.2025
11.2492
10.2688
9.44192
8.95289
8.9368
9.41248
10.2144
10.9649
11.1348
10.1969
7.832
4.0902
-0.544824
-5.30722
-9.29206
-11.9316
-12.602
-11.8207
-8.38996
-6.14625
5.68999
15.594
14.9897
14.4852
14.0497
13.5876
12.9881
12.1945
11.2453
10.2676
9.44097
8.94863
8.92575
9.39272
10.1873
10.9363
11.1152
10.1998
7.8706
4.17307
-0.418107
-5.14853
-9.12337
-11.7802
-12.4931
-11.774
-8.4091
-6.24547
5.5569
15.5713
14.9685
14.4655
14.0319
13.5723
12.9762
12.1868
11.2417
10.2669
9.44051
8.9448
8.91492
9.3729
10.1598
10.9072
11.095
10.2023
7.90913
4.25635
-0.290495
-4.98861
-8.95337
-11.6277
-12.3834
-11.727
-8.42824
-6.34554
5.42292
16.2175
15.5491
14.9477
14.4463
14.0144
13.5572
12.9646
12.1793
11.2385
10.2667
9.44055
8.94137
8.9043
9.353
10.132
10.8774
11.0742
10.2043
7.94758
4.34003
-0.162024
-4.82752
-8.78211
-11.4742
-12.2728
-11.6796
-8.4474
-6.44643
5.28807
16.8746
16.1942
15.5274
14.9276
14.4276
13.9973
13.5424
12.953
12.172
11.2356
10.2669
9.44104
8.93832
8.89387
9.33303
10.1038
10.8472
11.0529
10.2059
7.98597
4.4241
-0.032711
-4.66529
-8.60962
-11.3195
-12.1616
-11.6319
-8.46659
-6.54811
5.15238
17.5102
16.8497
16.1712
15.5063
14.9081
14.4093
13.9804
13.5277
12.9417
12.165
11.233
10.2675
9.44199
8.93563
8.88363
9.31298
10.0752
10.8164
11.0309
10.2071
8.02427
4.50854
0.0974256
-4.50193
-8.43595
-11.1638
-12.0496
-11.5839
-8.48582
-6.65058
5.01588
18.1249
17.4834
16.8251
16.1488
15.4858
14.889
14.3913
13.9638
13.5132
12.9305
12.1582
11.2308
10.2686
9.44337
8.9333
8.87356
9.29287
10.0464
10.785
11.0084
10.2079
8.06251
4.59336
0.22837
-4.33749
-8.26113
-11.0072
-11.9369
-11.5356
-8.50511
-6.75382
4.87859
18.7363
18.0963
17.457
16.8011
16.1271
15.4659
14.8704
14.3738
13.9474
13.4988
12.9196
12.1517
11.229
10.27
9.44516
8.93131
8.86366
9.27269
10.0172
10.7532
10.9853
10.2082
8.10067
4.67855
0.360111
-4.17199
-8.0852
-10.8495
-11.8236
-11.4871
-8.52445
-6.85781
4.74053
19.3602
18.7059
18.0681
17.4313
16.7778
16.1059
15.4465
14.8522
14.3565
13.9313
13.4847
12.9088
12.1454
11.2274
10.2719
9.44737
8.92964
8.85391
9.25243
9.98771
10.7209
10.9617
10.2082
8.1388
4.76413
0.49263
-4.00546
-7.9082
-10.691
-11.7097
-11.4384
-8.54385
-6.96253
4.60173
19.3282
18.6761
18.0406
17.4062
16.755
16.0853
15.4275
14.8345
14.3396
13.9154
13.4707
12.8981
12.1394
11.2262
10.2741
9.44996
8.92829
8.84432
9.23209
9.9579
10.6881
10.9376
10.2079
8.17689
4.85009
0.625911
-3.83794
-7.7302
-10.5317
-11.5952
-11.3895
-8.56332
-7.06796
4.46222
19.972
19.2968
18.647
18.0139
17.3818
16.7328
16.0652
15.4091
14.8172
14.323
13.8998
13.457
12.8877
12.1336
11.2253
10.2767
9.45293
8.92723
8.83486
9.21166
9.92778
10.6548
10.913
10.2072
8.21497
4.93644
0.759925
-3.66949
-7.55123
-10.3715
-11.4801
-11.3403
-8.58284
-7.17406
4.32202
20.6467
19.9395
19.2663
18.6188
17.9879
17.358
16.7112
16.0456
15.3911
14.8003
14.3068
13.8844
13.4434
12.8774
12.128
11.2247
10.2797
9.45626
8.92645
8.82552
9.19113
9.89734
10.6211
10.888
10.2062
8.25306
5.02316
0.894629
-3.50014
-7.37135
-10.2106
-11.3646
-11.291
-8.60242
-7.28082
4.18118
20.6126
19.9076
19.2368
18.5914
17.9625
17.3347
16.6901
16.0264
15.3735
14.7837
14.2909
13.8692
13.4299
12.8673
12.1226
11.2244
10.283
9.45991
8.92593
8.81629
9.17051
9.86662
10.5869
10.8626
10.205
8.29116
5.11024
1.02999
-3.32994
-7.1906
-10.0489
-11.2485
-11.2414
-8.62205
-7.38822
4.03972
21.3299
20.5792
19.8766
19.2081
18.5647
17.9378
17.312
16.6694
16.0077
15.3564
14.7676
14.2752
13.8542
13.4166
12.8573
12.1175
11.2243
10.2866
9.46389
8.92566
8.80716
9.14981
9.83561
10.5524
10.8367
10.2035
8.32927
5.19765
1.16598
-3.15894
-7.00902
-9.88651
-11.132
-11.1917
-8.64173
-7.49622
3.89767
22.1111
21.2953
20.5469
19.8467
19.1802
18.5387
17.9137
17.2899
16.6493
15.9895
15.3397
14.7518
14.2599
13.8395
13.4035
12.8475
12.1125
11.2245
10.2906
9.46817
8.92562
8.79813
9.12902
9.80435
10.5175
10.8105
10.2018
8.36739
5.28537
1.30257
-2.98715
-6.82663
-9.72345
-11.015
-11.1418
-8.66146
-7.60481
3.75506
22.9747
22.0747
21.2616
20.5158
19.8177
19.1531
18.5134
17.8902
17.2682
16.6295
15.9716
15.3234
14.7364
14.2448
13.8249
13.3905
12.8379
12.1077
11.225
10.2948
9.47275
8.9258
8.78919
9.10816
9.77284
10.4822
10.7839
10.1998
8.40551
5.37339
1.43974
-2.81461
-6.64345
-9.55973
-10.8975
-11.0917
-8.68125
-7.71396
3.6119
23.9336
22.9362
22.0392
21.229
20.4856
19.7896
19.1268
18.4888
17.8672
17.247
16.6103
15.9542
15.3074
14.7213
14.23
13.8105
13.3777
12.8283
12.1031
11.2257
10.2993
9.4776
8.92621
8.78035
9.08723
9.74111
10.4466
10.7569
10.1976
8.44362
5.46168
1.57746
-2.64134
-6.45951
-9.39535
-10.7796
-11.0414
-8.70109
-7.82368
3.46823
24.9896
23.8925
22.8987
22.0051
21.1976
20.4565
19.7624
19.1012
18.4647
17.8447
17.2263
16.5914
15.9372
15.2919
14.7065
14.2155
13.7963
13.365
12.819
12.0987
11.2267
10.3041
9.48273
8.92683
8.77161
9.06624
9.70917
10.4107
10.7297
10.1951
8.48172
5.55025
1.71574
-2.46734
-6.27481
-9.23032
-10.6613
-10.991
-8.72099
-7.93393
3.32405
26.1316
24.9454
23.8526
22.8626
21.9722
21.1673
20.4283
19.7359
19.0763
18.4412
17.8228
17.206
16.573
15.9206
15.2767
14.6921
14.2012
13.7823
13.3524
12.8097
12.0945
11.2278
10.3092
9.48813
8.92766
8.76296
9.04521
9.67702
10.3744
10.702
10.1924
8.51979
5.6391
1.85456
-2.29264
-6.08938
-9.06468
-10.5425
-10.9404
-8.74096
-8.0447
3.17937
27.3377
26.0837
24.9025
23.8141
22.828
21.9407
21.1382
20.401
19.7102
19.052
18.4183
17.8013
17.1861
16.5549
15.9043
15.2619
14.678
14.1872
13.7685
13.3399
12.8006
12.0903
11.2292
10.3145
9.49379
8.9287
8.7544
9.02412
9.64465
10.3378
10.674
10.1895
8.55786
5.72822
1.99393
-2.11723
-5.90323
-8.89843
-10.4233
-10.8897
-8.761
-8.15598
3.03422
28.5824
27.2858
26.0374
24.8612
23.7773
22.7948
21.9103
21.11
20.3746
19.6853
19.0283
18.396
17.7803
17.1667
16.5372
15.8884
15.2474
14.6641
14.1734
13.7548
13.3276
12.7915
12.0864
11.2308
10.32
9.49969
8.92993
8.74594
9.00298
9.61208
10.3009
10.6457
10.1863
8.59593
5.81763
2.13384
-1.94113
-5.71638
-8.73161
-10.3038
-10.8388
-8.78112
-8.26776
2.88859
29.845
28.5258
27.2353
25.9927
24.8216
23.742
22.7629
21.881
21.0828
20.349
19.661
19.0053
18.3741
17.7598
17.1476
16.5199
15.8729
15.2332
14.6506
14.1598
13.7413
13.3154
12.7826
12.0826
11.2326
10.3258
9.50584
8.93136
8.73757
8.98178
9.5793
10.2637
10.617
10.1829
8.63401
5.90733
2.27428
-1.76436
-5.52886
-8.56422
-10.1839
-10.7879
-8.80132
-8.38003
2.74251
31.1184
29.7834
28.4708
27.1866
25.9497
24.7836
23.708
22.7322
21.8528
21.0565
20.3242
19.6374
18.9828
18.3528
17.7397
17.129
16.5029
15.8577
15.2193
14.6373
14.1464
13.7279
13.3032
12.7738
12.0789
11.2346
10.3319
9.51222
8.93297
8.72928
8.96051
9.54631
10.2262
10.5881
10.1794
8.67213
5.99733
2.41525
-1.58694
-5.34068
-8.39631
-10.0637
-10.7368
-8.8216
-8.49275
2.59597
32.4115
31.0513
29.7234
28.4177
27.1398
25.9084
24.7471
23.6754
22.7027
21.8257
21.0311
20.3002
19.6145
18.9609
18.3319
17.72
17.1107
16.4863
15.8428
15.2058
14.6242
14.1332
13.7146
13.2912
12.7651
12.0754
11.2367
10.3381
9.51882
8.93476
8.72107
8.93917
9.5131
10.1883
10.5588
10.1757
8.71029
6.08763
2.55674
-1.40889
-5.15189
-8.22789
-9.9431
-10.6857
-8.84196
-8.60595
2.44909
33.7458
32.3387
30.9861
29.6654
28.3664
27.0946
25.8686
24.7119
23.6441
22.6743
21.7995
21.0065
20.2768
19.5922
18.9396
18.3116
17.7007
17.0928
16.47
15.8282
15.1925
14.6115
14.1202
13.7015
13.2792
12.7564
12.072
11.2391
10.3446
9.52565
8.93671
8.71292
8.91777
9.4797
10.1502
10.5293
10.1718
8.7485
6.17822
2.69872
-1.23024
-4.9625
-8.059
-9.82225
-10.6345
-8.86241
-8.71951
2.30177
35.1477
33.6672
32.268
30.9229
29.6094
28.3169
27.0511
25.8303
24.6782
23.614
22.647
21.7743
20.9828
20.2542
19.5705
18.9187
18.2916
17.6818
17.0752
16.4541
15.8139
15.1795
14.5989
14.1073
13.6884
13.2674
12.7479
12.0687
11.2416
10.3512
9.53268
8.93883
8.70483
8.89629
9.44609
10.1118
10.4995
10.1678
8.78678
6.26911
2.84117
-1.05101
-4.77256
-7.88966
-9.70111
-10.5831
-8.88291
-8.83352
2.15314
36.6409
35.063
33.5909
32.1996
30.8619
29.5552
28.2691
27.009
25.7935
24.6457
23.5851
22.6208
21.75
20.9598
20.2322
19.5493
18.8984
18.2721
17.6633
17.0579
16.4384
15.7999
15.1668
14.5866
14.0947
13.6756
13.2556
12.7394
12.0656
11.2442
10.3581
9.53992
8.9411
8.69679
8.87474
9.41229
10.0732
10.4695
10.1636
8.82513
6.36028
2.98409
-0.871237
-4.58208
-7.71991
-9.5797
-10.5318
-8.9035
-8.9487
2.00366
38.2442
36.5499
34.9809
33.517
32.1335
30.8029
29.5028
28.2229
26.9685
25.758
24.6145
23.5573
22.5955
21.7265
20.9376
20.2109
19.5287
18.8785
18.253
17.6451
17.041
16.423
15.7861
15.1543
14.5745
14.0822
13.6628
13.2439
12.7311
12.0625
11.2471
10.3652
9.54735
8.94351
8.68881
8.85312
9.37831
10.0343
10.4393
10.1594
8.86356
6.45172
3.12743
-0.690946
-4.39111
-7.54973
-9.45811
-10.4804
-8.92448
-9.06447
1.85574
39.9745
38.1464
36.4617
34.9015
33.4457
32.0695
30.7458
29.4522
28.1782
26.9294
25.7238
24.5845
23.5306
22.5712
21.7039
20.9161
20.1902
19.5087
18.8591
18.2343
17.6273
17.0244
16.4079
15.7727
15.142
14.5626
14.0698
13.6501
13.2323
12.7228
12.0596
11.2501
10.3725
9.55497
8.94606
8.68087
8.83143
9.34417
9.99521
10.4089
10.1551
8.90205
6.54342
3.27119
-0.510173
-4.19964
-7.37927
-9.33628
-10.4287
-8.94555
-9.17861
1.70966
39.8693
38.0518
36.3766
34.8249
33.3768
32.0077
30.6906
29.4031
28.1351
26.8917
25.6909
24.5556
23.5049
22.5479
21.6821
20.8953
20.1701
19.4892
18.8401
18.216
17.6098
17.008
16.3931
15.7594
15.13
14.5508
14.0576
13.6375
13.2207
12.7146
12.0568
11.2533
10.38
9.56277
8.94874
8.67298
8.80968
9.30986
9.9559
10.3783
10.1507
8.94061
6.63535
3.41532
-0.328909
-4.00784
-7.20843
-9.21364
-10.3768
-8.96592
-9.29106
1.56399
41.7393
39.7676
37.9604
36.2945
34.7509
33.3102
31.9479
30.6371
29.3557
28.0933
26.8552
25.6592
24.5278
23.4802
22.5254
21.6611
20.8752
20.1506
19.4701
18.8216
18.198
17.5926
16.992
16.3785
15.7464
15.1182
14.5393
14.0455
13.625
13.2092
12.7064
12.0541
11.2566
10.3876
9.57075
8.95155
8.66513
8.78787
9.2754
9.91639
10.3475
10.1462
8.97922
6.72751
3.55984
-0.147325
-3.81557
-7.03633
-9.09029
-10.3248
-8.98581
-9.40323
1.41835
41.6301
39.6695
37.8725
36.2153
34.6795
33.2458
31.8899
30.5852
29.3097
28.0529
26.82
25.6286
24.5011
23.4565
22.5038
21.6408
20.8557
20.1316
19.4515
18.8035
18.1804
17.5758
16.9762
16.3641
15.7337
15.1066
14.528
14.0336
13.6126
13.1978
12.6984
12.0515
11.2601
10.3954
9.57889
8.95448
8.65731
8.766
9.2408
9.87669
10.3165
10.1415
9.01788
6.8199
3.70461
0.0347206
-3.62178
-6.86323
-8.96761
-10.2732
-9.00591
-9.51537
1.27307
43.6691
41.5246
39.5751
37.7877
36.1389
34.6105
33.1835
31.8338
30.535
29.2651
28.0138
26.786
25.5991
24.4755
23.4337
22.483
21.6212
20.8368
20.1131
19.4334
18.7857
18.1632
17.5592
16.9606
16.35
15.7211
15.0952
14.5168
14.0218
13.6003
13.1865
12.6904
12.0491
11.2637
10.4034
9.58719
8.95752
8.64954
8.74408
9.20605
9.83679
10.2854
10.1368
9.0566
6.91241
3.84976
0.218283
-3.42688
-6.69142
-8.84611
-10.2219
-9.02617
-9.62702
1.12839
43.5557
41.4229
39.4842
37.706
36.0651
34.5437
33.1231
31.7794
30.4863
29.2219
27.9759
26.7531
25.5707
24.4508
23.4118
22.463
21.6023
20.8186
20.0952
19.4158
18.7683
18.1462
17.5429
16.9453
16.3361
15.7088
15.084
14.5058
14.0102
13.5881
13.1752
12.6825
12.0467
11.2675
10.4115
9.59563
8.96066
8.64179
8.7221
9.17117
9.79671
10.254
10.132
9.09532
7.00514
3.99617
0.40288
-3.23367
-6.52142
-8.72519
-10.1708
-9.04626
-9.73798
0.984289
43.4462
41.3251
39.3966
37.6271
35.9938
34.4792
33.0647
31.7266
30.439
29.18
27.9393
26.7214
25.5434
24.427
23.3907
22.4437
21.5841
20.8009
20.0777
19.3985
18.7513
18.1296
17.5268
16.9302
16.3224
15.6966
15.0729
14.4949
13.9986
13.576
13.164
12.6747
12.0445
11.2714
10.4198
9.60421
8.96391
8.63408
8.70007
9.13615
9.75645
10.2225
10.1271
9.13409
7.09874
4.14339
0.585667
-3.04264
-6.3521
-8.60444
-10.1196
-9.06611
-9.84831
0.840699
43.3407
41.231
39.3122
37.5511
35.925
34.4168
33.0081
31.6755
30.3931
29.1394
27.9037
26.6907
25.517
24.4042
23.3705
22.4252
21.5665
20.7837
20.0608
19.3816
18.7346
18.1132
17.511
16.9153
16.3089
15.6847
15.0621
14.4842
13.9872
13.5639
13.1529
12.667
12.0423
11.2754
10.4283
9.61293
8.96725
8.62639
8.67798
9.10101
9.716
10.1909
10.1221
9.17326
7.19284
4.28898
0.766283
-2.85227
-6.18289
-8.48377
-10.0684
-9.0858
-9.95807
0.697627
45.5678
43.2393
41.1404
39.2309
37.4777
35.8585
34.3563
32.9532
31.6258
30.3486
29.0999
27.8693
26.6611
25.4916
24.3823
23.3511
22.4074
21.5496
20.7671
20.0442
19.3651
18.7183
18.0971
17.4955
16.9007
16.2956
15.6729
15.0514
14.4737
13.9759
13.552
13.1418
12.6593
12.0402
11.2795
10.4368
9.62177
8.97068
8.61874
8.65584
9.06573
9.6754
10.1591
10.1171
9.21263
7.28571
4.43275
0.946376
-2.66195
-6.01389
-8.36331
-10.0173
-9.1054
-10.0672
0.55511
45.4586
43.1417
41.0532
39.1525
37.4068
35.7942
34.2978
32.8999
31.5776
30.3054
29.0617
27.836
26.6324
25.4671
24.3612
23.3325
22.3903
21.5332
20.7509
20.0281
19.349
18.7022
18.0813
17.4801
16.8862
16.2825
15.6613
15.0409
14.4633
13.9647
13.5401
13.1308
12.6517
12.0382
11.2837
10.4455
9.63074
8.9742
8.6111
8.63364
9.03034
9.63462
10.127
10.1121
9.2513
7.37736
4.57622
1.12648
-2.47193
-5.84532
-8.24317
-9.96629
-9.12487
-10.1758
0.413178
47.9203
45.3532
43.0479
40.9693
39.077
37.3385
35.732
34.2412
32.8483
31.5308
30.2634
29.0245
27.8037
26.6047
25.4436
24.3409
23.3146
22.3738
21.5174
20.7353
20.0124
19.3332
18.6865
18.0657
17.465
16.872
16.2695
15.6499
15.0306
14.453
13.9537
13.5283
13.1199
12.6441
12.0363
11.2881
10.4543
9.63983
8.9778
8.60349
8.6114
8.99482
9.5935
10.0947
10.1069
9.28942
7.46894
4.71976
1.30626
-2.28248
-5.67725
-8.12335
-9.91532
-9.14417
-10.2836
0.271847
47.8066
45.2518
42.9576
40.8884
39.0041
37.2724
35.6719
34.1863
32.7983
31.4854
30.2226
28.9884
27.7723
26.5779
25.4208
24.3214
23.2974
22.3579
21.5021
20.7201
19.9971
19.3178
18.671
18.0504
17.4501
16.8579
16.2567
15.6386
15.0204
14.4429
13.9427
13.5166
13.109
12.6366
12.0344
11.2925
10.4633
9.64903
8.98148
8.59591
8.58911
8.95899
9.55215
10.0626
10.1017
9.32767
7.56067
4.86301
1.48541
-2.09365
-5.50966
-8.00381
-9.86439
-9.1633
-10.3908
0.131136
47.697
45.1543
42.8708
40.8106
38.9339
37.2086
35.6137
34.1331
32.7497
31.4412
30.1829
28.9534
27.742
26.5521
25.3989
24.3027
23.2808
22.3427
21.4873
20.7054
19.9821
19.3027
18.6558
18.0353
17.4354
16.844
16.2441
15.6275
15.0104
14.433
13.9318
13.5049
13.0981
12.6291
12.0327
11.2971
10.4723
9.65834
8.98524
8.58834
8.56662
8.92298
9.51117
10.031
10.0968
9.3661
7.65216
5.00569
1.66394
-1.90538
-5.34252
-7.88454
-9.8135
-9.18226
-10.4972
-0.0089339
47.5914
45.0606
42.7872
40.7356
38.8661
37.147
35.5574
34.0815
32.7025
31.3983
30.1444
28.9194
27.7125
26.5271
25.3778
24.2847
23.265
22.328
21.4731
20.691
19.9676
19.2878
18.6408
18.0204
17.4209
16.8303
16.2317
15.6166
15.0005
14.4231
13.9211
13.4933
13.0873
12.6217
12.031
11.3018
10.4815
9.66776
8.98908
8.58072
8.54401
8.88732
9.47071
9.99957
10.092
9.40441
7.74326
5.14785
1.84193
-1.71765
-5.17582
-7.76556
-9.76266
-9.20103
-10.6028
-0.148336
47.4899
44.9704
42.7067
40.6633
38.8007
37.0875
35.5029
34.0316
32.6567
31.3567
30.1069
28.8863
27.684
26.5029
25.3575
24.2674
23.2497
22.3138
21.4593
20.6771
19.9533
19.2733
18.6262
18.0058
17.4065
16.8167
16.2195
15.6058
14.9908
14.4134
13.9104
13.4817
13.0765
12.6143
12.0293
11.3065
10.4907
9.67728
8.99298
8.57306
8.52166
8.85213
9.43051
9.96835
10.0873
9.44253
7.83402
5.28958
2.01937
-1.53048
-5.0096
-7.64689
-9.71186
-9.2196
-10.7077
-0.287046
47.3923
44.8837
42.6293
40.5937
38.7376
37.0299
35.4502
33.9831
32.6122
31.3161
30.0704
28.8542
27.6563
26.4794
25.3379
24.2507
23.2351
22.3002
21.446
20.6636
19.9394
19.259
18.6117
17.9913
17.3924
16.8034
16.2074
15.5952
14.9812
14.4038
13.8997
13.4702
13.0657
12.607
12.0278
11.3113
10.5001
9.68693
8.99689
8.56549
8.49957
8.8171
9.39042
9.93721
10.0825
9.48053
7.92453
5.43087
2.19625
-1.34391
-4.84389
-7.52853
-9.66111
-9.23796
-10.8118
-0.425035
47.2984
44.8002
42.5548
40.5266
38.6767
36.9742
35.3991
33.9361
32.569
31.2767
30.035
28.8229
27.6294
26.4568
25.3189
24.2347
23.221
22.2871
21.4331
20.6504
19.9258
19.245
18.5975
17.9771
17.3785
16.7901
16.1954
15.5847
14.9718
14.3943
13.8892
13.4587
13.055
12.5997
12.0263
11.3163
10.5097
9.69663
9.00074
8.55797
8.47754
8.78211
9.35044
9.90621
10.0779
9.51848
8.01476
5.57168
2.37252
-1.15796
-4.67869
-7.41048
-9.6104
-9.2561
-10.9149
-0.562277
47.208
44.72
42.4831
40.4619
38.6179
36.9204
35.3496
33.8905
32.527
31.2383
30.0004
28.7925
27.6033
26.4349
25.3007
24.2193
23.2075
22.2745
21.4206
20.6376
19.9125
19.2313
18.5835
17.9631
17.3647
16.7771
16.1836
15.5744
14.9624
14.3848
13.8787
13.4473
13.0443
12.5924
12.0249
11.3213
10.5192
9.70615
9.00447
8.5504
8.45548
8.74721
9.31066
9.8754
10.0733
9.55635
8.10469
5.71198
2.54815
-0.972651
-4.51403
-7.29277
-9.55972
-9.27401
-11.0172
-0.698744
47.121
44.6428
42.4141
40.3996
38.5611
36.8684
35.3017
33.8462
32.4862
31.201
29.9668
28.7629
27.5779
26.4136
25.2831
24.2045
23.1945
22.2623
21.4085
20.6251
19.8995
19.2178
18.5697
17.9492
17.3511
16.7642
16.1719
15.5641
14.9532
14.3755
13.8683
13.4359
13.0337
12.5853
12.0235
11.3264
10.5286
9.71546
9.00809
8.54277
8.43348
8.71248
9.27109
9.8448
10.0688
9.5941
8.19428
5.85175
2.72313
-0.788007
-4.34991
-7.17538
-9.50908
-9.29167
-11.1186
-0.834406
47.0373
44.5686
42.3477
40.3395
38.5063
36.8181
35.2552
33.8032
32.4465
31.1646
29.9341
28.7341
27.5533
26.393
25.2661
24.1903
23.182
22.2506
21.3968
20.613
19.8867
19.2046
18.5562
17.9356
17.3376
16.7514
16.1604
15.554
14.944
14.3662
13.8579
13.4246
13.0231
12.5781
12.0221
11.3313
10.5377
9.72464
9.01163
8.53513
8.41156
8.67793
9.23175
9.81439
10.0644
9.63174
8.28353
5.99096
2.89743
-0.604048
-4.18636
-7.05834
-9.45848
-9.30907
-11.219
-0.969233
46.9569
44.4972
42.2837
40.2816
38.4534
36.7694
35.2102
33.7615
32.4079
31.1292
29.9021
28.706
27.5293
26.3731
25.2497
24.1766
23.17
22.2393
21.3854
20.6011
19.8743
19.1916
18.5428
17.9221
17.3243
16.7388
16.1489
15.544
14.935
14.357
13.8476
13.4133
13.0125
12.5709
12.0206
11.336
10.5467
9.73374
9.0151
8.52749
8.38973
8.64354
9.19262
9.78415
10.0601
9.66926
8.37243
6.12961
3.07103
-0.420802
-4.0234
-6.94166
-9.40791
-9.32618
-11.3184
-1.10319
46.8794
44.4285
42.2221
40.2257
38.4023
36.7223
35.1666
33.7209
32.3703
31.0947
29.871
28.6787
27.506
26.3538
25.2339
24.1634
23.1584
22.2284
21.3744
20.5896
19.8621
19.1788
18.5297
17.9088
17.3112
16.7262
16.1376
15.5341
14.926
14.348
13.8374
13.402
13.0018
12.5636
12.019
11.3406
10.5557
9.74274
9.01849
8.51983
8.36797
8.60932
9.15369
9.75411
10.0558
9.70665
8.46096
6.26767
3.2439
-0.238295
-3.86104
-6.82534
-9.35736
-9.343
-11.4167
-1.23626
46.8049
44.3624
42.1628
40.1718
38.3529
36.6766
35.1242
33.6815
32.3337
31.061
29.8406
28.6521
27.4834
26.3351
25.2186
24.1508
23.1474
22.218
21.3638
20.5784
19.8501
19.1663
18.5167
17.8956
17.2981
16.7138
16.1263
15.5243
14.9172
14.339
13.8272
13.3906
12.9911
12.5563
12.0174
11.3451
10.5645
9.7516
9.02179
8.51216
8.3463
8.57527
9.11499
9.72427
10.0516
9.74391
8.54909
6.4051
3.41601
-0.0565525
-3.69931
-6.70938
-9.30683
-9.35951
-11.514
-1.36841
46.7332
44.2988
42.1056
40.1199
38.3051
36.6325
35.0831
33.6431
32.298
31.0282
29.811
28.6261
27.4613
26.3169
25.2038
24.1386
23.1367
22.2079
21.3535
20.5674
19.8384
19.1539
18.5039
17.8826
17.2852
16.7015
16.1152
15.5146
14.9084
14.33
13.8169
13.3792
12.9804
12.549
12.0157
11.3496
10.5732
9.76033
9.025
8.50447
8.3247
8.54139
9.07653
9.69464
10.0475
9.78102
8.63682
6.54189
3.58734
0.124401
-3.53822
-6.59381
-9.25632
-9.37569
-11.6101
-1.49959
46.6643
44.2376
42.0506
40.0698
38.259
36.5897
35.0432
33.6059
32.2632
30.9961
29.7821
28.6007
27.4398
26.2993
25.1896
24.1269
23.1265
22.1981
21.3435
20.5568
19.827
19.1418
18.4913
17.8697
17.2724
16.6893
16.1042
15.505
14.8997
14.3209
13.8065
13.3679
12.9697
12.5416
12.0139
11.3539
10.5817
9.76893
9.02812
8.49676
8.3032
8.50771
9.03831
9.66521
10.0435
9.81798
8.72412
6.678
3.75785
0.30454
-3.37779
-6.47862
-9.20581
-9.39152
-11.705
-1.62977
46.5979
44.1787
41.9977
40.0214
38.2144
36.5482
35.0044
33.5696
32.2294
30.9648
29.7538
28.576
27.4189
26.2822
25.1758
24.1156
23.1167
22.1888
21.3339
20.5464
19.8157
19.1298
18.4788
17.8569
17.2597
16.6772
16.0932
15.4954
14.8909
14.3118
13.7962
13.3565
12.959
12.5342
12.012
11.3581
10.5901
9.7774
9.03115
8.48905
8.28179
8.47422
9.00033
9.63599
10.0395
9.85477
8.81097
6.81342
3.92751
0.483835
-3.21804
-6.36383
-9.15531
-9.40698
-11.7986
-1.75892
46.5341
44.1221
41.9467
39.9748
38.1713
36.508
34.9668
33.5342
32.1963
30.9343
29.7262
28.5518
27.3986
26.2656
25.1626
24.1048
23.1072
22.1798
21.3245
20.5362
19.8047
19.118
18.4664
17.8443
17.2471
16.6652
16.0823
15.4857
14.882
14.3027
13.7859
13.3451
12.9482
12.5267
12.01
11.3622
10.5984
9.78573
9.03408
8.48133
8.26048
8.44093
8.96261
9.60699
10.0356
9.89138
8.89735
6.94811
4.0963
0.662262
-3.05899
-6.24943
-9.1048
-9.42204
-11.891
-1.88701
46.4726
44.0676
41.8975
39.9298
38.1295
36.469
34.9302
33.4998
32.164
30.9044
29.6992
28.5282
27.3788
26.2495
25.1498
24.0943
23.0982
22.1711
21.3154
20.5263
19.7939
19.1063
18.4542
17.8318
17.2347
16.6532
16.0713
15.4759
14.8731
14.2934
13.7754
13.3336
12.9374
12.5191
12.008
11.3661
10.6065
9.79391
9.03692
8.47359
8.23926
8.40785
8.92514
9.57821
10.0318
9.9278
8.98324
7.08205
4.26419
0.839793
-2.90066
-6.13545
-9.05429
-9.43669
-11.982
-2.014
46.4135
44.0152
41.8502
39.8863
38.0891
36.4312
34.8946
33.4663
32.1326
30.8752
29.6728
28.5052
27.3594
26.2339
25.1374
24.0843
23.0895
22.1627
21.3065
20.5166
19.7832
19.0949
18.4421
17.8194
17.2222
16.6411
16.0602
15.4661
14.8641
14.2841
13.7649
13.322
12.9265
12.5115
12.0058
11.3699
10.6144
9.80195
9.03966
8.46585
8.21815
8.37497
8.88794
9.54965
10.028
9.96401
9.06862
7.21521
4.43114
1.0164
-2.74307
-6.0219
-9.00376
-9.45091
-12.0717
-2.13984
46.3566
43.9647
41.8046
39.8443
38.0501
36.3946
34.86
33.4336
32.1018
30.8467
29.647
28.4826
27.3406
26.2188
25.1254
24.0747
23.0811
22.1546
21.298
20.5071
19.7727
19.0835
18.4302
17.807
17.2096
16.6289
16.0491
15.4562
14.8549
14.2747
13.7543
13.3104
12.9155
12.5038
12.0035
11.3736
10.6222
9.80984
9.0423
8.45809
8.19715
8.34231
8.85102
9.52132
10.0243
10
9.15347
7.34756
4.59713
1.19206
-2.58625
-5.90877
-8.9532
-9.46467
-12.1598
-2.2645
46.3018
43.9162
41.7606
39.8038
38.0122
36.359
34.8264
33.4017
32.0718
30.8188
29.6217
28.4606
27.3222
26.204
25.1139
24.0655
23.0731
22.1468
21.2896
20.4978
19.7624
19.0723
18.4183
17.7945
17.197
16.6167
16.0378
15.4462
14.8457
14.2652
13.7436
13.2987
12.9045
12.496
12.0011
11.3771
10.6298
9.81757
9.04483
8.45032
8.17625
8.30988
8.81437
9.49322
10.0206
10.0358
9.23777
7.47908
4.76212
1.36672
-2.43022
-5.79608
-8.90261
-9.47794
-12.2465
-2.38794
46.2491
43.8695
41.7183
39.7647
37.9756
36.3244
34.7936
33.3706
32.0424
30.7915
29.597
28.4391
27.3043
26.1897
25.1027
24.0566
23.0654
22.1392
21.2815
20.4887
19.7522
19.0612
18.4062
17.7819
17.1843
16.6045
16.0265
15.4361
14.8363
14.2556
13.7328
13.287
12.8935
12.4881
11.9986
11.3804
10.6373
9.82514
9.04725
8.44254
8.15547
8.27768
8.77802
9.46536
10.017
10.0713
9.32149
7.60972
4.92607
1.54036
-2.275
-5.68384
-8.85198
-9.4907
-12.3316
-2.51011
46.1984
43.8245
41.6775
39.7268
37.9401
36.2908
34.7618
33.3403
32.0137
30.7647
29.5728
28.418
27.2868
26.1758
25.0919
24.048
23.058
22.1319
21.2736
20.4798
19.7421
19.0499
18.3941
17.7693
17.1715
16.592
16.015
15.4259
14.8269
14.2458
13.7219
13.2752
12.8823
12.4802
11.996
11.3837
10.6445
9.83253
9.04956
8.43474
8.1348
8.24571
8.74196
9.43774
10.0135
10.1066
9.40461
7.73946
5.08895
1.71295
-2.12061
-5.57206
-8.80129
-9.50292
-12.415
-2.63098
46.1496
43.7812
41.6381
39.6903
37.9057
36.2582
34.7307
33.3107
31.9856
30.7385
29.5491
28.3974
27.2697
26.1623
25.0815
24.0397
23.0508
22.1249
21.2659
20.4709
19.7319
19.0385
18.3819
17.7566
17.1586
16.5795
16.0035
15.4155
14.8172
14.236
13.7109
13.2633
12.8711
12.4722
11.9933
11.3867
10.6516
9.83976
9.05175
8.42693
8.11426
8.21399
8.7062
9.41036
10.0099
10.1416
9.48711
7.86827
5.25072
1.88445
-1.96709
-5.46076
-8.75055
-9.51457
-12.4967
-2.75048
46.1026
43.7396
41.6002
39.655
37.8723
36.2265
34.7004
33.2818
31.9582
30.7129
29.5258
28.3772
27.253
26.1492
25.0714
24.0318
23.0439
22.1181
21.2583
20.462
19.7215
19.027
18.3696
17.7437
17.1456
16.5668
15.9917
15.405
14.8075
14.226
13.6999
13.2513
12.8599
12.4641
11.9904
11.3896
10.6585
9.84679
9.05381
8.4191
8.09384
8.18253
8.67076
9.38322
10.0065
10.1763
9.56896
7.99611
5.41135
2.05482
-1.81445
-5.34993
-8.69974
-9.52563
-12.5766
-2.86859
46.0574
43.6995
41.5636
39.6208
37.84
36.1957
34.671
33.2536
31.9313
30.6877
29.503
28.3574
27.2367
26.1363
25.0616
24.0241
23.0373
22.1114
21.2506
20.4528
19.7111
19.0154
18.3571
17.7307
17.1324
16.554
15.9799
15.3943
14.7976
14.2159
13.6887
13.2393
12.8485
12.4559
11.9874
11.3923
10.6652
9.85364
9.05574
8.41126
8.07355
8.15133
8.63563
9.35634
10.003
10.2108
9.65013
8.12294
5.57078
2.22403
-1.66273
-5.23959
-8.64884
-9.53606
-12.6547
-2.98525
46.0139
43.6609
41.5283
39.5878
37.8086
36.1657
34.6422
33.2259
31.9049
30.6631
29.4806
28.338
27.2208
26.1239
25.0521
24.0167
23.0308
22.1046
21.2426
20.4436
19.7004
19.0036
18.3444
17.7175
17.1191
16.5411
15.9679
15.3835
14.7876
14.2056
13.6774
13.2271
12.8371
12.4476
11.9843
11.3948
10.6717
9.86028
9.05753
8.4034
8.05339
8.12039
8.60084
9.32972
9.99961
10.2449
9.7306
8.24873
5.72898
2.39203
-1.51196
-5.12976
-8.59785
-9.54582
-12.7309
-3.10042
45.972
43.6237
41.4943
39.5558
37.7782
36.1366
34.6142
33.1989
31.8791
30.6389
29.4587
28.319
27.2051
26.1117