/*--------------------------------*- C++ -*----------------------------------*\
  =========                 |
  \\      /  F ield         | OpenFOAM: The Open Source CFD Toolbox
   \\    /   O peration     | Website:  https://openfoam.org
    \\  /    A nd           | Version:  7
     \\/     M anipulation  |
\*---------------------------------------------------------------------------*/
FoamFile
{
    version     2.0;
    format      ascii;
    class       surfaceScalarField;
    location    "1000";
    object      phi;
}
// * * * * * * * * * * * * * * * * * * * * * * * * * * * * * * * * * * * * * //

dimensions      [0 3 -1 0 0 0 0];

internalField   nonuniform List<scalar> 
45693
(
-0.0016208
0.0651936
-0.00162038
0.0649394
-0.0015553
0.0651886
-0.00162725
0.0634069
-0.00155473
0.0649388
-0.00149255
0.0651838
0.0613418
-0.00156125
0.0634134
-0.00149183
0.0649381
-0.0014322
0.065179
-0.00156817
0.0613488
-0.00149803
0.0634196
-0.00143135
0.0649372
-0.00137435
0.0651743
-0.00157597
0.0590274
-0.00150465
0.0613554
-0.00143723
0.0634255
-0.00137337
0.0649362
-0.0013189
0.0651697
-0.00158278
0.0564472
-0.00151217
0.0590349
-0.00144356
0.0613617
-0.00137895
0.0634311
-0.0013178
0.0649351
-0.00126565
0.0651651
-0.00158754
0.053835
-0.0015188
0.0564538
-0.00145081
0.0590421
-0.001385
0.0613678
-0.00132309
0.0634364
-0.00126444
0.0649339
-0.00121454
0.0651607
-0.00158943
0.051309
-0.0015235
0.0538397
-0.00145726
0.0564602
-0.00139199
0.0590491
-0.00132886
0.0613735
-0.00126944
0.0634414
-0.00121324
0.0649326
-0.00116549
0.0651564
-0.00158842
0.0490085
-0.00152546
0.0513109
-0.0014619
0.0538443
-0.00139826
0.0564665
-0.00133559
0.0590558
-0.00127495
0.0613791
-0.00121796
0.0634461
-0.00116409
0.0649312
-0.00111848
0.0651521
0.0470426
-0.0015246
0.0490076
-0.00146391
0.0513129
-0.00140283
0.0538489
-0.00134169
0.0564726
-0.00128143
0.0590623
-0.00122321
0.0613843
-0.00116855
0.0634506
-0.00111699
0.0649298
-0.00107336
0.0651479
-0.00152155
0.0470396
-0.00146319
0.0490069
-0.00140489
0.051315
-0.00134619
0.0538534
-0.00128735
0.0564785
-0.00122945
0.0590686
-0.00117355
0.0613893
-0.0011212
0.0634548
-0.0010718
0.0649282
-0.00103005
0.0651438
-0.00151742
0.0453925
-0.00146034
0.0470367
-0.00140431
0.0490063
-0.00134829
0.0513171
-0.00129178
0.0538578
-0.0012352
0.0564843
-0.00117954
0.0590745
-0.00112596
0.0613941
-0.00107576
0.0634587
-0.00102841
0.0649266
-0.000988525
0.0651398
-0.00151336
0.0440173
-0.00145639
0.0453886
-0.00140164
0.047034
-0.00134785
0.0490059
-0.00129392
0.0513192
-0.00123955
0.0538621
-0.00118512
0.0564899
-0.00113172
0.0590803
-0.00108029
0.0613986
-0.00103214
0.0634624
-0.000986823
0.0649248
-0.000948648
0.0651359
-0.00151022
0.0428145
-0.00145248
0.0440134
-0.00139787
0.0453848
-0.00134535
0.0470315
-0.0012936
0.0490056
-0.00124172
0.0513214
-0.00118939
0.0538664
-0.00113713
0.0564953
-0.00108582
0.0590858
-0.00103644
0.0614029
-0.000990325
0.0634659
-0.000946888
0.0649231
-0.000910366
0.0651321
0.041672
-0.00144943
0.0428115
-0.0013941
0.0440096
-0.00134176
0.0453812
-0.00129127
0.0470292
-0.00124152
0.0490054
-0.00119159
0.0513236
-0.00114132
0.0538706
-0.00109106
0.0565005
-0.00104175
0.0590911
-0.000994412
0.061407
-0.000950174
0.0634692
-0.000908553
0.0649213
-0.000873678
0.0651283
-0.00144762
0.0416702
-0.00139114
0.0428085
-0.00133813
0.044006
-0.00128786
0.0453778
-0.00123936
0.0470271
-0.0011915
0.0490053
-0.00114354
0.0513258
-0.00109517
0.0538747
-0.00104682
0.0565056
-0.000999499
0.0590962
-0.00095405
0.0614109
-0.000911632
0.0634723
-0.000871819
0.0649194
-0.000838484
0.0651246
-0.00144696
0.0405353
-0.00138936
0.0416684
-0.00133526
0.0428056
-0.00128436
0.0440025
-0.00123611
0.0453746
-0.0011895
0.0470251
-0.00114355
0.0490053
-0.00109741
0.051328
-0.00105085
0.0538787
-0.00100441
0.0565105
-0.000958926
0.0591011
-0.000915306
0.0614145
-0.000874699
0.0634752
-0.000836584
0.0649175
-0.000804685
0.0651211
0.039339
-0.00138871
0.0405347
-0.00133351
0.0416666
-0.00128157
0.0428028
-0.00123275
0.0439991
-0.00118641
0.0453715
-0.0011417
0.0470232
-0.00109752
0.0490054
-0.0010531
0.0513303
-0.00100836
0.0538827
-0.000963679
0.0565153
-0.000919976
0.0591058
-0.000878178
0.061418
-0.000839275
0.0634779
-0.000802748
0.0649156
-0.000772229
0.0651176
-0.00138884
0.0393391
-0.00133285
0.040534
-0.00127986
0.0416649
-0.00123004
0.0428001
-0.00118318
0.0439959
-0.00113877
0.0453686
-0.00109582
0.0470215
-0.00105331
0.0490056
-0.00101061
0.0513325
-0.000967539
0.0538865
-0.00092457
0.0565199
-0.000882648
0.0591102
-0.000842566
0.0614213
-0.000805258
0.0634804
-0.000770262
0.0649136
-0.000741165
0.0651141
-0.00138932
0.0381062
-0.00133297
0.0393392
-0.0012792
0.0405333
-0.00122836
0.0416632
-0.00118055
0.0427975
-0.00113567
0.0439928
-0.00109304
0.0453658
-0.00105174
0.0470199
-0.00101091
0.0490059
-0.000969799
0.0513348
-0.000928345
0.0538903
-0.000887087
0.0565243
-0.000846841
0.0591145
-0.000808368
0.0614244
-0.000772598
0.0634827
-0.000739172
0.0649116
-0.000711296
0.0651108
-0.00138978
0.0368457
-0.00133343
0.0381067
-0.00127929
0.0393393
-0.0012277
0.0405327
-0.00117891
0.0416616
-0.00113312
0.042795
-0.00109006
0.0439898
-0.00104911
0.0453631
-0.00100948
0.0470185
-0.000970174
0.0490063
-0.000930604
0.0513371
-0.000890774
0.053894
-0.000851127
0.0565286
-0.000812455
0.0591186
-0.000775534
0.0614274
-0.000741344
0.0634849
-0.000709281
0.0649096
-0.000682669
0.0651075
-0.00138997
0.0355936
-0.00133388
0.0368462
-0.00127974
0.0381072
-0.00122777
0.0393394
-0.00117825
0.040532
-0.00113151
0.04166
-0.00108759
0.0427925
-0.00104625
0.0439869
-0.00100698
0.0453606
-0.00096887
0.0470172
-0.000931054
0.0490067
-0.000893029
0.0513393
-0.000854727
0.0538976
-0.00081659
0.0565327
-0.000779438
0.0591225
-0.000744113
0.0614301
-0.000711295
0.0634869
-0.000680638
0.0649076
-0.000655136
0.0651044
0.034373
-0.00133407
0.0355938
-0.00128018
0.0368466
-0.0012282
0.0381076
-0.0011783
0.0393394
-0.00113085
0.0405314
-0.00108601
0.0416584
-0.00104386
0.0427901
-0.00100424
0.0439842
-0.000966513
0.0453583
-0.000929873
0.047016
-0.000893549
0.0490072
-0.000856974
0.0513416
-0.000820102
0.0539011
-0.000783426
0.0565367
-0.00074784
0.0591262
-0.000713904
0.0614327
-0.000682501
0.0634888
-0.000653092
0.0649055
-0.000628844
0.0651013
-0.00133393
0.0343728
-0.00128038
0.035594
-0.00122863
0.036847
-0.00117871
0.038108
-0.00113089
0.0393395
-0.00108535
0.0405307
-0.00104231
0.0416569
-0.00100192
0.0427878
-0.000963882
0.0439816
-0.000927647
0.0453561
-0.000892484
0.047015
-0.000857559
0.0490078
-0.000822338
0.0513438
-0.000786849
0.0539045
-0.000751683
0.0565406
-0.000717459
0.0591298
-0.000684956
0.0614352
-0.000654812
0.0634905
-0.000626791
0.0649035
-0.000603447
0.0650982
-0.00133349
0.0332024
-0.00128025
0.0343727
-0.00122883
0.0355942
-0.00117913
0.0368474
-0.00113127
0.0381084
-0.00108537
0.0393395
-0.00104165
0.04053
-0.00100041
0.0416554
-0.000961642
0.0427856
-0.000925128
0.043979
-0.000890386
0.045354
-0.000856605
0.047014
-0.000822982
0.0490085
-0.000789071
0.051346
-0.000755017
0.0539079
-0.00072116
0.0565443
-0.000688345
0.0591332
-0.000657119
0.0614375
-0.000628375
0.0634921
-0.000601389
0.0649014
-0.00057924
0.0650953
0.0320918
-0.00127984
0.033202
-0.00122872
0.0343726
-0.00117934
0.0355944
-0.00113168
0.0368479
-0.00108574
0.0381087
-0.00104165
0.0393395
-0.000999752
0.0405294
-0.000960165
0.0416539
-0.00092296
0.0427834
-0.000887975
0.0439766
-0.00085463
0.045352
-0.000822134
0.0470132
-0.000789769
0.0490092
-0.000757222
0.0513482
-0.000724406
0.0539111
-0.000691908
0.0565478
-0.000660347
0.0591364
-0.000630541
0.0614397
-0.000602844
0.0634935
-0.000577181
0.0648994
-0.000555878
0.0650924
-0.00127927
0.0320912
-0.00122833
0.0332016
-0.00117924
0.0343725
-0.00113189
0.0355946
-0.00108613
0.0368483
-0.001042
0.0381091
-0.000999739
0.0393395
-0.000959504
0.0405287
-0.000921516
0.0416524
-0.000885879
0.0427813
-0.000852323
0.0439743
-0.000820277
0.0453501
-0.000789021
0.0470124
-0.000757971
0.0490099
-0.000726591
0.0513504
-0.000695065
0.0539143
-0.000663774
0.0565512
-0.000633614
0.0591395
-0.000604874
0.0614417
-0.000578513
0.0634949
-0.00055382
0.0648973
-0.000533557
0.0650896
-0.00127869
0.0310332
-0.00122779
0.0320907
-0.00117888
0.0332013
-0.00113181
0.0343724
-0.00108635
0.0355948
-0.00104239
0.0368486
-0.00100007
0.0381094
-0.000959475
0.0393394
-0.000920857
0.0405281
-0.000884467
0.041651
-0.000850297
0.0427793
-0.000818073
0.0439721
-0.000787279
0.0453484
-0.000757318
0.0470118
-0.000727384
0.0490107
-0.000697227
0.0513526
-0.000666842
0.0539173
-0.000636909
0.0565545
-0.000607796
0.0591424
-0.000580413
0.0614436
-0.000555035
0.0634961
-0.000531504
0.0648952
-0.000512128
0.0650869
0.0300199
-0.00122723
0.0310327
-0.00117836
0.0320901
-0.00113147
0.0332009
-0.00108628
0.0343724
-0.0010426
0.035595
-0.00100044
0.036849
-0.000959786
0.0381097
-0.000920813
0.0393394
-0.00088381
0.0405274
-0.000848918
0.0416496
-0.000816116
0.0427773
-0.000785173
0.04397
-0.000755685
0.0453468
-0.000726822
0.0470112
-0.000698062
0.0490116
-0.00066898
0.0513547
-0.000639889
0.0539203
-0.000610961
0.0565577
-0.000583191
0.0591452
-0.000556812
0.0614454
-0.000532608
0.0634972
-0.000510083
0.0648932
-0.000491494
0.0650843
-0.00122677
0.0300194
-0.00117782
0.0310321
-0.00113097
0.0320896
-0.00108596
0.0332006
-0.00104255
0.0343723
-0.00100066
0.0355952
-0.000960151
0.0368494
-0.000921105
0.03811
-0.000883751
0.0393393
-0.000848263
0.0405267
-0.000814769
0.0416483
-0.000783284
0.0427754
-0.000753676
0.043968
-0.000725295
0.0453452
-0.000697585
0.0470107
-0.000669851
0.0490124
-0.000642
0.0513568
-0.000613854
0.0539232
-0.00058623
0.0565607
-0.000559449
0.0591478
-0.000534267
0.061447
-0.000511083
0.0634982
-0.000489458
0.0648912
-0.00047175
0.0650817
-0.00122645
0.0290371
-0.00117738
0.030019
-0.00113046
0.0310316
-0.00108549
0.0320892
-0.00104225
0.0332003
-0.00100062
0.0343723
-0.000960369
0.0355954
-0.000921459
0.0368497
-0.000884026
0.0381103
-0.000848191
0.0393393
-0.000814117
0.0405261
-0.000781969
0.041647
-0.000751852
0.0427736
-0.000723379
0.0439661
-0.000696159
0.0453438
-0.000669455
0.0470103
-0.000642904
0.0490133
-0.000615935
0.0513589
-0.000589036
0.053926
-0.000562365
0.0565637
-0.00053677
0.0591503
-0.000512629
0.0614486
-0.000490359
0.0634991
-0.000469728
0.0648891
-0.0004528
0.0650792
0.0280803
-0.00117707
0.0290368
-0.00113003
0.0300185
-0.00108499
0.0310311
-0.0010418
0.0320887
-0.00100034
0.0332
-0.000960343
0.0343722
-0.000921677
0.0355957
-0.000884369
0.0368501
-0.000848448
0.0381105
-0.000814031
0.0393392
-0.000781321
0.0405254
-0.000750569
0.0416457
-0.000721621
0.0427718
-0.000694334
0.0439643
-0.000668126
0.0453425
-0.000642584
0.04701
-0.000616867
0.0490143
-0.000591086
0.051361
-0.000565085
0.0539287
-0.000539565
0.0565665
-0.000515001
0.0591527
-0.000491797
0.06145
-0.000470535
0.0634999
-0.000450793
0.0648871
-0.000434592
0.0650768
-0.00117685
0.02808
-0.00112973
0.0290365
-0.00108458
0.0300181
-0.00104132
0.0310306
-0.000999913
0.0320883
-0.000960082
0.0331998
-0.000921663
0.0343722
-0.000884586
0.0355959
-0.00084878
0.0368504
-0.000814272
0.0381108
-0.000781223
0.0393391
-0.000749926
0.0405248
-0.000720369
0.0416445
-0.000692639
0.0427701
-0.00066639
0.0439625
-0.000641349
0.0453412
-0.000616619
0.0470098
-0.000592044
0.0490152
-0.000567102
0.051363
-0.0005422
0.0539314
-0.000517681
0.0565691
-0.000494045
0.0591549
-0.00047187
0.0614513
-0.000451511
0.0635006
-0.000432602
0.0648851
-0.000417177
0.0650744
-0.00117664
0.0271413
-0.00112952
0.0280798
-0.00108429
0.0290362
-0.00104093
0.0300177
-0.000999454
0.0310302
-0.000959672
0.0320879
-0.000921421
0.0331995
-0.000884582
0.0343722
-0.000848996
0.0355961
-0.000814592
0.0368507
-0.000781446
0.038111
-0.000749815
0.039339
-0.00071973
0.0405242
-0.000691419
0.0416432
-0.000664757
0.0427685
-0.000639698
0.0439609
-0.000615474
0.0453401
-0.000591863
0.0470096
-0.000568081
0.0490162
-0.000544183
0.051365
-0.000520231
0.0539339
-0.00049661
0.0565717
-0.000473998
0.0591571
-0.000452749
0.0614526
-0.000433238
0.0635013
-0.000415206
0.0648832
-0.000400355
0.0650721
0.0262289
-0.00112933
0.0271411
-0.00108409
0.0280796
-0.00104065
0.0290359
-0.00099907
0.0300173
-0.000959232
0.0310297
-0.000921031
0.0320875
-0.000884358
0.0331993
-0.000849002
0.0343722
-0.000814807
0.0355963
-0.000781755
0.036851
-0.000750023
0.0381112
-0.000719608
0.0393389
-0.000690785
0.0405235
-0.000663568
0.041642
-0.000638125
0.0427669
-0.000613906
0.0439593
-0.000590804
0.045339
-0.000567964
0.0470095
-0.000545181
0.0490172
-0.000522178
0.0513669
-0.000499077
0.0539364
-0.000476452
0.0565742
-0.00045476
0.0591591
-0.000434382
0.0614537
-0.000415762
0.0635018
-0.000398405
0.0648812
-0.000384325
0.0650699
-0.0011291
0.0262287
-0.0010839
0.0271409
-0.00104045
0.0280794
-0.000998798
0.0290356
-0.000958861
0.030017
-0.000920608
0.0310293
-0.000883988
0.0320871
-0.000848795
0.0331991
-0.000814823
0.0343722
-0.000781969
0.0355965
-0.00075032
0.0368513
-0.0007198
0.0381114
-0.000690652
0.0393387
-0.00066294
0.0405229
-0.000636967
0.0416409
-0.000612393
0.0427654
-0.000589316
0.0439578
-0.000566987
0.0453381
-0.000545123
0.0470094
-0.000523191
0.0490182
-0.000500986
0.0513688
-0.000478837
0.0539388
-0.000457108
0.0565765
-0.000436282
0.059161
-0.000416818
0.0614548
-0.000398888
0.0635023
-0.000382398
0.0648793
-0.000368888
0.0650677
-0.00112884
0.0253416
-0.00108369
0.0262285
-0.00104027
0.0271407
-0.00099861
0.0280792
-0.000958598
0.0290354
-0.00092025
0.0300166
-0.000883582
0.0310289
-0.000848444
0.0320868
-0.000814631
0.0331989
-0.000781993
0.0343723
-0.000750532
0.0355967
-0.000720086
0.0368516
-0.000690829
0.0381116
-0.000662797
0.0393386
-0.000636345
0.0405223
-0.000611266
0.0416398
-0.00058786
0.042764
-0.000565576
0.0439564
-0.000544224
0.0453372
-0.000523189
0.0470094
-0.000502012
0.0490192
-0.000480708
0.0513707
-0.000459412
0.0539411
-0.000438526
0.0565787
-0.000418612
0.0591628
-0.00039986
0.0614558
-0.000382811
0.0635027
-0.000366986
0.0648774
-0.000354104
0.0650657
-0.00112855
0.0244848
-0.00108343
0.0253413
-0.00104007
0.0262283
-0.000998444
0.0271406
-0.000958418
0.0280791
-0.000919996
0.0290351
-0.000883236
0.0300163
-0.000848055
0.0310285
-0.000814298
0.0320864
-0.000781817
0.0331987
-0.000750564
0.0343723
-0.000720296
0.035597
-0.000691104
0.0368519
-0.000662958
0.0381117
-0.000636192
0.0393384
-0.00061065
0.0405217
-0.000586764
0.0416387
-0.000564178
0.0427626
-0.000542888
0.0439551
-0.000522365
0.0453363
-0.000502061
0.0470094
-0.000481743
0.0490203
-0.000461243
0.0513725
-0.000440749
0.0539433
-0.000420755
0.0565809
-0.000401551
0.0591645
-0.000383703
0.0614567
-0.000367333
0.0635031
-0.000352227
0.0648755
-0.000339878
0.0650636
-0.00112829
0.023657
-0.00108316
0.0244846
-0.00103983
0.0253411
-0.000998249
0.0262281
-0.000958259
0.0271404
-0.000919822
0.0280789
-0.000882991
0.0290349
-0.000847721
0.0300159
-0.000813925
0.0310282
-0.000781502
0.0320861
-0.000750402
0.0331986
-0.000720335
0.0343723
-0.000691311
0.0355972
-0.000663222
0.0368522
-0.00063634
0.0381119
-0.000610489
0.0393383
-0.000586155
0.040521
-0.000563112
0.0416376
-0.000541545
0.0427612
-0.000521101
0.0439538
-0.000501309
0.0453356
-0.000481841
0.0470095
-0.000462285
0.0490213
-0.000442541
0.0513743
-0.0004229
0.0539455
-0.000403595
0.0565829
-0.000385296
0.059166
-0.000368149
0.0614575
-0.000352513
0.0635033
-0.000338029
0.0648737
-0.000326246
0.0650617
-0.00112805
0.0228538
-0.0010829
0.0236567
-0.00103957
0.0244843
-0.000998016
0.0253409
-0.000958073
0.0262279
-0.00091967
0.0271403
-0.000882823
0.0280787
-0.000847483
0.0290346
-0.000813603
0.0300156
-0.000781144
0.0310278
-0.000750104
0.0320858
-0.000720187
0.0331984
-0.000691356
0.0343724
-0.000663427
0.0355974
-0.000636592
0.0368524
-0.000610622
0.038112
-0.000585985
0.0393381
-0.00056251
0.0405204
-0.00054051
0.0416366
-0.000519813
0.0427599
-0.000500115
0.0439526
-0.000481157
0.0453349
-0.000462428
0.0470097
-0.000443587
0.0490224
-0.000424651
0.0513761
-0.000405663
0.0539475
-0.000387246
0.0565849
-0.000369648
0.0591675
-0.000353258
0.0614582
-0.000338257
0.0635036
-0.000324424
0.0648718
-0.000313161
0.0650598
-0.00112784
0.0220749
-0.00108267
0.0228536
-0.00103932
0.0236565
-0.000997766
0.0244841
-0.00095785
0.0253406
-0.000919494
0.0262277
-0.000882678
0.0271401
-0.000847321
0.0280786
-0.000813373
0.0290344
-0.000780833
0.0300153
-0.000749762
0.0310275
-0.000719905
0.0320855
-0.000691222
0.0331983
-0.000663478
0.0343724
-0.000636794
0.0355976
-0.000610864
0.0368527
-0.000586105
0.0381121
-0.000562333
0.0393379
-0.000539915
0.0405199
-0.000518807
0.0416356
-0.00049888
0.0427587
-0.000480031
0.0439515
-0.000461808
0.0453343
-0.000443771
0.0470099
-0.000425699
0.0490234
-0.000407372
0.0513778
-0.000389238
0.0539495
-0.000371506
0.0565867
-0.000354667
0.059169
-0.000338934
0.0614589
-0.000324599
0.0635037
-0.000311369
0.0648701
-0.000300605
0.0650579
0.0213172
-0.00108248
0.0220747
-0.0010391
0.0228534
-0.000997525
0.0236562
-0.00095761
0.0244838
-0.00091928
0.0253404
-0.00088251
0.0262276
-0.000847183
0.02714
-0.000813217
0.0280784
-0.000780611
0.0290342
-0.000749462
0.030015
-0.000719578
0.0310271
-0.000690956
0.0320853
-0.000663357
0.0331982
-0.00063685
0.0343725
-0.000611061
0.0355978
-0.000586336
0.0368529
-0.000562439
0.0381123
-0.000539731
0.0393377
-0.00051822
0.0405193
-0.000497904
0.0416346
-0.000478847
0.0427575
-0.000460747
0.0439504
-0.000443213
0.0453337
-0.000425921
0.0470101
-0.00040842
0.0490245
-0.000390905
0.0513794
-0.000373425
0.0539514
-0.000356436
0.0565885
-0.000340256
0.0591703
-0.000325211
0.0614595
-0.000311494
0.0635039
-0.000298843
0.0648683
-0.000288553
0.0650561
-0.00108231
0.021317
-0.00103891
0.0220745
-0.000997311
0.0228531
-0.000957378
0.023656
-0.000919049
0.0244836
-0.000882306
0.0253402
-0.000847023
0.0262274
-0.000813085
0.0271398
-0.000780461
0.0280783
-0.000749246
0.029034
-0.000719289
0.0300147
-0.000690643
0.0310268
-0.000663106
0.032085
-0.000636741
0.033198
-0.000611123
0.0343726
-0.00058653
0.035598
-0.00056266
0.0368531
-0.000539825
0.0381123
-0.000518029
0.0393375
-0.000497325
0.0405187
-0.0004779
0.0416336
-0.000459614
0.0427564
-0.000442215
0.0439494
-0.000425422
0.0453332
-0.000408677
0.0470104
-0.000391951
0.0490255
-0.000375049
0.0513811
-0.000358282
0.0539533
-0.00034194
0.0565902
-0.000326451
0.0591715
-0.000312045
0.0614601
-0.000298921
0.0635039
-0.000286821
0.0648666
-0.000276989
0.0650544
-0.00108218
0.02058
-0.00103875
0.0213168
-0.000997127
0.0220744
-0.00095717
0.0228529
-0.000918825
0.0236558
-0.000882084
0.0244834
-0.000846828
0.02534
-0.000812933
0.0262273
-0.000780335
0.0271397
-0.000749101
0.0280781
-0.00071908
0.0290338
-0.000690364
0.0300144
-0.000662806
0.0310265
-0.000636505
0.0320848
-0.000611025
0.0331979
-0.000586597
0.0343726
-0.00056285
0.0355981
-0.000540035
0.0368533
-0.000518111
0.0381124
-0.000497129
0.0393373
-0.00047733
0.0405181
-0.000458696
0.0416327
-0.000441131
0.0427553
-0.000424485
0.0439485
-0.000408234
0.0453328
-0.00039224
0.0470106
-0.000376091
0.0490265
-0.000359864
0.0513826
-0.000343715
0.0539551
-0.000328052
0.0565918
-0.000313206
0.0591727
-0.000299415
0.0614605
-0.000286856
0.063504
-0.000275289
0.0648649
-0.000265894
0.0650527
0.0198646
-0.00103862
0.0205799
-0.000996974
0.0213167
-0.000956993
0.0220742
-0.000918625
0.0228527
-0.000881868
0.0236555
-0.000846615
0.0244832
-0.000812747
0.0253398
-0.00078019
0.0262271
-0.000748981
0.0271396
-0.00071894
0.028078
-0.000690162
0.0290336
-0.000662537
0.0300142
-0.000636218
0.0310262
-0.000610803
0.0320846
-0.000586509
0.0331979
-0.00056292
0.0343727
-0.000540221
0.0355983
-0.000518311
0.0368535
-0.000497199
0.0381125
-0.000477128
0.0393371
-0.000458135
0.0405176
-0.000440241
0.0416318
-0.000423447
0.0427543
-0.000407354
0.0439476
-0.00039185
0.0453324
-0.000376409
0.047011
-0.000360899
0.0490276
-0.000345254
0.0513842
-0.000329757
0.0539568
-0.000314727
0.0565933
-0.000300501
0.0591738
-0.000287296
0.061461
-0.000275283
0.063504
-0.000264226
0.0648632
-0.000255237
0.0650511
-0.00103852
0.0198645
-0.00099685
0.0205798
-0.000956844
0.0213165
-0.000918453
0.022074
-0.000881675
0.0228525
-0.000846407
0.0236553
-0.000812542
0.0244829
-0.000780012
0.0253397
-0.000748843
0.026227
-0.000718826
0.0271395
-0.000690027
0.0280778
-0.000662342
0.0290334
-0.000635959
0.0300139
-0.00061053
0.031026
-0.000586301
0.0320844
-0.000562843
0.0331978
-0.000540295
0.0343728
-0.000518493
0.0355985
-0.000497388
0.0368537
-0.000477187
0.0381126
-0.000457928
0.0393369
-0.00043969
0.040517
-0.000422586
0.041631
-0.000406364
0.0427533
-0.000391026
0.0439468
-0.000376069
0.045332
-0.000361245
0.0470113
-0.000346281
0.0490286
-0.000331254
0.0513857
-0.000316365
0.0539584
-0.000301945
0.0565948
-0.00028831
0.0591748
-0.000275672
0.0614614
-0.000264182
0.0635039
-0.000253603
0.0648616
-0.000245015
0.0650496
-0.00103844
0.0191667
-0.000996754
0.0198644
-0.000956725
0.0205797
-0.00091831
0.0213164
-0.000881509
0.0220738
-0.00084622
0.0228524
-0.000812341
0.0236551
-0.000779815
0.0244828
-0.000748673
0.0253395
-0.000718694
0.0262268
-0.000689917
0.0271394
-0.000662211
0.0280777
-0.00063577
0.0290332
-0.00061028
0.0300137
-0.00058604
0.0310257
-0.000562648
0.0320842
-0.000540227
0.0331977
-0.00051857
0.0343728
-0.000497566
0.0355987
-0.000477367
0.0368539
-0.000457977
0.0381126
-0.000439479
0.0393367
-0.000422044
0.0405165
-0.000405531
0.0416301
-0.000390081
0.0427523
-0.000375299
0.043946
-0.000360951
0.0453317
-0.000346651
0.0470117
-0.000332272
0.0490296
-0.000317818
0.0513871
-0.000303516
0.05396
-0.00028968
0.0565961
-0.000276618
0.0591757
-0.000264524
0.0614617
-0.000253524
0.0635038
-0.000243414
0.06486
-0.000235202
0.065048
-0.00103836
0.0184864
-0.000996678
0.0191667
-0.000956633
0.0198643
-0.000918194
0.0205795
-0.00088137
0.0213163
-0.000846059
0.0220737
-0.000812161
0.0228522
-0.000779622
0.0236549
-0.000748484
0.0244826
-0.000718532
0.0253393
-0.000689792
0.0262267
-0.000662107
0.0271393
-0.000635644
0.0280776
-0.000610097
0.029033
-0.000585799
0.0300134
-0.000562399
0.0310254
-0.000540044
0.032084
-0.000518511
0.0331977
-0.000497645
0.0343729
-0.00047754
0.0355989
-0.000458146
0.0368541
-0.000439517
0.0381126
-0.000421829
0.0393365
-0.000404998
0.0405159
-0.000389275
0.0416293
-0.000374397
0.0427514
-0.000360233
0.0439453
-0.000346402
0.0453315
-0.000332663
0.0470121
-0.000318825
0.0490306
-0.000304927
0.0513885
-0.000291186
0.0539615
-0.000277916
0.0565974
-0.000265404
0.0591766
-0.00025382
0.061462
-0.000243303
0.0635037
-0.000233634
0.0648584
-0.000225788
0.0650466
-0.00103826
0.0178249
-0.000996606
0.0184863
-0.000956561
0.0191666
-0.000918106
0.0198642
-0.000881258
0.0205794
-0.000845924
0.0213161
-0.000812005
0.0220735
-0.000779447
0.022852
-0.000748298
0.0236548
-0.000718351
0.0244824
-0.000689638
0.0253392
-0.000661988
0.0262266
-0.000635544
0.0271392
-0.000609975
0.0280775
-0.000585622
0.0290328
-0.000562167
0.0300132
-0.000539807
0.0310252
-0.00051834
0.0320838
-0.000497596
0.0331976
-0.000477622
0.034373
-0.000458314
0.035599
-0.000439677
0.0368542
-0.000421858
0.0381127
-0.00040478
0.0393363
-0.000388753
0.0405154
-0.000373619
0.0416285
-0.000359374
0.0427506
-0.000345733
0.0439446
-0.000332456
0.0453313
-0.000319236
0.0470125
-0.000305922
0.0490316
-0.000292554
0.0513899
-0.000279359
0.0539629
-0.000266633
0.0565987
-0.000254638
0.0591774
-0.000243557
0.0614623
-0.000233494
0.0635036
-0.000224254
0.0648569
-0.000216748
0.0650452
-0.00103812
0.0171806
-0.000996517
0.0178248
-0.000956495
0.0184863
-0.000918038
0.0191665
-0.000881173
0.0198641
-0.000845816
0.0205793
-0.000811874
0.021316
-0.000779296
0.0220734
-0.00074813
0.0228518
-0.000718171
0.0236546
-0.000689464
0.0244822
-0.00066184
0.025339
-0.000635431
0.0262265
-0.00060988
0.0271391
-0.000585504
0.0280773
-0.000561996
0.0290326
-0.000539584
0.030013
-0.000518114
0.031025
-0.000497436
0.0320836
-0.00047758
0.0331976
-0.000458398
0.0343731
-0.00043984
0.0355992
-0.000422008
0.0368544
-0.0004048
0.0381127
-0.000388532
0.0393361
-0.000373107
0.0405149
-0.000358622
0.0416278
-0.000344916
0.0427497
-0.000331835
0.043944
-0.000319068
0.0453311
-0.00030635
0.0470129
-0.000293536
0.0490326
-0.000280685
0.0513912
-0.000268015
0.0539643
-0.000255801
0.0565998
-0.000244315
0.0591782
-0.000233708
0.0614625
-0.000224086
0.0635034
-0.000215249
0.0648554
-0.000208078
0.0650438
-0.00103792
0.0165549
-0.000996386
0.0171805
-0.000956413
0.0178247
-0.000917977
0.0184862
-0.000881109
0.0191665
-0.000845734
0.0198641
-0.00081177
0.0205792
-0.00077917
0.0213159
-0.000747984
0.0220732
-0.000718008
0.0228517
-0.000689291
0.0236544
-0.000661674
0.024482
-0.00063529
0.0253389
-0.000609772
0.0262264
-0.000585413
0.027139
-0.000561882
0.0280772
-0.000539418
0.0290325
-0.0005179
0.0300128
-0.000497221
0.0310248
-0.000477431
0.0320835
-0.000458364
0.0331975
-0.000439926
0.0343732
-0.000422167
0.0355994
-0.000404941
0.0368545
-0.000388542
0.0381127
-0.000372884
0.0393358
-0.00035812
0.0405144
-0.00034419
0.0416271
-0.000331057
0.042749
-0.000318492
0.0439434
-0.000306219
0.045331
-0.000293979
0.0470133
-0.000281652
0.0490336
-0.000269299
0.0513925
-0.000257124
0.0539656
-0.000245415
0.0566009
-0.00023441
0.0591789
-0.000224263
0.0614627
-0.000215056
0.0635032
-0.000206613
0.0648539
-0.000199748
0.0650425
-0.00103765
0.0159479
-0.000996197
0.0165547
-0.000956292
0.0171804
-0.000917901
0.0178246
-0.000881052
0.0184861
-0.000845673
0.0191664
-0.000811691
0.019864
-0.000779068
0.0205791
-0.000747861
0.0213157
-0.000717867
0.0220731
-0.000689133
0.0228515
-0.000661507
0.0236542
-0.00063513
0.0244819
-0.000609638
0.0253388
-0.000585311
0.0262263
-0.000561795
0.0271389
-0.000539308
0.0280771
-0.000517739
0.0290323
-0.000497015
0.0300125
-0.000477227
0.0310246
-0.000458226
0.0320834
-0.000439899
0.0331975
-0.000422254
0.0343733
-0.000405095
0.0355995
-0.000388675
0.0368546
-0.000372886
0.0381127
-0.000357896
0.0393356
-0.000343699
0.0405139
-0.000330358
0.0416264
-0.000317754
0.0427482
-0.000305686
0.0439429
-0.000293883
0.0453309
-0.000282108
0.0470138
-0.000270251
0.0490345
-0.000258366
0.0513938
-0.000246679
0.0539669
-0.000235449
0.056602
-0.000224912
0.0591795
-0.000215198
0.0614628
-0.000206397
0.063503
-0.000198317
0.0648525
-0.000191763
0.0650413
-0.00103732
0.0153619
-0.000995941
0.0159477
-0.000956115
0.0165546
-0.000917789
0.0171803
-0.000880982
0.0178246
-0.000845621
0.0184861
-0.000811633
0.0191663
-0.000778992
0.0198639
-0.000747762
0.020579
-0.000717748
0.0213156
-0.000688996
0.0220729
-0.000661355
0.0228514
-0.00063497
0.0236541
-0.000609485
0.0244817
-0.000585183
0.0253386
-0.000561698
0.0262262
-0.000539224
0.0271388
-0.000517633
0.028077
-0.000496859
0.0290322
-0.000477029
0.0300123
-0.000458032
0.0310244
-0.00043977
0.0320832
-0.000422233
0.0331975
-0.000405183
0.0343733
-0.000388823
0.0355997
-0.000373009
0.0368548
-0.00035789
0.0381127
-0.000343473
0.0393354
-0.000329877
0.0405134
-0.00031708
0.0416257
-0.000304986
0.0427475
-0.000293392
0.0439424
-0.000282045
0.0453308
-0.000270718
0.0470143
-0.000259302
0.0490355
-0.000247881
0.051395
-0.000236657
0.0539681
-0.000225892
0.0566029
-0.000215796
0.0591801
-0.000206507
0.0614629
-0.000198081
0.0635028
-0.000190366
0.0648511
-0.000184092
0.06504
-0.00103694
0.014796
-0.000995625
0.0153615
-0.000955873
0.0159474
-0.000917624
0.0165544
-0.000880879
0.0171802
-0.000845557
0.0178245
-0.000811584
0.018486
-0.000778937
0.0191663
-0.000747689
0.0198638
-0.000717652
0.0205789
-0.000688881
0.0213155
-0.000661222
0.0220728
-0.000634823
0.0228512
-0.000609331
0.0236539
-0.000585036
0.0244816
-0.000561576
0.0253385
-0.000539132
0.0262261
-0.000517553
0.0271387
-0.000496756
0.0280769
-0.000476878
0.029032
-0.000457841
0.0300122
-0.000439586
0.0310242
-0.000422114
0.0320831
-0.000405168
0.0331975
-0.000388912
0.0343734
-0.000373153
0.0355998
-0.000358005
0.0368549
-0.000343459
0.0381127
-0.00032965
0.0393352
-0.00031661
0.0405129
-0.000304337
0.0416251
-0.000292728
0.0427469
-0.000281594
0.043942
-0.000270685
0.0453308
-0.000259778
0.0470147
-0.000248799
0.0490364
-0.000237818
0.0513961
-0.000227045
0.0539692
-0.00021672
0.0566039
-0.000207057
0.0591807
-0.00019816
0.061463
-0.000190111
0.0635025
-0.00018273
0.0648497
-0.000176727
0.0650389
-0.00103655
0.0142479
-0.000995267
0.0147957
-0.000955572
0.0153612
-0.000917396
0.0159472
-0.000880725
0.0165542
-0.000845462
0.0171801
-0.000811526
0.0178244
-0.000778891
0.018486
-0.000747636
0.0191662
-0.000717581
0.0198638
-0.000688788
0.0205788
-0.00066111
0.0213154
-0.000634695
0.0220727
-0.000609189
0.0228511
-0.000584888
0.0236538
-0.000561435
0.0244814
-0.000539016
0.0253384
-0.000517465
0.026226
-0.000496679
0.0271387
-0.000476778
0.0280768
-0.000457695
0.0290319
-0.000439403
0.030012
-0.00042194
0.031024
-0.000405058
0.032083
-0.000388903
0.0331975
-0.000373242
0.0343735
-0.000358144
0.0355999
-0.000343566
0.036855
-0.00032963
0.0381127
-0.000316383
0.0393349
-0.000303878
0.0405125
-0.000292104
0.0416244
-0.000280965
0.0427462
-0.000270272
0.0439415
-0.000259773
0.0453308
-0.000249283
0.0470152
-0.000238718
0.0490373
-0.000228166
0.0513972
-0.00021782
0.0539704
-0.000207926
0.0566047
-0.000198664
0.0591812
-0.000190162
0.061463
-0.000182458
0.0635023
-0.000175399
0.0648484
-0.000169666
0.0650377
-0.00103616
0.0137175
-0.000994891
0.0142475
-0.00095523
0.0147953
-0.00091711
0.015361
-0.00088051
0.015947
-0.000845318
0.0165541
-0.000811438
0.01718
-0.000778838
0.0178244
-0.000747593
0.018486
-0.00071753
0.0191662
-0.000688719
0.0198637
-0.00066102
0.0205787
-0.000634586
0.0213153
-0.000609064
0.0220726
-0.000584751
0.0228509
-0.000561292
0.0236536
-0.000538882
0.0244813
-0.000517355
0.0253383
-0.000496596
0.0262259
-0.000476705
0.0271386
-0.000457599
0.0280767
-0.000439262
0.0290317
-0.000421764
0.0300118
-0.000404893
0.0310238
-0.000388802
0.0320829
-0.000373238
0.0331975
-0.000358232
0.0343736
-0.0003437
0.0356001
-0.000329729
0.0368551
-0.000316355
0.0381126
-0.00030365
0.0393347
-0.000291656
0.040512
-0.000280365
0.0416238
-0.000269678
0.0427456
-0.000259396
0.0439412
-0.000249305
0.0453308