/*--------------------------------*- C++ -*----------------------------------*\
  =========                 |
  \\      /  F ield         | OpenFOAM: The Open Source CFD Toolbox
   \\    /   O peration     | Website:  https://openfoam.org
    \\  /    A nd           | Version:  7
     \\/     M anipulation  |
\*---------------------------------------------------------------------------*/
FoamFile
{
    version     2.0;
    format      ascii;
    class       volVectorField;
    location    "1000";
    object      U;
}
// * * * * * * * * * * * * * * * * * * * * * * * * * * * * * * * * * * * * * //

dimensions      [0 1 -1 0 0 0 0];

internalField   nonuniform List<vector> 
23023
(
(49.6634 12.6427 0)
(49.38 12.9962 0)
(49.6596 12.6417 0)
(49.6205 13.0953 0)
(49.3684 12.9961 0)
(49.6561 12.6408 0)
(49.8027 13.0738 0)
(49.6061 13.0968 0)
(49.3569 12.996 0)
(49.653 12.6398 0)
(49.7869 13.0753 0)
(49.5918 13.0981 0)
(49.3457 12.9959 0)
(49.6501 12.6389 0)
(50.0443 12.9844 0)
(49.7711 13.0768 0)
(49.5776 13.0994 0)
(49.3348 12.9958 0)
(49.6476 12.638 0)
(50.2836 12.817 0)
(50.0287 12.9861 0)
(49.7552 13.0782 0)
(49.5634 13.1006 0)
(49.3241 12.9956 0)
(49.6454 12.6372 0)
(50.4782 12.6133 0)
(50.2703 12.8186 0)
(50.0129 12.9877 0)
(49.7392 13.0796 0)
(49.5493 13.1017 0)
(49.3137 12.9954 0)
(49.6435 12.6363 0)
(50.5881 12.4052 0)
(50.4689 12.6144 0)
(50.2567 12.8201 0)
(49.9968 12.9893 0)
(49.7231 13.0808 0)
(49.5354 13.1028 0)
(49.3036 12.9952 0)
(49.642 12.6354 0)
(50.6005 12.2305 0)
(50.5835 12.4056 0)
(50.4592 12.6155 0)
(50.2428 12.8215 0)
(49.9805 12.9908 0)
(49.707 13.0821 0)
(49.5215 13.1038 0)
(49.2939 12.9949 0)
(49.6408 12.6346 0)
(50.5253 12.115 0)
(50.6003 12.2302 0)
(50.5785 12.406 0)
(50.449 12.6166 0)
(50.2284 12.8229 0)
(49.9639 12.9923 0)
(49.6909 13.0832 0)
(49.5078 13.1048 0)
(49.2844 12.9947 0)
(49.64 12.6338 0)
(50.5282 12.1141 0)
(50.5997 12.23 0)
(50.5731 12.4065 0)
(50.4384 12.6176 0)
(50.2138 12.8243 0)
(49.9472 12.9937 0)
(49.6748 13.0843 0)
(49.4943 13.1057 0)
(49.2752 12.9944 0)
(49.6395 12.633 0)
(50.3993 12.0661 0)
(50.5309 12.1133 0)
(50.5989 12.2298 0)
(50.5673 12.407 0)
(50.4274 12.6187 0)
(50.1988 12.8256 0)
(49.9303 12.9951 0)
(49.6586 13.0854 0)
(49.4809 13.1066 0)
(49.2664 12.9941 0)
(49.6394 12.6322 0)
(50.2546 12.0761 0)
(50.4035 12.065 0)
(50.5334 12.1126 0)
(50.5977 12.2297 0)
(50.5611 12.4075 0)
(50.416 12.6197 0)
(50.1835 12.8269 0)
(49.9133 12.9964 0)
(49.6425 13.0864 0)
(49.4676 13.1074 0)
(49.258 12.9938 0)
(49.6396 12.6314 0)
(50.1298 12.1219 0)
(50.2587 12.075 0)
(50.4077 12.0639 0)
(50.5357 12.1119 0)
(50.5963 12.2295 0)
(50.5544 12.408 0)
(50.4042 12.6207 0)
(50.1679 12.8282 0)
(49.8961 12.9976 0)
(49.6264 13.0873 0)
(49.4546 13.1081 0)
(49.2499 12.9934 0)
(49.6402 12.6307 0)
(50.0458 12.1777 0)
(50.1329 12.121 0)
(50.2629 12.0739 0)
(50.4118 12.0629 0)
(50.5379 12.1112 0)
(50.5945 12.2294 0)
(50.5474 12.4085 0)
(50.392 12.6217 0)
(50.1519 12.8294 0)
(49.8787 12.9988 0)
(49.6104 13.0883 0)
(49.4418 13.1089 0)
(49.2422 12.9931 0)
(49.6412 12.63 0)
(50.0474 12.1771 0)
(50.136 12.1202 0)
(50.2672 12.0729 0)
(50.4159 12.0619 0)
(50.5399 12.1106 0)
(50.5923 12.2294 0)
(50.54 12.409 0)
(50.3794 12.6226 0)
(50.1357 12.8305 0)
(49.8612 13 0)
(49.5944 13.0891 0)
(49.4291 13.1095 0)
(49.2348 12.9927 0)
(49.6426 12.6293 0)
(50.0065 12.2219 0)
(50.0491 12.1766 0)
(50.1392 12.1194 0)
(50.2714 12.0719 0)
(50.4199 12.061 0)
(50.5416 12.11 0)
(50.5898 12.2294 0)
(50.5321 12.4096 0)
(50.3664 12.6236 0)
(50.1193 12.8317 0)
(49.8437 13.0011 0)
(49.5785 13.0899 0)
(49.4167 13.1102 0)
(49.2279 12.9924 0)
(49.6443 12.6286 0)
(50.0014 12.2432 0)
(50.0069 12.2217 0)
(50.0508 12.1761 0)
(50.1425 12.1185 0)
(50.2757 12.0709 0)
(50.4238 12.0602 0)
(50.5431 12.1095 0)
(50.587 12.2294 0)
(50.5239 12.4101 0)
(50.353 12.6245 0)
(50.1025 12.8328 0)
(49.826 13.0022 0)
(49.5627 13.0907 0)
(49.4046 13.1108 0)
(49.2213 12.992 0)
(49.6464 12.6279 0)
(50.0011 12.2433 0)
(50.0074 12.2215 0)
(50.0527 12.1756 0)
(50.1459 12.1178 0)
(50.2801 12.07 0)
(50.4276 12.0593 0)
(50.5445 12.109 0)
(50.5838 12.2294 0)
(50.5152 12.4106 0)
(50.3393 12.6254 0)
(50.0855 12.8339 0)
(49.8082 13.0032 0)
(49.547 13.0915 0)
(49.3927 13.1113 0)
(49.2152 12.9916 0)
(49.6489 12.6272 0)
(50.0159 12.2389 0)
(50.0007 12.2433 0)
(50.0079 12.2213 0)
(50.0546 12.1751 0)
(50.1494 12.117 0)
(50.2844 12.0691 0)
(50.4314 12.0586 0)
(50.5455 12.1086 0)
(50.5803 12.2294 0)
(50.5061 12.4112 0)
(50.3252 12.6263 0)
(50.0683 12.8349 0)
(49.7904 13.0042 0)
(49.5314 13.0922 0)
(49.381 13.1118 0)
(49.2095 12.9912 0)
(49.6518 12.6266 0)
(50.0358 12.2138 0)
(50.0153 12.2391 0)
(50.0003 12.2434 0)
(50.0085 12.2211 0)
(50.0566 12.1746 0)
(50.1529 12.1162 0)
(50.2888 12.0683 0)
(50.435 12.0578 0)
(50.5464 12.1082 0)
(50.5764 12.2295 0)
(50.4966 12.4117 0)
(50.3107 12.6272 0)
(50.0509 12.8359 0)
(49.7726 13.0051 0)
(49.5159 13.0928 0)
(49.3697 13.1123 0)
(49.2042 12.9909 0)
(49.6551 12.6259 0)
(50.049 12.1766 0)
(50.0353 12.214 0)
(50.0146 12.2393 0)
(50 12.2434 0)
(50.0091 12.2209 0)
(50.0587 12.1741 0)
(50.1565 12.1155 0)
(50.2932 12.0675 0)
(50.4386 12.0571 0)
(50.5469 12.1078 0)
(50.5721 12.2296 0)
(50.4867 12.4122 0)
(50.2959 12.6281 0)
(50.0332 12.8368 0)
(49.7547 13.006 0)
(49.5006 13.0934 0)
(49.3586 13.1127 0)
(49.1993 12.9905 0)
(49.6587 12.6253 0)
(50.0496 12.1361 0)
(50.049 12.1767 0)
(50.0349 12.2141 0)
(50.014 12.2394 0)
(49.9996 12.2434 0)
(50.0097 12.2207 0)
(50.0609 12.1736 0)
(50.1602 12.1148 0)
(50.2976 12.0667 0)
(50.442 12.0564 0)
(50.5472 12.1075 0)
(50.5675 12.2297 0)
(50.4764 12.4128 0)
(50.2808 12.6289 0)
(50.0154 12.8378 0)
(49.7368 13.0068 0)
(49.4855 13.094 0)
(49.3478 13.1132 0)
(49.1949 12.9901 0)
(49.6628 12.6247 0)
(50.0502 12.136 0)
(50.049 12.1767 0)
(50.0344 12.2143 0)
(50.0132 12.2395 0)
(49.9993 12.2434 0)
(50.0105 12.2205 0)
(50.0631 12.1732 0)
(50.1639 12.1142 0)
(50.3019 12.0659 0)
(50.4453 12.0558 0)
(50.5473 12.1072 0)
(50.5625 12.2298 0)
(50.4657 12.4133 0)
(50.2653 12.6297 0)
(49.9974 12.8387 0)
(49.7189 13.0076 0)
(49.4706 13.0946 0)
(49.3373 13.1135 0)
(49.1909 12.9897 0)
(49.6672 12.6241 0)
(50.0385 12.0987 0)
(50.0508 12.1359 0)
(50.049 12.1768 0)
(50.0338 12.2144 0)
(50.0125 12.2397 0)
(49.999 12.2434 0)
(50.0112 12.2203 0)
(50.0655 12.1727 0)
(50.1677 12.1135 0)
(50.3063 12.0652 0)
(50.4484 12.0552 0)
(50.5471 12.1069 0)
(50.557 12.2299 0)
(50.4545 12.4138 0)
(50.2495 12.6305 0)
(49.9792 12.8395 0)
(49.7011 13.0084 0)
(49.4558 13.0951 0)
(49.3272 13.1139 0)
(49.1874 12.9893 0)
(49.672 12.6235 0)
(50.0176 12.0682 0)
(50.0394 12.0985 0)
(50.0513 12.1359 0)
(50.0489 12.1769 0)
(50.0332 12.2145 0)
(50.0118 12.2398 0)
(49.9987 12.2434 0)
(50.0121 12.2201 0)
(50.0679 12.1723 0)
(50.1716 12.1129 0)
(50.3106 12.0645 0)
(50.4514 12.0547 0)
(50.5465 12.1067 0)
(50.5513 12.2301 0)
(50.443 12.4144 0)
(50.2334 12.6313 0)
(49.9608 12.8404 0)
(49.6832 13.0092 0)
(49.4413 13.0956 0)
(49.3174 13.1142 0)
(49.1844 12.9889 0)
(49.6773 12.623 0)
(50.0187 12.068 0)
(50.0403 12.0984 0)
(50.0517 12.1358 0)
(50.0487 12.1769 0)
(50.0326 12.2147 0)
(50.011 12.2399 0)
(49.9985 12.2434 0)
(50.013 12.2199 0)
(50.0704 12.1719 0)
(50.1755 12.1123 0)
(50.3149 12.0639 0)
(50.4543 12.0542 0)
(50.5457 12.1064 0)
(50.5451 12.2303 0)
(50.4311 12.4149 0)
(50.217 12.632 0)
(49.9424 12.8412 0)
(49.6655 13.0099 0)
(49.4269 13.096 0)
(49.3079 13.1145 0)
(49.1818 12.9885 0)
(49.6829 12.6224 0)
(49.9948 12.0443 0)
(50.0198 12.0678 0)
(50.0412 12.0982 0)
(50.0521 12.1358 0)
(50.0485 12.177 0)
(50.0319 12.2148 0)
(50.0102 12.24 0)
(49.9982 12.2434 0)
(50.014 12.2197 0)
(50.0729 12.1715 0)
(50.1795 12.1117 0)
(50.3192 12.0633 0)
(50.457 12.0537 0)
(50.5446 12.1062 0)
(50.5385 12.2305 0)
(50.4188 12.4154 0)
(50.2003 12.6327 0)
(49.9238 12.8419 0)
(49.6477 13.0105 0)
(49.4129 13.0965 0)
(49.2988 13.1148 0)
(49.1797 12.9881 0)
(49.6889 12.6219 0)
(49.9734 12.0243 0)
(49.9959 12.044 0)
(50.021 12.0676 0)
(50.0421 12.0981 0)
(50.0525 12.1358 0)
(50.0483 12.1771 0)
(50.0311 12.2149 0)
(50.0094 12.2401 0)
(49.998 12.2434 0)
(50.015 12.2195 0)
(50.0756 12.1711 0)
(50.1835 12.1111 0)
(50.3235 12.0627 0)
(50.4595 12.0532 0)
(50.5432 12.1061 0)
(50.5315 12.2306 0)
(50.4062 12.4159 0)
(50.1833 12.6335 0)
(49.9051 12.8427 0)
(49.6301 13.0112 0)
(49.399 13.0969 0)
(49.29 13.115 0)
(49.1781 12.9877 0)
(49.6953 12.6213 0)
(49.9744 12.0241 0)
(49.997 12.0438 0)
(50.0221 12.0674 0)
(50.0429 12.098 0)
(50.0528 12.1357 0)
(50.0479 12.1771 0)
(50.0303 12.215 0)
(50.0086 12.2402 0)
(49.9978 12.2434 0)
(50.0161 12.2194 0)
(50.0783 12.1707 0)
(50.1876 12.1106 0)
(50.3277 12.0621 0)
(50.4618 12.0528 0)
(50.5414 12.1059 0)
(50.5242 12.2309 0)
(50.3931 12.4164 0)
(50.1661 12.6341 0)
(49.8863 12.8434 0)
(49.6126 13.0118 0)
(49.3854 13.0973 0)
(49.2817 13.1153 0)
(49.177 12.9873 0)
(49.7021 12.6208 0)
(49.9586 12.0038 0)
(49.9754 12.0239 0)
(49.9981 12.0436 0)
(50.0231 12.0672 0)
(50.0437 12.0978 0)
(50.053 12.1357 0)
(50.0476 12.1772 0)
(50.0295 12.2152 0)
(50.0078 12.2403 0)
(49.9977 12.2434 0)
(50.0172 12.2192 0)
(50.0811 12.1703 0)
(50.1917 12.1101 0)
(50.3318 12.0615 0)
(50.464 12.0524 0)
(50.5394 12.1058 0)
(50.5164 12.2311 0)
(50.3797 12.4169 0)
(50.1486 12.6348 0)
(49.8674 12.8441 0)
(49.5952 13.0123 0)
(49.3722 13.0976 0)
(49.2737 13.1155 0)
(49.1764 12.9869 0)
(49.7093 12.6204 0)
(49.948 11.9796 0)
(49.9594 12.0036 0)
(49.9764 12.0238 0)
(49.9992 12.0434 0)
(50.0242 12.067 0)
(50.0444 12.0977 0)
(50.0532 12.1357 0)
(50.0471 12.1773 0)
(50.0287 12.2153 0)
(50.007 12.2404 0)
(49.9975 12.2434 0)
(50.0185 12.219 0)
(50.084 12.1699 0)
(50.1958 12.1095 0)
(50.3359 12.061 0)
(50.4659 12.052 0)
(50.537 12.1057 0)
(50.5083 12.2313 0)
(50.3659 12.4174 0)
(50.1309 12.6355 0)
(49.8485 12.8447 0)
(49.5779 13.0129 0)
(49.3592 13.0979 0)
(49.2661 13.1157 0)
(49.1763 12.9865 0)
(49.7168 12.6199 0)
(49.9488 11.9795 0)
(49.9603 12.0035 0)
(49.9774 12.0236 0)
(50.0003 12.0432 0)
(50.0253 12.0668 0)
(50.0452 12.0976 0)
(50.0534 12.1357 0)
(50.0467 12.1773 0)
(50.0278 12.2154 0)
(50.0062 12.2405 0)
(49.9975 12.2434 0)
(50.0198 12.2188 0)
(50.087 12.1695 0)
(50.2 12.109 0)
(50.3399 12.0605 0)
(50.4676 12.0516 0)
(50.5342 12.1056 0)
(50.4998 12.2315 0)
(50.3518 12.4179 0)
(50.1129 12.6361 0)
(49.8295 12.8453 0)
(49.5607 13.0134 0)
(49.3465 13.0982 0)
(49.2589 13.1158 0)
(49.1767 12.9861 0)
(49.7248 12.6194 0)
(49.9406 11.9507 0)
(49.9497 11.9794 0)
(49.9612 12.0034 0)
(49.9784 12.0234 0)
(50.0014 12.043 0)
(50.0263 12.0667 0)
(50.0458 12.0975 0)
(50.0534 12.1357 0)
(50.0461 12.1774 0)
(50.0268 12.2155 0)
(50.0053 12.2406 0)
(49.9974 12.2433 0)
(50.0211 12.2186 0)
(50.09 12.1692 0)
(50.2041 12.1086 0)
(50.3438 12.06 0)
(50.4692 12.0513 0)
(50.5312 12.1056 0)
(50.4908 12.2317 0)
(50.3373 12.4184 0)
(50.0948 12.6367 0)
(49.8106 12.8459 0)
(49.5437 13.0139 0)
(49.3341 13.0985 0)
(49.2521 13.116 0)
(49.1776 12.9857 0)
(49.7331 12.619 0)
(49.9317 11.9185 0)
(49.9415 11.9506 0)
(49.9505 11.9794 0)
(49.9621 12.0033 0)
(49.9794 12.0233 0)
(50.0025 12.0429 0)
(50.0273 12.0665 0)
(50.0465 12.0974 0)
(50.0535 12.1357 0)
(50.0455 12.1775 0)
(50.0258 12.2156 0)
(50.0045 12.2406 0)
(49.9974 12.2433 0)
(50.0226 12.2184 0)
(50.0931 12.1688 0)
(50.2083 12.1081 0)
(50.3476 12.0596 0)
(50.4705 12.051 0)
(50.5277 12.1055 0)
(50.4815 12.232 0)
(50.3225 12.4189 0)
(50.0764 12.6373 0)
(49.7916 12.8465 0)
(49.5269 13.0143 0)
(49.322 13.0988 0)
(49.2457 13.1161 0)
(49.179 12.9853 0)
(49.7418 12.6185 0)
(49.9327 11.9184 0)
(49.9424 11.9506 0)
(49.9513 11.9793 0)
(49.9629 12.0031 0)
(49.9804 12.0231 0)
(50.0036 12.0427 0)
(50.0283 12.0664 0)
(50.0471 12.0974 0)
(50.0535 12.1357 0)
(50.0449 12.1776 0)
(50.0248 12.2157 0)
(50.0036 12.2407 0)
(49.9974 12.2433 0)
(50.0241 12.2182 0)
(50.0962 12.1685 0)
(50.2125 12.1077 0)
(50.3514 12.0592 0)
(50.4715 12.0507 0)
(50.524 12.1055 0)
(50.4718 12.2322 0)
(50.3074 12.4193 0)
(50.0579 12.6378 0)
(49.7726 12.8471 0)
(49.5103 13.0148 0)
(49.3103 13.099 0)
(49.2398 13.1162 0)
(49.181 12.985 0)
(49.7509 12.6181 0)
(49.9217 11.8847 0)
(49.9336 11.9183 0)
(49.9432 11.9505 0)
(49.9521 11.9792 0)
(49.9638 12.003 0)
(49.9814 12.023 0)
(50.0047 12.0425 0)
(50.0292 12.0662 0)
(50.0476 12.0973 0)
(50.0534 12.1357 0)
(50.0442 12.1776 0)
(50.0238 12.2158 0)
(50.0028 12.2408 0)
(49.9975 12.2432 0)
(50.0256 12.218 0)
(50.0994 12.1681 0)
(50.2168 12.1073 0)
(50.355 12.0588 0)
(50.4723 12.0505 0)
(50.5199 12.1054 0)
(50.4617 12.2325 0)
(50.2919 12.4198 0)
(50.0392 12.6384 0)
(49.7536 12.8476 0)
(49.4939 13.0152 0)
(49.2989 13.0992 0)
(49.2343 13.1163 0)
(49.1835 12.9846 0)
(49.7604 12.6177 0)
(49.9093 11.8508 0)
(49.9227 11.8845 0)
(49.9345 11.9182 0)
(49.944 11.9504 0)
(49.9529 11.9791 0)
(49.9646 12.0029 0)
(49.9824 12.0228 0)
(50.0058 12.0424 0)
(50.0302 12.0661 0)
(50.0481 12.0972 0)
(50.0533 12.1357 0)
(50.0434 12.1777 0)
(50.0227 12.2159 0)
(50.002 12.2408 0)
(49.9976 12.2432 0)
(50.0273 12.2178 0)
(50.1027 12.1678 0)
(50.221 12.1068 0)
(50.3585 12.0584 0)
(50.4729 12.0502 0)
(50.5154 12.1054 0)
(50.4512 12.2327 0)
(50.2761 12.4202 0)
(50.0204 12.6389 0)
(49.7347 12.8481 0)
(49.4776 13.0156 0)
(49.2879 13.0995 0)
(49.2292 13.1164 0)
(49.1865 12.9842 0)
(49.7703 12.6173 0)
(49.8968 11.8167 0)
(49.9102 11.8507 0)
(49.9237 11.8844 0)
(49.9354 11.9181 0)
(49.9448 11.9503 0)
(49.9537 11.979 0)
(49.9655 12.0028 0)
(49.9834 12.0227 0)
(50.0069 12.0422 0)
(50.0311 12.066 0)
(50.0486 12.0972 0)
(50.0531 12.1357 0)
(50.0426 12.1778 0)
(50.0216 12.216 0)
(50.0011 12.2409 0)
(49.9978 12.2431 0)
(50.029 12.2177 0)
(50.1061 12.1675 0)
(50.2252 12.1065 0)
(50.3619 12.058 0)
(50.4732 12.05 0)
(50.5106 12.1055 0)
(50.4403 12.233 0)
(50.26 12.4206 0)
(50.0014 12.6394 0)
(49.7158 12.8486 0)
(49.4617 13.016 0)
(49.2772 13.0996 0)
(49.2246 13.1165 0)
(49.1901 12.9838 0)
(49.7805 12.6169 0)
(49.8855 11.7816 0)
(49.8977 11.8166 0)
(49.9112 11.8505 0)
(49.9246 11.8843 0)
(49.9363 11.918 0)
(49.9456 11.9503 0)
(49.9544 11.979 0)
(49.9663 12.0027 0)
(49.9844 12.0225 0)
(50.0079 12.0421 0)
(50.032 12.0659 0)
(50.049 12.0971 0)
(50.0529 12.1357 0)
(50.0418 12.1779 0)
(50.0204 12.2161 0)
(50.0003 12.2409 0)
(49.998 12.2431 0)
(50.0308 12.2175 0)
(50.1094 12.1672 0)
(50.2294 12.1061 0)
(50.3652 12.0577 0)
(50.4732 12.0498 0)
(50.5053 12.1055 0)
(50.4291 12.2332 0)
(50.2437 12.4211 0)
(49.9822 12.6399 0)
(49.697 12.849 0)
(49.4459 13.0163 0)
(49.267 13.0998 0)
(49.2204 13.1165 0)
(49.1942 12.9835 0)
(49.7911 12.6165 0)
(49.8757 11.7445 0)
(49.8864 11.7814 0)
(49.8987 11.8164 0)
(49.9122 11.8504 0)
(49.9256 11.8842 0)
(49.9372 11.9179 0)
(49.9464 11.9502 0)
(49.9552 11.9789 0)
(49.9672 12.0026 0)
(49.9854 12.0224 0)
(50.009 12.0419 0)
(50.0328 12.0657 0)
(50.0494 12.097 0)
(50.0526 12.1358 0)
(50.0409 12.1779 0)
(50.0193 12.2162 0)
(49.9995 12.241 0)
(49.9982 12.243 0)
(50.0326 12.2173 0)
(50.1129 12.1669 0)
(50.2335 12.1057 0)
(50.3683 12.0574 0)
(50.473 12.0496 0)
(50.4998 12.1055 0)
(50.4175 12.2335 0)
(50.227 12.4215 0)
(49.963 12.6404 0)
(49.6782 12.8495 0)
(49.4305 13.0166 0)
(49.2571 13.1 0)
(49.2167 13.1166 0)
(49.1988 12.9831 0)
(49.8021 12.6162 0)
(49.8675 11.7051 0)
(49.8765 11.7444 0)
(49.8872 11.7813 0)
(49.8996 11.8163 0)
(49.9131 11.8503 0)
(49.9265 11.8841 0)
(49.9381 11.9178 0)
(49.9472 11.9501 0)
(49.956 11.9788 0)
(49.968 12.0025 0)
(49.9863 12.0223 0)
(50.01 12.0418 0)
(50.0337 12.0656 0)
(50.0497 12.097 0)
(50.0522 12.1358 0)
(50.0399 12.178 0)
(50.0181 12.2163 0)
(49.9987 12.241 0)
(49.9985 12.243 0)
(50.0346 12.2171 0)
(50.1164 12.1666 0)
(50.2377 12.1054 0)
(50.3713 12.057 0)
(50.4725 12.0495 0)
(50.4938 12.1056 0)
(50.4055 12.2337 0)
(50.2101 12.4219 0)
(49.9437 12.6409 0)
(49.6596 12.8499 0)
(49.4152 13.0169 0)
(49.2476 13.1001 0)
(49.2135 13.1166 0)
(49.204 12.9828 0)
(49.8135 12.6158 0)
(49.8682 11.705 0)
(49.8773 11.7443 0)
(49.8881 11.7812 0)
(49.9005 11.8162 0)
(49.9141 11.8502 0)
(49.9275 11.884 0)
(49.9389 11.9177 0)
(49.948 11.9501 0)
(49.9567 11.9787 0)
(49.9689 12.0024 0)
(49.9873 12.0222 0)
(50.011 12.0417 0)
(50.0345 12.0655 0)
(50.05 12.097 0)
(50.0518 12.1358 0)
(50.0389 12.1781 0)
(50.0169 12.2163 0)
(49.9979 12.241 0)
(49.9989 12.2429 0)
(50.0366 12.2169 0)
(50.1199 12.1663 0)
(50.2418 12.105 0)
(50.3741 12.0568 0)
(50.4717 12.0493 0)
(50.4875 12.1056 0)
(50.3931 12.234 0)
(50.193 12.4223 0)
(49.9243 12.6413 0)
(49.6411 12.8503 0)
(49.4003 13.0172 0)
(49.2386 13.1002 0)
(49.2108 13.1167 0)
(49.2098 12.9824 0)
(49.8252 12.6155 0)
(49.8614 11.6628 0)
(49.8689 11.7049 0)
(49.8781 11.7442 0)
(49.8889 11.7811 0)
(49.9014 11.8161 0)
(49.915 11.85 0)
(49.9284 11.8839 0)
(49.9398 11.9177 0)
(49.9488 11.95 0)
(49.9575 11.9787 0)
(49.9697 12.0023 0)
(49.9883 12.0221 0)
(50.012 12.0416 0)
(50.0352 12.0655 0)
(50.0503 12.0969 0)
(50.0514 12.1358 0)
(50.0378 12.1781 0)
(50.0156 12.2164 0)
(49.9972 12.2411 0)
(49.9993 12.2429 0)
(50.0386 12.2168 0)
(50.1235 12.1661 0)
(50.2459 12.1047 0)
(50.3767 12.0565 0)
(50.4706 12.0492 0)
(50.4808 12.1057 0)
(50.3804 12.2342 0)
(50.1756 12.4227 0)
(49.9049 12.6417 0)
(49.6227 12.8507 0)
(49.3857 13.0175 0)
(49.23 13.1004 0)
(49.2085 13.1167 0)
(49.2161 12.9821 0)
(49.8372 12.6151 0)
(49.8559 11.6175 0)
(49.862 11.6627 0)
(49.8697 11.7048 0)
(49.8789 11.7441 0)
(49.8898 11.781 0)
(49.9023 11.816 0)
(49.916 11.8499 0)
(49.9293 11.8838 0)
(49.9406 11.9176 0)
(49.9495 11.95 0)
(49.9582 11.9786 0)
(49.9706 12.0023 0)
(49.9893 12.022 0)
(50.013 12.0414 0)
(50.036 12.0654 0)
(50.0504 12.0969 0)
(50.0508 12.1358 0)
(50.0367 12.1782 0)
(50.0144 12.2165 0)
(49.9964 12.2411 0)
(49.9998 12.2428 0)
(50.0407 12.2166 0)
(50.1271 12.1658 0)
(50.2499 12.1044 0)
(50.3792 12.0562 0)
(50.4692 12.0491 0)
(50.4738 12.1057 0)
(50.3673 12.2345 0)
(50.158 12.423 0)
(49.8854 12.6421 0)
(49.6045 12.851 0)
(49.3714 13.0177 0)
(49.2218 13.1005 0)
(49.2067 13.1167 0)
(49.2229 12.9818 0)
(49.8496 12.6148 0)
(49.8566 11.6174 0)
(49.8627 11.6626 0)
(49.8704 11.7047 0)
(49.8797 11.744 0)
(49.8906 11.7809 0)
(49.9032 11.8159 0)
(49.9169 11.8498 0)
(49.9302 11.8837 0)
(49.9414 11.9175 0)
(49.9502 11.9499 0)
(49.9589 11.9786 0)
(49.9714 12.0022 0)
(49.9903 12.0219 0)
(50.014 12.0413 0)
(50.0367 12.0653 0)
(50.0506 12.0968 0)
(50.0503 12.1359 0)
(50.0356 12.1783 0)
(50.0131 12.2166 0)
(49.9957 12.2411 0)
(50.0003 12.2428 0)
(50.0429 12.2164 0)
(50.1308 12.1655 0)
(50.2539 12.1041 0)
(50.3815 12.056 0)
(50.4675 12.049 0)
(50.4663 12.1058 0)
(50.3539 12.2347 0)
(50.1401 12.4234 0)
(49.8658 12.6425 0)
(49.5864 12.8513 0)
(49.3574 13.018 0)
(49.214 13.1006 0)
(49.2054 13.1167 0)
(49.2303 12.9814 0)
(49.8624 12.6145 0)
(49.8524 11.5686 0)
(49.8573 11.6173 0)
(49.8634 11.6625 0)
(49.8711 11.7046 0)
(49.8804 11.7439 0)
(49.8915 11.7808 0)
(49.9041 11.8158 0)
(49.9179 11.8497 0)
(49.9311 11.8836 0)
(49.9422 11.9175 0)
(49.951 11.9499 0)
(49.9596 11.9785 0)
(49.9722 12.0021 0)
(49.9912 12.0218 0)
(50.015 12.0412 0)
(50.0374 12.0652 0)
(50.0507 12.0968 0)
(50.0496 12.1359 0)
(50.0344 12.1783 0)
(50.0118 12.2166 0)
(49.995 12.2411 0)
(50.0009 12.2427 0)
(50.0452 12.2163 0)
(50.1344 12.1653 0)
(50.2578 12.1039 0)
(50.3837 12.0558 0)
(50.4655 12.0489 0)
(50.4585 12.1059 0)
(50.3402 12.235 0)
(50.122 12.4238 0)
(49.8463 12.6429 0)
(49.5685 12.8517 0)
(49.3438 13.0182 0)
(49.2067 13.1006 0)
(49.2047 13.1167 0)
(49.2383 12.9811 0)
(49.8755 12.6142 0)
(49.8488 11.5159 0)
(49.8531 11.5685 0)
(49.8579 11.6173 0)
(49.864 11.6625 0)
(49.8718 11.7045 0)
(49.8812 11.7438 0)
(49.8923 11.7807 0)
(49.9051 11.8157 0)
(49.9188 11.8496 0)
(49.932 11.8836 0)
(49.9431 11.9174 0)
(49.9517 11.9498 0)
(49.9604 11.9785 0)
(49.9731 12.002 0)
(49.9922 12.0217 0)
(50.0159 12.0411 0)
(50.038 12.0651 0)
(50.0507 12.0968 0)
(50.0489 12.1359 0)
(50.0332 12.1784 0)
(50.0105 12.2167 0)
(49.9943 12.2412 0)
(50.0015 12.2426 0)
(50.0475 12.2161 0)
(50.1382 12.1651 0)
(50.2617 12.1036 0)
(50.3856 12.0556 0)
(50.4632 12.0488 0)
(50.4504 12.106 0)
(50.3261 12.2352 0)
(50.1038 12.4241 0)
(49.8267 12.6433 0)
(49.5508 12.852 0)
(49.3305 13.0184 0)
(49.1998 13.1007 0)
(49.2044 13.1167 0)
(49.2468 12.9808 0)
(49.8889 12.6139 0)
(49.8449 11.4593 0)
(49.8496 11.5158 0)
(49.8538 11.5685 0)
(49.8585 11.6172 0)
(49.8647 11.6624 0)
(49.8725 11.7045 0)
(49.8819 11.7438 0)
(49.8931 11.7806 0)
(49.906 11.8156 0)
(49.9197 11.8496 0)
(49.9329 11.8835 0)
(49.9438 11.9174 0)
(49.9524 11.9498 0)
(49.9611 11.9784 0)
(49.9739 12.0019 0)
(49.9932 12.0216 0)
(50.0169 12.041 0)
(50.0386 12.0651 0)
(50.0507 12.0968 0)
(50.0482 12.1359 0)
(50.0319 12.1784 0)
(50.0092 12.2167 0)
(49.9937 12.2412 0)
(50.0022 12.2426 0)
(50.0499 12.216 0)
(50.1419 12.1648 0)
(50.2654 12.1033 0)
(50.3873 12.0554 0)
(50.4605 12.0487 0)
(50.4418 12.1061 0)
(50.3117 12.2355 0)
(50.0854 12.4244 0)
(49.8072 12.6436 0)
(49.5333 12.8523 0)
(49.3175 13.0186 0)
(49.1934 13.1008 0)
(49.2046 13.1166 0)
(49.2559 12.9805 0)
(49.9027 12.6137 0)
(49.8395 11.3991 0)
(49.8459 11.4592 0)
(49.8504 11.5158 0)
(49.8544 11.5684 0)
(49.8591 11.6172 0)
(49.8653 11.6623 0)
(49.8731 11.7044 0)
(49.8827 11.7437 0)
(49.894 11.7805 0)
(49.9069 11.8155 0)
(49.9207 11.8495 0)
(49.9338 11.8834 0)
(49.9446 11.9173 0)
(49.9531 11.9497 0)
(49.9618 11.9784 0)
(49.9747 12.0019 0)
(49.9941 12.0215 0)
(50.0178 12.0409 0)
(50.0391 12.065 0)
(50.0506 12.0968 0)
(50.0474 12.136 0)
(50.0306 12.1785 0)
(50.0079 12.2168 0)
(49.9931 12.2412 0)
(50.003 12.2425 0)
(50.0524 12.2158 0)
(50.1456 12.1646 0)
(50.2691 12.1031 0)
(50.3888 12.0552 0)
(50.4576 12.0487 0)
(50.4329 12.1062 0)
(50.297 12.2357 0)
(50.0668 12.4248 0)
(49.7877 12.644 0)
(49.516 12.8526 0)
(49.305 13.0188 0)
(49.1875 13.1008 0)
(49.2054 13.1166 0)
(49.2655 12.9802 0)
(49.9168 12.6134 0)
(49.8315 11.3359 0)
(49.8407 11.399 0)
(49.8468 11.4592 0)
(49.8511 11.5158 0)
(49.855 11.5684 0)
(49.8597 11.6171 0)
(49.8659 11.6623 0)
(49.8738 11.7043 0)
(49.8834 11.7436 0)
(49.8948 11.7804 0)
(49.9078 11.8154 0)
(49.9216 11.8494 0)
(49.9347 11.8833 0)
(49.9454 11.9173 0)
(49.9538 11.9497 0)
(49.9625 11.9783 0)
(49.9755 12.0018 0)
(49.9951 12.0214 0)
(50.0186 12.0409 0)
(50.0397 12.0649 0)
(50.0505 12.0967 0)
(50.0465 12.136 0)
(50.0292 12.1786 0)
(50.0066 12.2168 0)
(49.9925 12.2412 0)
(50.0038 12.2424 0)
(50.0549 12.2157 0)
(50.1494 12.1644 0)
(50.2727 12.1029 0)
(50.3901 12.055 0)
(50.4543 12.0486 0)
(50.4236 12.1063 0)
(50.282 12.236 0)
(50.0481 12.4251 0)
(49.7682 12.6443 0)
(49.499 12.8528 0)
(49.2928 13.0189 0)
(49.1821 13.1009 0)
(49.2066 13.1166 0)
(49.2757 12.9799 0)
(49.9312 12.6131 0)
(49.8202 11.2707 0)
(49.8329 11.3358 0)
(49.8418 11.3989 0)
(49.8477 11.4591 0)
(49.8518 11.5157 0)
(49.8556 11.5684 0)
(49.8602 11.6171 0)
(49.8665 11.6622 0)
(49.8745 11.7043 0)
(49.8842 11.7435 0)
(49.8956 11.7804 0)
(49.9087 11.8153 0)
(49.9225 11.8493 0)
(49.9356 11.8833 0)
(49.9462 11.9172 0)
(49.9544 11.9496 0)
(49.9632 11.9783 0)
(49.9763 12.0017 0)
(49.996 12.0213 0)
(50.0195 12.0408 0)
(50.0401 12.0649 0)
(50.0503 12.0967 0)
(50.0456 12.136 0)
(50.0278 12.1786 0)
(50.0053 12.2169 0)
(49.992 12.2412 0)
(50.0047 12.2424 0)
(50.0575 12.2155 0)
(50.1531 12.1642 0)
(50.2763 12.1027 0)
(50.3912 12.0549 0)
(50.4506 12.0486 0)
(50.4139 12.1064 0)
(50.2667 12.2362 0)
(50.0292 12.4254 0)
(49.7488 12.6446 0)
(49.4822 12.8531 0)
(49.281 13.0191 0)
(49.1771 13.1009 0)
(49.2084 13.1165 0)
(49.2865 12.9796 0)
(49.946 12.6129 0)
(49.8056 11.2041 0)
(49.8218 11.2705 0)
(49.8343 11.3357 0)
(49.8429 11.3988 0)
(49.8485 11.4591 0)
(49.8525 11.5157 0)
(49.8561 11.5683 0)
(49.8608 11.617 0)
(49.867 11.6622 0)
(49.8751 11.7042 0)
(49.885 11.7434 0)
(49.8965 11.7803 0)
(49.9096 11.8152 0)
(49.9234 11.8492 0)
(49.9364 11.8832 0)
(49.9469 11.9172 0)
(49.9551 11.9496 0)
(49.9638 11.9782 0)
(49.9772 12.0017 0)
(49.9969 12.0212 0)
(50.0204 12.0407 0)
(50.0406 12.0648 0)
(50.05 12.0967 0)
(50.0447 12.1361 0)
(50.0264 12.1787 0)
(50.004 12.2169 0)
(49.9915 12.2412 0)
(50.0057 12.2423 0)
(50.0601 12.2154 0)
(50.1569 12.164 0)
(50.2797 12.1025 0)
(50.392 12.0547 0)
(50.4467 12.0486 0)
(50.4039 12.1065 0)
(50.2512 12.2364 0)
(50.0102 12.4257 0)
(49.7295 12.6449 0)
(49.4656 12.8533 0)
(49.2696 13.0192 0)
(49.1727 13.101 0)
(49.2107 13.1165 0)
(49.2978 12.9793 0)
(49.961 12.6127 0)
(49.7883 11.1367 0)
(49.8074 11.2039 0)
(49.8234 11.2703 0)
(49.8356 11.3356 0)
(49.844 11.3988 0)
(49.8493 11.459 0)
(49.8531 11.5157 0)
(49.8567 11.5683 0)
(49.8613 11.617 0)
(49.8676 11.6621 0)
(49.8758 11.7041 0)
(49.8857 11.7434 0)
(49.8973 11.7802 0)
(49.9105 11.8151 0)
(49.9244 11.8492 0)
(49.9373 11.8832 0)
(49.9476 11.9171 0)
(49.9557 11.9496 0)
(49.9645 11.9782 0)
(49.978 12.0016 0)
(49.9978 12.0211 0)
(50.0212 12.0406 0)
(50.041 12.0648 0)
(50.0497 12.0967 0)
(50.0436 12.1361 0)
(50.025 12.1787 0)
(50.0026 12.217 0)
(49.991 12.2412 0)
(50.0067 12.2422 0)
(50.0628 12.2152 0)
(50.1607 12.1638 0)
(50.283 12.1023 0)
(50.3926 12.0546 0)
(50.4423 12.0485 0)
(50.3936 12.1066 0)
(50.2353 12.2367 0)
(49.9911 12.426 0)
(49.7102 12.6451 0)
(49.4494 12.8535 0)
(49.2586 13.0194 0)
(49.1687 13.101 0)
(49.2136 13.1164 0)
(49.3097 12.9791 0)
(49.9764 12.6124 0)
(49.7696 11.0682 0)
(49.7903 11.1364 0)
(49.8092 11.2037 0)
(49.825 11.2702 0)
(49.8369 11.3354 0)
(49.845 11.3987 0)
(49.8501 11.459 0)
(49.8537 11.5156 0)
(49.8572 11.5683 0)
(49.8618 11.6169 0)
(49.8682 11.6621 0)
(49.8764 11.7041 0)
(49.8865 11.7433 0)
(49.8982 11.7801 0)
(49.9114 11.8151 0)
(49.9253 11.8491 0)
(49.9381 11.8831 0)
(49.9484 11.9171 0)
(49.9564 11.9495 0)
(49.9652 11.9781 0)
(49.9788 12.0015 0)
(49.9988 12.0211 0)
(50.022 12.0406 0)
(50.0413 12.0647 0)
(50.0494 12.0967 0)
(50.0426 12.1361 0)
(50.0235 12.1788 0)
(50.0013 12.217 0)
(49.9906 12.2412 0)
(50.0078 12.2422 0)
(50.0655 12.2151 0)
(50.1644 12.1636 0)
(50.2862 12.1021 0)
(50.393 12.0545 0)
(50.4377 12.0485 0)
(50.3828 12.1068 0)
(50.2192 12.2369 0)
(49.9719 12.4262 0)
(49.6911 12.6454 0)
(49.4334 12.8537 0)
(49.2481 13.0195 0)
(49.1653 13.101 0)
(49.217 13.1164 0)
(49.3222 12.9788 0)
(49.9921 12.6122 0)
(49.7507 10.9979 0)
(49.7716 11.0678 0)
(49.7922 11.1361 0)
(49.8109 11.2035 0)
(49.8265 11.27 0)
(49.8382 11.3353 0)
(49.846 11.3986 0)
(49.8508 11.459 0)
(49.8542 11.5156 0)
(49.8577 11.5682 0)
(49.8623 11.6169 0)
(49.8688 11.662 0)
(49.8771 11.704 0)
(49.8872 11.7432 0)
(49.899 11.7801 0)
(49.9123 11.815 0)
(49.9262 11.849 0)
(49.9389 11.883 0)
(49.9491 11.917 0)
(49.957 11.9495 0)
(49.9658 11.9781 0)
(49.9796 12.0015 0)
(49.9997 12.021 0)
(50.0227 12.0405 0)
(50.0416 12.0647 0)
(50.049 12.0967 0)
(50.0414 12.1361 0)
(50.022 12.1788 0)
(50 12.217 0)
(49.9902 12.2412 0)
(50.0089 12.2421 0)
(50.0683 12.215 0)
(50.1682 12.1634 0)
(50.2892 12.1019 0)
(50.3931 12.0543 0)
(50.4327 12.0485 0)
(50.3718 12.1069 0)
(50.2028 12.2371 0)
(49.9526 12.4265 0)
(49.6721 12.6457 0)
(49.4177 12.8539 0)
(49.238 13.0196 0)
(49.1624 13.101 0)
(49.2209 13.1163 0)
(49.3352 12.9786 0)
(50.008 12.612 0)
(49.7324 10.9249 0)
(49.7527 10.9976 0)
(49.7736 11.0676 0)
(49.794 11.1359 0)
(49.8127 11.2032 0)
(49.828 11.2699 0)
(49.8394 11.3352 0)
(49.8469 11.3986 0)
(49.8515 11.4589 0)
(49.8548 11.5156 0)
(49.8581 11.5682 0)
(49.8628 11.6169 0)
(49.8693 11.662 0)
(49.8777 11.7039 0)
(49.888 11.7432 0)
(49.8999 11.78 0)
(49.9132 11.8149 0)
(49.9271 11.849 0)
(49.9397 11.883 0)
(49.9498 11.917 0)
(49.9576 11.9495 0)
(49.9665 11.978 0)
(49.9804 12.0014 0)
(50.0006 12.0209 0)
(50.0235 12.0404 0)
(50.0419 12.0647 0)
(50.0485 12.0967 0)
(50.0403 12.1362 0)
(50.0204 12.1789 0)
(49.9987 12.2171 0)
(49.9899 12.2412 0)
(50.0101 12.242 0)
(50.0711 12.2148 0)
(50.1719 12.1632 0)
(50.2921 12.1017 0)
(50.3929 12.0542 0)
(50.4273 12.0485 0)
(50.3603 12.107 0)
(50.1862 12.2373 0)
(49.9333 12.4268 0)
(49.6532 12.6459 0)
(49.4024 12.8541 0)
(49.2283 13.0197 0)
(49.16 13.101 0)
(49.2254 13.1163 0)
(49.3487 12.9783 0)
(50.0242 12.6118 0)
(49.7152 10.8481 0)
(49.7344 10.9246 0)
(49.7546 10.9973 0)
(49.7755 11.0673 0)
(49.7959 11.1356 0)
(49.8143 11.2031 0)
(49.8295 11.2697 0)
(49.8405 11.3352 0)
(49.8478 11.3985 0)
(49.8521 11.4589 0)
(49.8552 11.5155 0)
(49.8586 11.5682 0)
(49.8633 11.6168 0)
(49.8699 11.6619 0)
(49.8784 11.7039 0)
(49.8887 11.7431 0)
(49.9007 11.7799 0)
(49.9141 11.8149 0)
(49.928 11.8489 0)
(49.9406 11.8829 0)
(49.9504 11.917 0)
(49.9582 11.9494 0)
(49.9672 11.978 0)
(49.9812 12.0014 0)
(50.0014 12.0208 0)
(50.0242 12.0404 0)
(50.0421 12.0646 0)
(50.048 12.0967 0)
(50.0391 12.1362 0)
(50.0189 12.1789 0)
(49.9974 12.2171 0)
(49.9896 12.2412 0)
(50.0114 12.242 0)
(50.074 12.2147 0)
(50.1756 12.1631 0)
(50.2949 12.1016 0)
(50.3925 12.0542 0)
(50.4216 12.0486 0)
(50.3486 12.1071 0)
(50.1694 12.2375 0)
(49.9139 12.427 0)
(49.6345 12.6461 0)
(49.3873 12.8543 0)
(49.2191 13.0198 0)
(49.1581 13.101 0)
(49.2304 13.1162 0)
(49.3629 12.9781 0)
(50.0408 12.6115 0)
(49.6989 10.7665 0)
(49.7171 10.8478 0)
(49.7363 10.9243 0)
(49.7565 10.997 0)
(49.7774 11.067 0)
(49.7977 11.1354 0)
(49.816 11.2029 0)
(49.8309 11.2696 0)
(49.8417 11.3351 0)
(49.8486 11.3985 0)
(49.8528 11.4589 0)
(49.8557 11.5155 0)
(49.859 11.5681 0)
(49.8637 11.6168 0)
(49.8704 11.6619 0)
(49.8791 11.7038 0)
(49.8895 11.7431 0)
(49.9015 11.7799 0)
(49.915 11.8148 0)
(49.9288 11.8488 0)
(49.9414 11.8829 0)
(49.9511 11.9169 0)
(49.9588 11.9494 0)
(49.9678 11.978 0)
(49.982 12.0013 0)
(50.0023 12.0208 0)
(50.0249 12.0403 0)
(50.0423 12.0646 0)
(50.0474 12.0967 0)
(50.0378 12.1362 0)
(50.0173 12.1789 0)
(49.9962 12.2171 0)
(49.9893 12.2412 0)
(50.0127 12.2419 0)
(50.0769 12.2146 0)
(50.1792 12.1629 0)
(50.2976 12.1014 0)
(50.3918 12.0541 0)
(50.4156 12.0486 0)
(50.3365 12.1073 0)
(50.1523 12.2377 0)
(49.8945 12.4272 0)
(49.6159 12.6463 0)
(49.3726 12.8544 0)
(49.2103 13.0199 0)
(49.1567 13.101 0)
(49.2359 13.1162 0)
(49.3776 12.9778 0)
(50.0576 12.6113 0)
(49.6831 10.6796 0)
(49.7008 10.7662 0)
(49.719 10.8475 0)
(49.7382 10.9241 0)
(49.7584 10.9968 0)
(49.7792 11.0668 0)
(49.7995 11.1352 0)
(49.8176 11.2027 0)
(49.8323 11.2695 0)
(49.8427 11.335 0)
(49.8494 11.3984 0)
(49.8533 11.4588 0)
(49.8562 11.5155 0)
(49.8594 11.5681 0)
(49.8642 11.6168 0)
(49.871 11.6618 0)
(49.8797 11.7038 0)
(49.8902 11.743 0)
(49.9024 11.7798 0)
(49.9159 11.8147 0)
(49.9297 11.8488 0)
(49.9421 11.8829 0)
(49.9518 11.9169 0)