/*--------------------------------*- C++ -*----------------------------------*\
  =========                 |
  \\      /  F ield         | OpenFOAM: The Open Source CFD Toolbox
   \\    /   O peration     | Website:  https://openfoam.org
    \\  /    A nd           | Version:  7
     \\/     M anipulation  |
\*---------------------------------------------------------------------------*/
FoamFile
{
    version     2.0;
    format      ascii;
    class       volScalarField;
    location    "1000";
    object      yPlus;
}
// * * * * * * * * * * * * * * * * * * * * * * * * * * * * * * * * * * * * * //

dimensions      [0 0 0 0 0 0 0];

internalField   uniform 0;

boundaryField
{
    inlet-l
    {
        type            calculated;
        value           nonuniform 0();
    }
    airfoil-l1
    {
        type            calculated;
        value           nonuniform 0();
    }
    empty-1
    {
        type            empty;
    }
    empty-2
    {
        type            empty;
    }
    wall-l1
    {
        type            calculated;
        value           nonuniform 0();
    }
    airfoil-l2
    {
        type            calculated;
        value           nonuniform 0();
    }
    empty-3
    {
        type            empty;
    }
    empty-4
    {
        type            empty;
    }
    wall-l2
    {
        type            calculated;
        value           nonuniform 0();
    }
    outlet-l
    {
        type            calculated;
        value           uniform 0;
    }
    empty-5
    {
        type            empty;
    }
    empty-6
    {
        type            empty;
    }
    outlet-h
    {
        type            calculated;
        value           uniform 0;
    }
    wall-h2
    {
        type            calculated;
        value           nonuniform List<scalar> 
74
(
139.785
139.865
139.959
140.051
140.149
140.258
140.378
140.507
140.647
140.798
140.96
141.134
141.321
141.52
141.732
141.957
142.196
142.45
142.714
142.994
143.289
143.6
143.926
144.268
144.625
144.999
145.388
145.793
146.214
146.651
147.102
147.57
148.052
148.548
149.059
149.582
150.118
150.665
151.224
151.792
152.369
152.953
153.544
154.14
154.739
155.341
155.943
156.544
157.142
157.735
158.322
158.9
159.468
160.023
160.564
161.088
161.592
162.076
162.535
162.968
163.371
163.742
164.077
164.372
164.622
164.821
164.961
165.031
165.013
164.891
164.609
164.25
163.29
164.536
)
;
    }
    empty-7
    {
        type            empty;
    }
    empty-8
    {
        type            empty;
    }
    airfoil-h2
    {
        type            calculated;
        value           nonuniform List<scalar> 
34
(
22.7423
22.4921
22.2353
21.9684
21.6876
21.3962
21.0902
20.7657
20.4233
20.0596
19.6784
19.2771
18.8489
18.3983
17.9264
17.437
16.9315
16.4132
15.8846
15.3496
14.814
14.2803
13.7903
13.396
13.2203
13.2577
13.5817
13.9974
14.5615
14.6306
14.4185
12.3683
10.9611
3.24786
)
;
    }
    wall-h1
    {
        type            calculated;
        value           nonuniform List<scalar> 
34
(
140.001
140.006
140.002
140.007
140
140.004
139.998
140
139.994
139.994
139.986
139.987
139.978
139.977
139.967
139.964
139.954
139.952
139.939
139.934
139.923
139.911
139.905
139.89
139.886
139.87
139.861
139.846
139.837
139.821
139.811
139.792
139.782
139.761
)
;
    }
    empty-9
    {
        type            empty;
    }
    empty-10
    {
        type            empty;
    }
    inlet-h
    {
        type            calculated;
        value           nonuniform 0();
    }
    airfoil-h1
    {
        type            calculated;
        value           nonuniform 0();
    }
    empty-11
    {
        type            empty;
    }
    empty-12
    {
        type            empty;
    }
    procBoundary2to1
    {
        type            processor;
        value           uniform 0;
    }
    procBoundary2to3
    {
        type            processor;
        value           uniform 0;
    }
}


// ************************************************************************* //
