/*--------------------------------*- C++ -*----------------------------------*\
  =========                 |
  \\      /  F ield         | OpenFOAM: The Open Source CFD Toolbox
   \\    /   O peration     | Website:  https://openfoam.org
    \\  /    A nd           | Version:  7
     \\/     M anipulation  |
\*---------------------------------------------------------------------------*/
FoamFile
{
    version     2.0;
    format      ascii;
    class       volScalarField;
    location    "1200";
    object      nut;
}
// * * * * * * * * * * * * * * * * * * * * * * * * * * * * * * * * * * * * * //

dimensions      [0 2 -1 0 0 0 0];

internalField   nonuniform List<scalar> 
23023
(
5.24541e-06
5.24733e-06
5.24551e-06
5.24659e-06
5.24747e-06
5.2456e-06
5.24391e-06
5.24686e-06
5.2476e-06
5.24571e-06
5.24408e-06
5.24714e-06
5.24773e-06
5.24581e-06
5.24312e-06
5.24426e-06
5.24744e-06
5.24785e-06
5.24593e-06
5.24566e-06
5.2431e-06
5.24446e-06
5.24774e-06
5.24796e-06
5.24605e-06
5.24767e-06
5.24555e-06
5.2431e-06
5.24468e-06
5.24804e-06
5.24805e-06
5.24618e-06
5.24814e-06
5.24772e-06
5.24542e-06
5.24311e-06
5.24492e-06
5.24836e-06
5.24814e-06
5.24631e-06
5.24794e-06
5.24827e-06
5.24776e-06
5.24528e-06
5.24314e-06
5.24517e-06
5.24868e-06
5.24821e-06
5.24645e-06
5.24771e-06
5.24808e-06
5.24838e-06
5.24778e-06
5.24512e-06
5.24318e-06
5.24544e-06
5.249e-06
5.24827e-06
5.2466e-06
5.24785e-06
5.24822e-06
5.24849e-06
5.2478e-06
5.24495e-06
5.24323e-06
5.24572e-06
5.24933e-06
5.24831e-06
5.24676e-06
5.24796e-06
5.24798e-06
5.24835e-06
5.2486e-06
5.24779e-06
5.24477e-06
5.24331e-06
5.24603e-06
5.24966e-06
5.24834e-06
5.24693e-06
5.24847e-06
5.24809e-06
5.24811e-06
5.24848e-06
5.2487e-06
5.24778e-06
5.24458e-06
5.2434e-06
5.24634e-06
5.24999e-06
5.24835e-06
5.2471e-06
5.24918e-06
5.24862e-06
5.24822e-06
5.24823e-06
5.24861e-06
5.24879e-06
5.24775e-06
5.24438e-06
5.2435e-06
5.24668e-06
5.25033e-06
5.24835e-06
5.24729e-06
5.24984e-06
5.24938e-06
5.24877e-06
5.24834e-06
5.24835e-06
5.24873e-06
5.24887e-06
5.2477e-06
5.24417e-06
5.24363e-06
5.24702e-06
5.25065e-06
5.24833e-06
5.24749e-06
5.2501e-06
5.24958e-06
5.24892e-06
5.24846e-06
5.24847e-06
5.24884e-06
5.24895e-06
5.24764e-06
5.24397e-06
5.24377e-06
5.24738e-06
5.25098e-06
5.24829e-06
5.2477e-06
5.25059e-06
5.25035e-06
5.24976e-06
5.24905e-06
5.24857e-06
5.24858e-06
5.24895e-06
5.24901e-06
5.24755e-06
5.24377e-06
5.24394e-06
5.24776e-06
5.2513e-06
5.24824e-06
5.24792e-06
5.25081e-06
5.25091e-06
5.2506e-06
5.24994e-06
5.24918e-06
5.24867e-06
5.24868e-06
5.24906e-06
5.24907e-06
5.24745e-06
5.24357e-06
5.24413e-06
5.24815e-06
5.25161e-06
5.24818e-06
5.24816e-06
5.25118e-06
5.25122e-06
5.25084e-06
5.25012e-06
5.2493e-06
5.24877e-06
5.24878e-06
5.24915e-06
5.24912e-06
5.24734e-06
5.24339e-06
5.24435e-06
5.24855e-06
5.25192e-06
5.2481e-06
5.24842e-06
5.25118e-06
5.25154e-06
5.25152e-06
5.25107e-06
5.25028e-06
5.24941e-06
5.24886e-06
5.24888e-06
5.24925e-06
5.24916e-06
5.2472e-06
5.24322e-06
5.24459e-06
5.24896e-06
5.25221e-06
5.24801e-06
5.24869e-06
5.25096e-06
5.2516e-06
5.2519e-06
5.25182e-06
5.2513e-06
5.25043e-06
5.24952e-06
5.24895e-06
5.24897e-06
5.24934e-06
5.24918e-06
5.24704e-06
5.24308e-06
5.24485e-06
5.24938e-06
5.2525e-06
5.24791e-06
5.24897e-06
5.2505e-06
5.25142e-06
5.25201e-06
5.25226e-06
5.25211e-06
5.25151e-06
5.25058e-06
5.24961e-06
5.24903e-06
5.24906e-06
5.24942e-06
5.2492e-06
5.24687e-06
5.24297e-06
5.24513e-06
5.24982e-06
5.25277e-06
5.24781e-06
5.24928e-06
5.24975e-06
5.25101e-06
5.25189e-06
5.25242e-06
5.25261e-06
5.25239e-06
5.25172e-06
5.25072e-06
5.2497e-06
5.2491e-06
5.24914e-06
5.24949e-06
5.2492e-06
5.24668e-06
5.24289e-06
5.24544e-06
5.25026e-06
5.25302e-06
5.24771e-06
5.2496e-06
5.2503e-06
5.25151e-06
5.25235e-06
5.25283e-06
5.25296e-06
5.25266e-06
5.25192e-06
5.25084e-06
5.24978e-06
5.24917e-06
5.24921e-06
5.24956e-06
5.24919e-06
5.24647e-06
5.24285e-06
5.24578e-06
5.25071e-06
5.25326e-06
5.24761e-06
5.24994e-06
5.24926e-06
5.25085e-06
5.25202e-06
5.25281e-06
5.25324e-06
5.2533e-06
5.25293e-06
5.25211e-06
5.25096e-06
5.24985e-06
5.24923e-06
5.24928e-06
5.24962e-06
5.24916e-06
5.24624e-06
5.24284e-06
5.24614e-06
5.25116e-06
5.25348e-06
5.24752e-06
5.25031e-06
5.24789e-06
5.24983e-06
5.2514e-06
5.25254e-06
5.25327e-06
5.25364e-06
5.25363e-06
5.25319e-06
5.25228e-06
5.25106e-06
5.24991e-06
5.24928e-06
5.24935e-06
5.24968e-06
5.24912e-06
5.246e-06
5.24286e-06
5.24652e-06
5.25162e-06
5.25367e-06
5.24745e-06
5.25069e-06
5.24848e-06
5.25042e-06
5.25196e-06
5.25305e-06
5.25373e-06
5.25403e-06
5.25396e-06
5.25344e-06
5.25245e-06
5.25116e-06
5.24996e-06
5.24932e-06
5.24941e-06
5.24973e-06
5.24907e-06
5.24574e-06
5.24292e-06
5.24692e-06
5.25208e-06
5.25385e-06
5.2474e-06
5.25109e-06
5.24683e-06
5.24908e-06
5.25101e-06
5.25252e-06
5.25356e-06
5.25418e-06
5.25442e-06
5.25427e-06
5.25368e-06
5.25261e-06
5.25124e-06
5.25001e-06
5.24936e-06
5.24946e-06
5.24976e-06
5.249e-06
5.24547e-06
5.243e-06
5.24734e-06
5.25255e-06
5.254e-06
5.24737e-06
5.25152e-06
5.245e-06
5.24743e-06
5.24969e-06
5.25161e-06
5.25308e-06
5.25407e-06
5.25463e-06
5.2548e-06
5.25458e-06
5.25391e-06
5.25275e-06
5.25132e-06
5.25004e-06
5.2494e-06
5.24951e-06
5.2498e-06
5.24891e-06
5.24519e-06
5.24311e-06
5.24778e-06
5.25301e-06
5.25413e-06
5.24739e-06
5.25196e-06
5.24559e-06
5.24805e-06
5.25031e-06
5.25221e-06
5.25365e-06
5.25458e-06
5.25508e-06
5.25518e-06
5.25488e-06
5.25412e-06
5.25289e-06
5.25138e-06
5.25007e-06
5.24942e-06
5.24955e-06
5.24982e-06
5.24881e-06
5.24491e-06
5.24325e-06
5.24825e-06
5.25348e-06
5.25423e-06
5.24745e-06
5.25243e-06
5.24369e-06
5.2462e-06
5.24868e-06
5.25094e-06
5.25283e-06
5.25422e-06
5.25509e-06
5.25552e-06
5.25555e-06
5.25518e-06
5.25433e-06
5.25301e-06
5.25143e-06
5.25008e-06
5.24944e-06
5.24959e-06
5.24983e-06
5.24869e-06
5.24461e-06
5.24341e-06
5.24873e-06
5.25394e-06
5.25431e-06
5.24757e-06
5.25291e-06
5.24183e-06
5.24428e-06
5.24682e-06
5.24932e-06
5.25158e-06
5.25344e-06
5.25478e-06
5.2556e-06
5.25595e-06
5.25591e-06
5.25546e-06
5.25453e-06
5.25312e-06
5.25147e-06
5.25009e-06
5.24946e-06
5.24962e-06
5.24983e-06
5.24855e-06
5.24432e-06
5.24361e-06
5.24923e-06
5.25439e-06
5.25436e-06
5.24773e-06
5.25341e-06
5.2424e-06
5.24488e-06
5.24746e-06
5.24997e-06
5.25223e-06
5.25406e-06
5.25535e-06
5.2561e-06
5.25638e-06
5.25626e-06
5.25573e-06
5.25471e-06
5.25321e-06
5.2515e-06
5.25009e-06
5.24947e-06
5.24964e-06
5.24983e-06
5.2484e-06
5.24402e-06
5.24383e-06
5.24974e-06
5.25485e-06
5.25437e-06
5.24795e-06
5.25394e-06
5.24065e-06
5.24298e-06
5.24551e-06
5.24811e-06
5.25064e-06
5.25289e-06
5.25468e-06
5.25592e-06
5.2566e-06
5.2568e-06
5.2566e-06
5.25599e-06
5.25488e-06
5.2533e-06
5.25152e-06
5.25008e-06
5.24947e-06
5.24966e-06
5.24981e-06
5.24822e-06
5.24373e-06
5.24408e-06
5.25027e-06
5.25529e-06
5.25436e-06
5.24822e-06
5.25447e-06
5.23905e-06
5.24121e-06
5.24359e-06
5.24615e-06
5.24878e-06
5.25132e-06
5.25356e-06
5.25531e-06
5.25648e-06
5.25709e-06
5.25721e-06
5.25693e-06
5.25624e-06
5.25504e-06
5.25337e-06
5.25152e-06
5.25006e-06
5.24946e-06
5.24967e-06
5.24978e-06
5.24803e-06
5.24346e-06
5.24436e-06
5.25081e-06
5.25572e-06
5.25432e-06
5.24853e-06
5.25503e-06
5.23958e-06
5.24179e-06
5.24421e-06
5.24681e-06
5.24946e-06
5.25201e-06
5.25423e-06
5.25594e-06
5.25705e-06
5.25757e-06
5.25762e-06
5.25726e-06
5.25647e-06
5.25518e-06
5.25343e-06
5.25152e-06
5.25003e-06
5.24945e-06
5.24968e-06
5.24974e-06
5.24781e-06
5.2432e-06
5.24468e-06
5.25137e-06
5.25615e-06
5.25424e-06
5.24888e-06
5.2556e-06
5.23807e-06
5.24012e-06
5.24238e-06
5.24485e-06
5.24748e-06
5.25016e-06
5.25271e-06
5.2549e-06
5.25657e-06
5.25761e-06
5.25805e-06
5.25801e-06
5.25757e-06
5.2567e-06
5.25532e-06
5.25347e-06
5.2515e-06
5.25e-06
5.24943e-06
5.24968e-06
5.24969e-06
5.24758e-06
5.24296e-06
5.24502e-06
5.25194e-06
5.25656e-06
5.25414e-06
5.24927e-06
5.25618e-06
5.23671e-06
5.23857e-06
5.24069e-06
5.243e-06
5.24551e-06
5.24817e-06
5.25087e-06
5.25341e-06
5.25558e-06
5.25719e-06
5.25816e-06
5.25852e-06
5.2584e-06
5.25787e-06
5.25691e-06
5.25543e-06
5.2535e-06
5.25147e-06
5.24995e-06
5.24941e-06
5.24967e-06
5.24963e-06
5.24733e-06
5.24275e-06
5.24539e-06
5.25252e-06
5.25696e-06
5.254e-06
5.2497e-06
5.25677e-06
5.23562e-06
5.23714e-06
5.23909e-06
5.24127e-06
5.24364e-06
5.24619e-06
5.24888e-06
5.25159e-06
5.25413e-06
5.25627e-06
5.25782e-06
5.25871e-06
5.25899e-06
5.25877e-06
5.25816e-06
5.25711e-06
5.25554e-06
5.25352e-06
5.25143e-06
5.2499e-06
5.24938e-06
5.24965e-06
5.24955e-06
5.24707e-06
5.24258e-06
5.24579e-06
5.2531e-06
5.25734e-06
5.25383e-06
5.25016e-06
5.25738e-06
5.23518e-06
5.23595e-06
5.2376e-06
5.23963e-06
5.24188e-06
5.24429e-06
5.24688e-06
5.2496e-06
5.25233e-06
5.25485e-06
5.25696e-06
5.25845e-06
5.25925e-06
5.25944e-06
5.25914e-06
5.25843e-06
5.25729e-06
5.25563e-06
5.25352e-06
5.25138e-06
5.24984e-06
5.24934e-06
5.24963e-06
5.24946e-06
5.24678e-06
5.24244e-06
5.24622e-06
5.2537e-06
5.2577e-06
5.25364e-06
5.25067e-06
5.258e-06
5.23596e-06
5.23535e-06
5.2363e-06
5.23807e-06
5.2402e-06
5.2425e-06
5.24497e-06
5.24759e-06
5.25034e-06
5.25307e-06
5.25558e-06
5.25765e-06
5.25907e-06
5.25979e-06
5.25988e-06
5.25949e-06
5.2587e-06
5.25746e-06
5.2557e-06
5.25351e-06
5.25132e-06
5.24977e-06
5.2493e-06
5.2496e-06
5.24936e-06
5.24648e-06
5.24236e-06
5.24668e-06
5.2543e-06
5.25804e-06
5.25341e-06
5.2512e-06
5.25862e-06
5.23741e-06
5.23598e-06
5.23555e-06
5.23668e-06
5.23857e-06
5.24078e-06
5.24315e-06
5.24566e-06
5.24832e-06
5.25109e-06
5.25383e-06
5.25632e-06
5.25834e-06
5.25969e-06
5.26032e-06
5.26032e-06
5.25983e-06
5.25895e-06
5.25762e-06
5.25576e-06
5.25349e-06
5.25124e-06
5.24969e-06
5.24926e-06
5.24957e-06
5.24924e-06
5.24617e-06
5.24233e-06
5.24717e-06
5.2549e-06
5.25836e-06
5.25316e-06
5.25178e-06
5.25925e-06
5.23744e-06
5.23601e-06
5.23578e-06
5.23709e-06
5.2391e-06
5.24139e-06
5.24382e-06
5.24637e-06
5.24906e-06
5.25185e-06
5.25459e-06
5.25706e-06
5.25903e-06
5.2603e-06
5.26084e-06
5.26074e-06
5.26016e-06
5.25918e-06
5.25776e-06
5.25581e-06
5.25345e-06
5.25116e-06
5.24961e-06
5.2492e-06
5.24952e-06
5.24911e-06
5.24584e-06
5.24236e-06
5.24768e-06
5.25551e-06
5.25865e-06
5.25287e-06
5.25239e-06
5.25988e-06
5.2388e-06
5.23746e-06
5.23605e-06
5.23604e-06
5.23752e-06
5.23965e-06
5.24202e-06
5.2445e-06
5.2471e-06
5.24982e-06
5.25263e-06
5.25537e-06
5.25781e-06
5.25972e-06
5.26091e-06
5.26136e-06
5.26116e-06
5.26048e-06
5.25941e-06
5.25789e-06
5.25584e-06
5.2534e-06
5.25106e-06
5.24952e-06
5.24914e-06
5.24947e-06
5.24896e-06
5.2455e-06
5.24243e-06
5.24822e-06
5.25612e-06
5.25892e-06
5.25257e-06
5.25304e-06
5.26052e-06
5.23976e-06
5.23888e-06
5.23747e-06
5.23611e-06
5.23633e-06
5.23798e-06
5.24022e-06
5.24267e-06
5.24521e-06
5.24784e-06
5.25059e-06
5.25341e-06
5.25615e-06
5.25856e-06
5.26041e-06
5.26152e-06
5.26186e-06
5.26156e-06
5.26078e-06
5.25962e-06
5.258e-06
5.25586e-06
5.25333e-06
5.25095e-06
5.24942e-06
5.24908e-06
5.24941e-06
5.24879e-06
5.24515e-06
5.24254e-06
5.24879e-06
5.25673e-06
5.25917e-06
5.25224e-06
5.25373e-06
5.26116e-06
5.23991e-06
5.23896e-06
5.23748e-06
5.23619e-06
5.23665e-06
5.23846e-06
5.24081e-06
5.24334e-06
5.24593e-06
5.2486e-06
5.25138e-06
5.25421e-06
5.25694e-06
5.25932e-06
5.2611e-06
5.26212e-06
5.26235e-06
5.26194e-06
5.26107e-06
5.25981e-06
5.2581e-06
5.25586e-06
5.25325e-06
5.25083e-06
5.24931e-06
5.24901e-06
5.24934e-06
5.24861e-06
5.2448e-06
5.2427e-06
5.24938e-06
5.25734e-06
5.25938e-06
5.2519e-06
5.25446e-06
5.2618e-06
5.24054e-06
5.24006e-06
5.23903e-06
5.23748e-06
5.23629e-06
5.23699e-06
5.23897e-06
5.24143e-06
5.24403e-06
5.24667e-06
5.24938e-06
5.25218e-06
5.25502e-06
5.25773e-06
5.26007e-06
5.26178e-06
5.26271e-06
5.26284e-06
5.26232e-06
5.26134e-06
5.25999e-06
5.25818e-06
5.25584e-06
5.25316e-06
5.25071e-06
5.2492e-06
5.24893e-06
5.24926e-06
5.24841e-06
5.24444e-06
5.2429e-06
5.24999e-06
5.25795e-06
5.25956e-06
5.25154e-06
5.25523e-06
5.26244e-06
5.24087e-06
5.24073e-06
5.2402e-06
5.23908e-06
5.23748e-06
5.23643e-06
5.23737e-06
5.23951e-06
5.24208e-06
5.24474e-06
5.24743e-06
5.25017e-06
5.253e-06
5.25584e-06
5.25854e-06
5.26083e-06
5.26246e-06
5.26329e-06
5.26331e-06
5.26268e-06
5.2616e-06
5.26015e-06
5.25824e-06
5.25581e-06
5.25305e-06
5.25057e-06
5.24907e-06
5.24885e-06
5.24918e-06
5.2482e-06
5.24409e-06
5.24315e-06
5.25062e-06
5.25855e-06
5.25972e-06
5.25117e-06
5.25604e-06
5.26308e-06
5.24108e-06
5.24108e-06
5.24092e-06
5.24033e-06
5.23912e-06
5.23748e-06
5.2366e-06
5.23778e-06
5.24008e-06
5.24274e-06
5.24548e-06
5.24821e-06
5.25098e-06
5.25382e-06
5.25667e-06
5.25934e-06
5.26158e-06
5.26314e-06
5.26386e-06
5.26377e-06
5.26303e-06
5.26185e-06
5.2603e-06
5.25829e-06
5.25576e-06
5.25293e-06
5.25042e-06
5.24895e-06
5.24876e-06
5.24908e-06
5.24797e-06
5.24374e-06
5.24343e-06
5.25127e-06
5.25914e-06
5.25983e-06
5.2508e-06
5.25689e-06
5.26371e-06
5.24137e-06
5.24128e-06
5.2413e-06
5.24111e-06
5.24045e-06
5.23915e-06
5.23748e-06
5.23681e-06
5.23822e-06
5.24067e-06
5.24343e-06
5.24623e-06
5.249e-06
5.2518e-06
5.25466e-06
5.25751e-06
5.26016e-06
5.26234e-06
5.26381e-06
5.26442e-06
5.26421e-06
5.26336e-06
5.26208e-06
5.26043e-06
5.25833e-06
5.2557e-06
5.2528e-06
5.25026e-06
5.24881e-06
5.24867e-06
5.24897e-06
5.24772e-06
5.2434e-06
5.24375e-06
5.25194e-06
5.25972e-06
5.25992e-06
5.25043e-06
5.25778e-06
5.26433e-06
5.24202e-06
5.24155e-06
5.2415e-06
5.24151e-06
5.24129e-06
5.24055e-06
5.23917e-06
5.23749e-06
5.23705e-06
5.2387e-06
5.24129e-06
5.24415e-06
5.247e-06
5.24981e-06
5.25264e-06
5.25551e-06
5.25835e-06
5.26097e-06
5.26309e-06
5.26447e-06
5.26497e-06
5.26464e-06
5.26368e-06
5.26229e-06
5.26054e-06
5.25834e-06
5.25562e-06
5.25265e-06
5.25009e-06
5.24867e-06
5.24857e-06
5.24885e-06
5.24746e-06
5.24307e-06
5.24411e-06
5.25263e-06
5.2603e-06
5.25996e-06
5.25007e-06
5.25871e-06
5.26494e-06
5.24332e-06
5.24213e-06
5.24173e-06
5.24172e-06
5.24173e-06
5.24146e-06
5.24065e-06
5.23918e-06
5.23751e-06
5.23733e-06
5.2392e-06
5.24193e-06
5.24488e-06
5.24779e-06
5.25064e-06
5.25349e-06
5.25637e-06
5.25921e-06
5.26179e-06
5.26385e-06
5.26513e-06
5.26551e-06
5.26506e-06
5.26398e-06
5.26249e-06
5.26064e-06
5.25834e-06
5.25553e-06
5.25249e-06
5.24991e-06
5.24853e-06
5.24846e-06
5.24872e-06
5.24718e-06
5.24276e-06
5.2445e-06
5.25333e-06
5.26086e-06
5.25997e-06
5.24973e-06
5.25969e-06
5.26555e-06
5.24534e-06
5.24336e-06
5.24225e-06
5.24192e-06
5.24194e-06
5.24195e-06
5.24163e-06
5.24074e-06
5.23918e-06
5.23754e-06
5.23765e-06
5.23974e-06
5.24261e-06
5.24564e-06
5.2486e-06
5.25149e-06
5.25435e-06
5.25724e-06
5.26006e-06
5.26261e-06
5.26459e-06
5.26578e-06
5.26604e-06
5.26546e-06
5.26426e-06
5.26267e-06
5.26072e-06
5.25832e-06
5.25542e-06
5.25231e-06
5.24972e-06
5.24837e-06
5.24835e-06
5.24858e-06
5.24688e-06
5.24248e-06
5.24493e-06
5.25404e-06
5.26141e-06
5.25994e-06
5.24941e-06
5.26071e-06
5.26614e-06
5.24711e-06
5.2454e-06
5.24341e-06
5.24239e-06
5.24211e-06
5.24216e-06
5.24216e-06
5.24179e-06
5.24081e-06
5.23918e-06
5.23759e-06
5.238e-06
5.2403e-06
5.24331e-06
5.24642e-06
5.24943e-06
5.25234e-06
5.25523e-06
5.25812e-06
5.26093e-06
5.26343e-06
5.26534e-06
5.26641e-06
5.26655e-06
5.26585e-06
5.26453e-06
5.26283e-06
5.26079e-06
5.25829e-06
5.25529e-06
5.25212e-06
5.24952e-06
5.24821e-06
5.24823e-06
5.24843e-06
5.24657e-06
5.24223e-06
5.2454e-06
5.25477e-06
5.26194e-06
5.25987e-06
5.24913e-06
5.26177e-06
5.26671e-06
5.24849e-06
5.24726e-06
5.24545e-06
5.24346e-06
5.24253e-06
5.24232e-06
5.24239e-06
5.24237e-06
5.24195e-06
5.24088e-06
5.23916e-06
5.23767e-06
5.23839e-06
5.2409e-06
5.24403e-06
5.24722e-06
5.25028e-06
5.25322e-06
5.25612e-06
5.25901e-06
5.26179e-06
5.26424e-06
5.26608e-06
5.26704e-06
5.26705e-06
5.26622e-06
5.26478e-06
5.26297e-06
5.26084e-06
5.25824e-06
5.25515e-06
5.25192e-06
5.24931e-06
5.24805e-06
5.24811e-06
5.24827e-06
5.24625e-06
5.24202e-06
5.2459e-06
5.2555e-06
5.26246e-06
5.25976e-06
5.24889e-06
5.26287e-06
5.26727e-06
5.24947e-06
5.24873e-06
5.24741e-06
5.24547e-06
5.24352e-06
5.24267e-06
5.24252e-06
5.24261e-06
5.24257e-06
5.24209e-06
5.24093e-06
5.23914e-06
5.23779e-06
5.23882e-06
5.24153e-06
5.24478e-06
5.24804e-06
5.25114e-06
5.2541e-06
5.25701e-06
5.2599e-06
5.26266e-06
5.26506e-06
5.26681e-06
5.26766e-06
5.26754e-06
5.26657e-06
5.26501e-06
5.2631e-06
5.26086e-06
5.25817e-06
5.25499e-06
5.25171e-06
5.2491e-06
5.24788e-06
5.24798e-06
5.24809e-06
5.24591e-06
5.24185e-06
5.24644e-06
5.25625e-06
5.26295e-06
5.25962e-06
5.2487e-06
5.26401e-06
5.26781e-06
5.25002e-06
5.24977e-06
5.24895e-06
5.24754e-06
5.24549e-06
5.24359e-06
5.24283e-06
5.24274e-06
5.24284e-06
5.24278e-06
5.24222e-06
5.24096e-06
5.23912e-06
5.23794e-06
5.23929e-06
5.24219e-06
5.24555e-06
5.24889e-06
5.25203e-06
5.255e-06
5.25792e-06
5.2608e-06
5.26354e-06
5.26588e-06
5.26753e-06
5.26826e-06
5.26801e-06
5.2669e-06
5.26523e-06
5.26321e-06
5.26088e-06
5.25808e-06
5.25481e-06
5.25148e-06
5.24888e-06
5.2477e-06
5.24784e-06
5.24791e-06
5.24556e-06
5.24174e-06
5.24701e-06
5.257e-06
5.26342e-06
5.25943e-06
5.24859e-06
5.26518e-06
5.26832e-06
5.25022e-06
5.25037e-06
5.25007e-06
5.24917e-06
5.24765e-06
5.24549e-06
5.24367e-06
5.243e-06
5.24296e-06
5.24307e-06
5.24297e-06
5.24235e-06
5.24099e-06
5.23911e-06
5.23813e-06
5.23979e-06
5.24288e-06
5.24635e-06
5.24975e-06
5.25292e-06
5.25592e-06
5.25884e-06
5.26171e-06
5.26441e-06
5.26669e-06
5.26825e-06
5.26886e-06
5.26846e-06
5.26722e-06
5.26543e-06
5.2633e-06
5.26087e-06
5.25798e-06
5.25462e-06
5.25124e-06
5.24864e-06
5.24752e-06
5.2477e-06
5.24771e-06
5.24521e-06
5.24168e-06
5.24762e-06
5.25776e-06
5.26387e-06
5.2592e-06
5.24855e-06
5.2664e-06
5.26882e-06
5.25019e-06
5.25059e-06
5.25072e-06
5.25036e-06
5.24938e-06
5.24775e-06
5.24548e-06
5.24375e-06
5.24317e-06
5.24318e-06
5.2433e-06
5.24316e-06
5.24246e-06
5.241e-06
5.23909e-06
5.23838e-06
5.24033e-06
5.2436e-06
5.24718e-06
5.25064e-06
5.25384e-06
5.25684e-06
5.25977e-06
5.26263e-06
5.26529e-06
5.2675e-06
5.26895e-06
5.26943e-06
5.2689e-06
5.26752e-06
5.2656e-06
5.26338e-06
5.26085e-06
5.25786e-06
5.25442e-06
5.25099e-06
5.2484e-06
5.24733e-06
5.24755e-06
5.2475e-06
5.24485e-06
5.24169e-06
5.24825e-06
5.25852e-06
5.2643e-06
5.25894e-06
5.2486e-06
5.26765e-06
5.26928e-06
5.25009e-06
5.25056e-06
5.25096e-06
5.25106e-06
5.25064e-06
5.24957e-06
5.24783e-06
5.24547e-06
5.24384e-06
5.24335e-06
5.24341e-06
5.24353e-06
5.24335e-06
5.24256e-06
5.241e-06
5.23909e-06
5.23866e-06
5.24091e-06
5.24434e-06
5.24803e-06
5.25154e-06
5.25476e-06
5.25778e-06
5.2607e-06
5.26354e-06
5.26617e-06
5.2683e-06
5.26965e-06
5.27e-06
5.26932e-06
5.2678e-06
5.26576e-06
5.26343e-06
5.2608e-06
5.25772e-06
5.2542e-06
5.25072e-06
5.24816e-06
5.24714e-06
5.24739e-06
5.24727e-06
5.24448e-06
5.24176e-06
5.24892e-06
5.25929e-06
5.26469e-06
5.25864e-06
5.24876e-06
5.26893e-06
5.26971e-06
5.25006e-06
5.25043e-06
5.25093e-06
5.25134e-06
5.2514e-06
5.25092e-06
5.24975e-06
5.2479e-06
5.24545e-06
5.24394e-06
5.24355e-06
5.24364e-06
5.24376e-06
5.24352e-06
5.24264e-06
5.24099e-06
5.2391e-06
5.239e-06
5.24152e-06
5.24512e-06
5.2489e-06
5.25246e-06
5.25571e-06
5.25873e-06
5.26164e-06
5.26446e-06
5.26704e-06
5.2691e-06
5.27034e-06
5.27055e-06
5.26972e-06
5.26806e-06
5.2659e-06
5.26347e-06
5.26074e-06
5.25756e-06
5.25396e-06
5.25045e-06
5.2479e-06
5.24695e-06
5.24723e-06
5.24703e-06
5.24411e-06
5.2419e-06
5.24961e-06
5.26005e-06
5.26506e-06
5.2583e-06
5.24903e-06
5.27022e-06
5.27011e-06
5.25023e-06
5.25037e-06
5.25078e-06
5.2513e-06
5.25171e-06
5.25174e-06
5.25119e-06
5.24992e-06
5.24794e-06
5.24544e-06
5.24405e-06
5.24375e-06
5.24388e-06
5.24398e-06
5.24369e-06
5.24271e-06
5.24097e-06
5.23913e-06
5.23938e-06
5.24217e-06
5.24593e-06
5.2498e-06
5.2534e-06
5.25666e-06
5.25968e-06
5.26259e-06
5.26539e-06
5.26791e-06
5.26989e-06
5.27101e-06
5.27108e-06
5.2701e-06
5.2683e-06
5.26602e-06
5.26349e-06
5.26067e-06
5.25739e-06
5.25371e-06
5.25016e-06
5.24764e-06
5.24674e-06
5.24706e-06
5.24678e-06
5.24374e-06
5.2421e-06
5.25033e-06
5.26082e-06
5.2654e-06
5.25793e-06
5.24938e-06
5.27154e-06
5.27048e-06
5.25052e-06
5.25069e-06
5.25113e-06
5.25168e-06
5.25209e-06
5.25208e-06
5.25145e-06
5.25008e-06
5.24797e-06
5.24544e-06
5.24418e-06
5.24395e-06
5.24412e-06
5.2442e-06
5.24385e-06
5.24277e-06
5.24094e-06
5.23918e-06
5.23981e-06
5.24286e-06
5.24677e-06
5.25072e-06
5.25436e-06
5.25763e-06
5.26065e-06
5.26354e-06
5.26631e-06
5.26879e-06
5.27067e-06
5.27167e-06
5.27159e-06
5.27046e-06
5.26852e-06
5.26613e-06
5.26349e-06
5.26057e-06
5.2572e-06
5.25344e-06
5.24986e-06
5.24737e-06
5.24654e-06
5.24688e-06
5.24652e-06
5.24338e-06
5.24235e-06
5.25108e-06
5.26158e-06
5.2657e-06
5.25753e-06
5.24984e-06
5.27287e-06
5.27082e-06
5.25093e-06
5.2508e-06
5.251e-06
5.25149e-06
5.25206e-06
5.25246e-06
5.25241e-06
5.2517e-06
5.25022e-06
5.24798e-06
5.24544e-06
5.24431e-06
5.24417e-06
5.24436e-06
5.24442e-06
5.244e-06
5.24281e-06
5.2409e-06
5.23927e-06
5.24028e-06
5.24358e-06
5.24763e-06
5.25166e-06
5.25533e-06
5.25861e-06
5.26163e-06
5.2645e-06
5.26724e-06
5.26965e-06
5.27145e-06
5.27232e-06
5.27209e-06
5.2708e-06
5.26872e-06
5.26621e-06
5.26347e-06
5.26045e-06
5.25699e-06
5.25316e-06
5.24955e-06
5.24709e-06
5.24633e-06
5.2467e-06
5.24625e-06
5.24303e-06
5.24266e-06
5.25185e-06
5.26233e-06
5.26596e-06
5.25711e-06
5.25037e-06
5.27422e-06
5.27113e-06
5.2512e-06
5.25108e-06
5.25133e-06
5.25185e-06
5.25245e-06
5.25284e-06
5.25274e-06
5.25194e-06
5.25035e-06
5.24797e-06
5.24547e-06
5.24446e-06
5.24439e-06
5.2446e-06
5.24463e-06
5.24413e-06
5.24284e-06
5.24087e-06
5.23939e-06
5.2408e-06
5.24433e-06
5.24852e-06
5.25262e-06
5.25632e-06
5.2596e-06
5.26261e-06
5.26547e-06
5.26817e-06
5.27051e-06
5.27221e-06
5.27295e-06
5.27257e-06
5.27112e-06
5.2689e-06
5.26627e-06
5.26343e-06
5.26032e-06
5.25676e-06
5.25286e-06
5.24924e-06
5.24681e-06
5.24611e-06
5.24651e-06
5.24597e-06
5.24269e-06
5.24303e-06
5.25264e-06
5.26307e-06
5.26619e-06
5.25667e-06
5.25099e-06
5.27557e-06
5.2714e-06
5.25187e-06
5.25146e-06
5.25137e-06
5.25166e-06
5.25222e-06
5.25284e-06
5.25322e-06
5.25306e-06
5.25216e-06
5.25046e-06
5.24794e-06
5.2455e-06
5.24462e-06
5.24462e-06
5.24484e-06
5.24484e-06
5.24425e-06
5.24286e-06
5.24083e-06
5.23956e-06
5.24136e-06
5.24512e-06
5.24944e-06
5.2536e-06
5.25733e-06
5.26061e-06
5.2636e-06
5.26643e-06
5.26909e-06
5.27137e-06
5.27296e-06
5.27357e-06
5.27303e-06
5.27142e-06
5.26906e-06
5.26631e-06
5.26337e-06
5.26017e-06
5.25652e-06
5.25255e-06
5.24891e-06
5.24653e-06
5.2459e-06
5.24631e-06
5.24567e-06
5.24237e-06
5.24344e-06
5.25344e-06
5.2638e-06
5.26638e-06
5.25621e-06
5.25167e-06
5.27693e-06
5.27163e-06
5.25213e-06
5.25172e-06
5.25166e-06
5.25199e-06
5.2526e-06
5.25324e-06
5.2536e-06
5.25338e-06
5.25238e-06
5.25055e-06
5.2479e-06
5.24555e-06
5.24479e-06
5.24486e-06
5.24508e-06
5.24503e-06
5.24436e-06
5.24286e-06
5.2408e-06
5.23978e-06
5.24196e-06
5.24595e-06
5.25039e-06
5.25461e-06
5.25835e-06
5.26162e-06
5.26459e-06
5.2674e-06
5.27001e-06
5.27222e-06
5.2737e-06
5.27417e-06
5.27347e-06
5.2717e-06
5.2692e-06
5.26633e-06
5.26329e-06
5.25999e-06
5.25626e-06
5.25222e-06
5.24857e-06
5.24624e-06
5.24567e-06
5.2461e-06
5.24537e-06
5.24207e-06
5.24389e-06
5.25426e-06
5.26452e-06
5.26654e-06
5.25574e-06
5.25242e-06
5.27828e-06
5.27183e-06
5.25239e-06
5.25198e-06
5.25196e-06
5.25233e-06
5.25298e-06
5.25364e-06
5.25397e-06
5.25369e-06
5.25258e-06
5.25063e-06
5.24785e-06
5.24561e-06
5.24497e-06
5.2451e-06
5.24532e-06
5.24522e-06
5.24446e-06
5.24285e-06
5.24077e-06
5.24007e-06
5.24261e-06
5.2468e-06
5.25136e-06
5.25563e-06
5.25938e-06
5.26264e-06
5.26559e-06
5.26837e-06
5.27094e-06
5.27306e-06
5.27443e-06
5.27475e-06
5.27389e-06
5.27196e-06
5.26931e-06
5.26632e-06
5.26319e-06
5.2598e-06
5.25598e-06
5.25188e-06
5.24822e-06
5.24594e-06
5.24545e-06
5.24589e-06
5.24505e-06
5.24181e-06
5.24439e-06
5.2551e-06
5.26522e-06
5.26665e-06
5.25527e-06
5.25323e-06
5.27964e-06
5.27199e-06
5.25264e-06
5.25225e-06
5.25225e-06
5.25268e-06
5.25337e-06
5.25404e-06
5.25435e-06
5.25399e-06
5.25278e-06
5.25068e-06
5.24778e-06
5.24568e-06
5.24517e-06
5.24534e-06
5.24556e-06
5.2454e-06
5.24454e-06
5.24283e-06
5.24076e-06
5.24041e-06
5.24331e-06
5.24769e-06
5.25235e-06
5.25667e-06
5.26043e-06
5.26367e-06
5.2666e-06
5.26934e-06
5.27185e-06
5.2739e-06
5.27515e-06
5.27531e-06
5.27428e-06
5.27219e-06
5.2694e-06
5.2663e-06
5.26307e-06
5.25959e-06
5.25568e-06
5.25153e-06
5.24786e-06
5.24564e-06
5.24522e-06
5.24567e-06
5.24474e-06
5.24158e-06
5.24492e-06
5.25594e-06
5.2659e-06
5.26673e-06
5.25479e-06
5.2541e-06
5.28099e-06
5.27211e-06
5.25356e-06
5.25289e-06
5.25251e-06
5.25256e-06
5.25303e-06
5.25376e-06
5.25445e-06
5.25472e-06
5.25428e-06
5.25295e-06
5.25072e-06
5.24771e-06
5.24576e-06
5.24537e-06
5.24559e-06
5.2458e-06
5.24557e-06
5.24461e-06
5.2428e-06
5.24077e-06
5.2408e-06
5.24404e-06
5.24862e-06
5.25338e-06
5.25773e-06
5.26148e-06
5.26471e-06
5.26761e-06
5.27031e-06
5.27277e-06
5.27472e-06
5.27585e-06
5.27586e-06
5.27466e-06
5.2724e-06
5.26947e-06
5.26626e-06
5.26293e-06
5.25936e-06
5.25537e-06
5.25116e-06
5.2475e-06
5.24534e-06
5.24499e-06
5.24544e-06
5.24442e-06
5.24138e-06
5.2455e-06
5.25679e-06
5.26657e-06
5.26677e-06
5.25433e-06
5.25501e-06
5.28233e-06
5.2722e-06
5.25382e-06
5.25314e-06
5.25277e-06
5.25286e-06
5.25339e-06
5.25416e-06
5.25485e-06
5.25509e-06
5.25456e-06
5.25311e-06
5.25073e-06
5.24764e-06
5.24586e-06
5.24558e-06
5.24584e-06
5.24603e-06
5.24573e-06
5.24466e-06
5.24276e-06
5.2408e-06
5.24126e-06
5.24481e-06
5.24957e-06
5.25442e-06
5.25881e-06
5.26255e-06
5.26575e-06
5.26862e-06
5.27128e-06
5.27367e-06
5.27554e-06
5.27653e-06
5.27638e-06
5.27501e-06
5.27259e-06
5.26952e-06
5.26619e-06
5.26278e-06
5.25912e-06
5.25504e-06
5.25078e-06
5.24713e-06
5.24503e-06
5.24476e-06
5.24521e-06
5.24409e-06
5.24124e-06
5.24611e-06
5.25765e-06
5.26722e-06
5.26677e-06
5.25387e-06
5.25598e-06
5.28366e-06
5.27225e-06
5.25489e-06
5.25407e-06
5.25338e-06
5.25304e-06
5.25317e-06
5.25376e-06
5.25457e-06
5.25527e-06
5.25546e-06
5.25484e-06
5.25326e-06
5.25073e-06
5.24757e-06
5.24598e-06
5.2458e-06
5.24609e-06
5.24625e-06
5.24588e-06
5.24469e-06
5.24271e-06
5.24086e-06
5.24177e-06
5.24563e-06
5.25056e-06
5.25549e-06
5.2599e-06
5.26363e-06
5.2668e-06
5.26963e-06
5.27225e-06
5.27458e-06
5.27634e-06
5.2772e-06
5.27689e-06
5.27534e-06
5.27275e-06
5.26954e-06
5.26611e-06
5.2626e-06
5.25885e-06
5.25469e-06
5.25038e-06
5.24675e-06
5.24473e-06
5.24452e-06
5.24497e-06
5.24377e-06
5.24114e-06
5.24675e-06
5.25851e-06
5.26784e-06
5.26673e-06
5.25343e-06
5.25698e-06
5.28497e-06
5.27226e-06
5.25517e-06
5.25432e-06
5.25363e-06
5.25331e-06
5.25349e-06
5.25413e-06
5.25498e-06
5.25568e-06
5.25582e-06
5.2551e-06
5.25339e-06
5.2507e-06
5.24752e-06
5.24611e-06
5.24603e-06
5.24635e-06
5.24647e-06
5.24601e-06
5.24471e-06
5.24266e-06
5.24096e-06
5.24233e-06
5.24648e-06
5.25157e-06
5.25658e-06
5.26101e-06
5.26472e-06
5.26786e-06
5.27065e-06
5.27322e-06
5.27547e-06
5.27713e-06
5.27785e-06
5.27737e-06
5.27564e-06
5.27289e-06
5.26954e-06
5.266e-06
5.2624e-06
5.25857e-06
5.25433e-06
5.24998e-06
5.24638e-06
5.24442e-06
5.24429e-06
5.24473e-06
5.24344e-06
5.24111e-06
5.24743e-06
5.25938e-06
5.26845e-06
5.26664e-06
5.25303e-06
5.25803e-06
5.28626e-06
5.27223e-06
5.25544e-06
5.25457e-06
5.25387e-06
5.25358e-06
5.25381e-06
5.25451e-06
5.2554e-06
5.25609e-06
5.25617e-06
5.25535e-06
5.2535e-06
5.25065e-06
5.24748e-06
5.24625e-06
5.24627e-06
5.2466e-06
5.24668e-06
5.24613e-06
5.24472e-06
5.2426e-06
5.24111e-06
5.24295e-06
5.24738e-06
5.25261e-06
5.25769e-06
5.26213e-06
5.26582e-06
5.26892e-06
5.27166e-06
5.27418e-06
5.27635e-06
5.27791e-06
5.27848e-06
5.27783e-06
5.27592e-06
5.273e-06
5.26951e-06
5.26587e-06
5.26218e-06
5.25826e-06
5.25395e-06
5.24957e-06
5.24601e-06
5.24412e-06
5.24405e-06
5.24448e-06
5.24312e-06
5.24114e-06
5.24813e-06
5.26024e-06
5.26903e-06
5.26652e-06
5.25265e-06
5.25912e-06
5.28753e-06
5.27217e-06
5.2557e-06
5.25481e-06
5.25411e-06
5.25385e-06
5.25414e-06
5.2549e-06
5.25583e-06
5.25651e-06
5.25652e-06
5.25558e-06
5.25359e-06
5.25058e-06
5.24747e-06
5.24641e-06
5.24651e-06
5.24685e-06
5.24688e-06
5.24623e-06
5.24471e-06
5.24255e-06
5.24131e-06
5.24361e-06
5.24831e-06
5.25369e-06
5.25882e-06
5.26327e-06
5.26692e-06
5.26998e-06
5.27268e-06
5.27513e-06
5.27723e-06
5.27867e-06
5.27909e-06
5.27827e-06
5.27618e-06
5.27309e-06
5.26947e-06
5.26572e-06
5.26194e-06
5.25794e-06
5.25356e-06
5.24916e-06
5.24563e-06
5.24382e-06
5.24381e-06
5.24423e-06
5.24281e-06
5.24123e-06
5.24886e-06
5.26111e-06
5.26958e-06
5.26636e-06
5.25232e-06
5.26023e-06
5.28878e-06
5.27208e-06
5.25596e-06
5.25504e-06
5.25435e-06
5.25413e-06
5.25448e-06
5.2553e-06
5.25626e-06
5.25692e-06
5.25686e-06
5.2558e-06
5.25367e-06
5.25049e-06
5.24747e-06
5.24658e-06
5.24677e-06
5.24711e-06
5.24707e-06
5.24632e-06
5.24469e-06
5.24251e-06
5.24157e-06
5.24433e-06
5.24928e-06
5.25479e-06
5.25998e-06
5.26441e-06
5.26804e-06
5.27104e-06
5.27369e-06
5.27608e-06
5.2781e-06
5.27942e-06
5.27969e-06
5.27868e-06
5.2764e-06
5.27315e-06
5.2694e-06
5.26554e-06
5.26168e-06
5.2576e-06
5.25315e-06
5.24874e-06
5.24527e-06
5.24352e-06
5.24357e-06
5.24398e-06
5.2425e-06
5.2414e-06
5.24962e-06
5.26198e-06
5.27011e-06
5.26617e-06
5.25204e-06
5.26138e-06
5.29e-06
5.27195e-06
5.25622e-06
5.25528e-06
5.25459e-06
5.25441e-06
5.25483e-06
5.25571e-06
5.2567e-06
5.25734e-06
5.2572e-06
5.25601e-06
5.25372e-06
5.25039e-06
5.2475e-06
5.24677e-06
5.24702e-06
5.24735e-06
5.24725e-06
5.2464e-06
5.24465e-06
5.24248e-06
5.2419e-06
5.2451e-06
5.25029e-06
5.25592e-06
5.26115e-06
5.26557e-06
5.26915e-06
5.27211e-06
5.2747e-06
5.27703e-06
5.27895e-06
5.28015e-06
5.28026e-06
5.27907e-06
5.27661e-06
5.27319e-06
5.2693e-06
5.26534e-06
5.2614e-06
5.25724e-06
5.25274e-06
5.24833e-06
5.2449e-06
5.24323e-06
5.24334e-06
5.24372e-06
5.24221e-06
5.24163e-06
5.2504e-06
5.26284e-06
5.27061e-06
5.26593e-06
5.25183e-06
5.26256e-06
5.29118e-06
5.27179e-06
5.25647e-06
5.25551e-06
5.25483e-06
5.2547e-06
5.25518e-06
5.25612e-06
5.25714e-06
5.25775e-06
5.25752e-06
5.2562e-06
5.25375e-06
5.25027e-06
5.24754e-06
5.24697e-06
5.24728e-06
5.2476e-06
5.24742e-06
5.24646e-06
5.24461e-06
5.24247e-06
5.24231e-06
5.24592e-06
5.25133e-06
5.25707e-06
5.26234e-06
5.26674e-06
5.27027e-06
5.27317e-06
5.2757e-06
5.27796e-06
5.27979e-06
5.28086e-06
5.28081e-06
5.27943e-06
5.27678e-06