/*--------------------------------*- C++ -*----------------------------------*\
  =========                 |
  \\      /  F ield         | OpenFOAM: The Open Source CFD Toolbox
   \\    /   O peration     | Website:  https://openfoam.org
    \\  /    A nd           | Version:  7
     \\/     M anipulation  |
\*---------------------------------------------------------------------------*/
FoamFile
{
    version     2.0;
    format      ascii;
    class       volScalarField;
    location    "1200";
    object      nuTilda;
}
// * * * * * * * * * * * * * * * * * * * * * * * * * * * * * * * * * * * * * //

dimensions      [0 2 -1 0 0 0 0];

internalField   nonuniform List<scalar> 
23023
(
3.4393e-05
3.43968e-05
3.43932e-05
3.4395e-05
3.43971e-05
3.43934e-05
3.43902e-05
3.43955e-05
3.43973e-05
3.43935e-05
3.43904e-05
3.4396e-05
3.43976e-05
3.43937e-05
3.43892e-05
3.43907e-05
3.43966e-05
3.43979e-05
3.43939e-05
3.43944e-05
3.43891e-05
3.43911e-05
3.43971e-05
3.43981e-05
3.43942e-05
3.43978e-05
3.43942e-05
3.43891e-05
3.43915e-05
3.43977e-05
3.43983e-05
3.43944e-05
3.43985e-05
3.4398e-05
3.4394e-05
3.4389e-05
3.43919e-05
3.43983e-05
3.43985e-05
3.43946e-05
3.43981e-05
3.43988e-05
3.43981e-05
3.43938e-05
3.4389e-05
3.43923e-05
3.43989e-05
3.43987e-05
3.43949e-05
3.43976e-05
3.43983e-05
3.4399e-05
3.43981e-05
3.43935e-05
3.43891e-05
3.43928e-05
3.43995e-05
3.43988e-05
3.43952e-05
3.43979e-05
3.43986e-05
3.43992e-05
3.43982e-05
3.43933e-05
3.43891e-05
3.43933e-05
3.44001e-05
3.43989e-05
3.43954e-05
3.43981e-05
3.43981e-05
3.43989e-05
3.43994e-05
3.43982e-05
3.43929e-05
3.43892e-05
3.43938e-05
3.44007e-05
3.4399e-05
3.43957e-05
3.4399e-05
3.43983e-05
3.43984e-05
3.43991e-05
3.43996e-05
3.43982e-05
3.43926e-05
3.43894e-05
3.43944e-05
3.44014e-05
3.43991e-05
3.4396e-05
3.44003e-05
3.43993e-05
3.43986e-05
3.43986e-05
3.43993e-05
3.43998e-05
3.43982e-05
3.43922e-05
3.43895e-05
3.4395e-05
3.4402e-05
3.43991e-05
3.43964e-05
3.44014e-05
3.44007e-05
3.43996e-05
3.43988e-05
3.43988e-05
3.43996e-05
3.44e-05
3.43982e-05
3.43918e-05
3.43897e-05
3.43956e-05
3.44026e-05
3.43991e-05
3.43967e-05
3.44019e-05
3.4401e-05
3.43999e-05
3.4399e-05
3.43991e-05
3.43998e-05
3.44002e-05
3.43981e-05
3.43915e-05
3.43899e-05
3.43962e-05
3.44033e-05
3.43991e-05
3.43971e-05
3.44027e-05
3.44024e-05
3.44014e-05
3.44001e-05
3.43993e-05
3.43993e-05
3.44e-05
3.44003e-05
3.4398e-05
3.4391e-05
3.43902e-05
3.43969e-05
3.44039e-05
3.43991e-05
3.43975e-05
3.4403e-05
3.44033e-05
3.44029e-05
3.44018e-05
3.44004e-05
3.43995e-05
3.43995e-05
3.44002e-05
3.44005e-05
3.43978e-05
3.43906e-05
3.43905e-05
3.43976e-05
3.44045e-05
3.4399e-05
3.43979e-05
3.44037e-05
3.44039e-05
3.44033e-05
3.44021e-05
3.44006e-05
3.43997e-05
3.43997e-05
3.44004e-05
3.44006e-05
3.43977e-05
3.43902e-05
3.43908e-05
3.43984e-05
3.44051e-05
3.43989e-05
3.43984e-05
3.44036e-05
3.44044e-05
3.44045e-05
3.44038e-05
3.44024e-05
3.44009e-05
3.43998e-05
3.43999e-05
3.44006e-05
3.44007e-05
3.43975e-05
3.43899e-05
3.43912e-05
3.43991e-05
3.44057e-05
3.43987e-05
3.43988e-05
3.44031e-05
3.44044e-05
3.44051e-05
3.44051e-05
3.44042e-05
3.44027e-05
3.44011e-05
3.44e-05
3.44001e-05
3.44008e-05
3.44007e-05
3.43972e-05
3.43895e-05
3.43916e-05
3.43999e-05
3.44063e-05
3.43985e-05
3.43993e-05
3.44021e-05
3.44039e-05
3.44052e-05
3.44058e-05
3.44056e-05
3.44047e-05
3.4403e-05
3.44013e-05
3.44002e-05
3.44002e-05
3.4401e-05
3.44008e-05
3.43969e-05
3.43892e-05
3.43921e-05
3.44007e-05
3.44068e-05
3.43984e-05
3.43999e-05
3.44006e-05
3.44031e-05
3.44048e-05
3.44059e-05
3.44064e-05
3.44062e-05
3.44051e-05
3.44033e-05
3.44015e-05
3.44003e-05
3.44004e-05
3.44011e-05
3.44008e-05
3.43966e-05
3.43889e-05
3.43926e-05
3.44015e-05
3.44074e-05
3.43982e-05
3.44004e-05
3.44016e-05
3.4404e-05
3.44057e-05
3.44067e-05
3.44071e-05
3.44067e-05
3.44054e-05
3.44036e-05
3.44016e-05
3.44005e-05
3.44005e-05
3.44013e-05
3.44008e-05
3.43963e-05
3.43887e-05
3.43932e-05
3.44023e-05
3.44078e-05
3.43979e-05
3.4401e-05
3.43996e-05
3.44026e-05
3.4405e-05
3.44065e-05
3.44075e-05
3.44077e-05
3.44072e-05
3.44058e-05
3.44038e-05
3.44018e-05
3.44006e-05
3.44007e-05
3.44014e-05
3.44008e-05
3.43959e-05
3.43886e-05
3.43938e-05
3.44032e-05
3.44083e-05
3.43977e-05
3.44016e-05
3.43969e-05
3.44006e-05
3.44037e-05
3.44059e-05
3.44074e-05
3.44082e-05
3.44084e-05
3.44077e-05
3.44062e-05
3.4404e-05
3.44019e-05
3.44007e-05
3.44008e-05
3.44015e-05
3.44008e-05
3.43955e-05
3.43885e-05
3.43945e-05
3.4404e-05
3.44087e-05
3.43975e-05
3.44023e-05
3.4398e-05
3.44017e-05
3.44047e-05
3.44069e-05
3.44083e-05
3.4409e-05
3.4409e-05
3.44082e-05
3.44065e-05
3.44042e-05
3.4402e-05
3.44008e-05
3.44009e-05
3.44016e-05
3.44007e-05
3.4395e-05
3.43885e-05
3.43952e-05
3.44049e-05
3.44091e-05
3.43974e-05
3.4403e-05
3.43949e-05
3.43991e-05
3.44028e-05
3.44057e-05
3.44078e-05
3.44091e-05
3.44097e-05
3.44096e-05
3.44087e-05
3.44068e-05
3.44044e-05
3.44021e-05
3.44009e-05
3.44011e-05
3.44017e-05
3.44006e-05
3.43945e-05
3.43886e-05
3.43959e-05
3.44058e-05
3.44095e-05
3.43972e-05
3.44038e-05
3.43914e-05
3.4396e-05
3.44002e-05
3.44039e-05
3.44068e-05
3.44088e-05
3.441e-05
3.44105e-05
3.44102e-05
3.44091e-05
3.44071e-05
3.44045e-05
3.44022e-05
3.4401e-05
3.44012e-05
3.44018e-05
3.44005e-05
3.4394e-05
3.43887e-05
3.43967e-05
3.44067e-05
3.44098e-05
3.43971e-05
3.44046e-05
3.43925e-05
3.43971e-05
3.44014e-05
3.4405e-05
3.44079e-05
3.44098e-05
3.44108e-05
3.44112e-05
3.44108e-05
3.44095e-05
3.44074e-05
3.44047e-05
3.44023e-05
3.4401e-05
3.44013e-05
3.44019e-05
3.44004e-05
3.43935e-05
3.43889e-05
3.43975e-05
3.44076e-05
3.44101e-05
3.43971e-05
3.44054e-05
3.43889e-05
3.43936e-05
3.43982e-05
3.44025e-05
3.44062e-05
3.44089e-05
3.44107e-05
3.44117e-05
3.44119e-05
3.44114e-05
3.441e-05
3.44076e-05
3.44048e-05
3.44023e-05
3.44011e-05
3.44013e-05
3.44019e-05
3.44002e-05
3.43929e-05
3.43892e-05
3.43984e-05
3.44084e-05
3.44103e-05
3.43971e-05
3.44062e-05
3.43854e-05
3.439e-05
3.43947e-05
3.43994e-05
3.44037e-05
3.44073e-05
3.441e-05
3.44117e-05
3.44125e-05
3.44126e-05
3.44119e-05
3.44103e-05
3.44079e-05
3.44049e-05
3.44023e-05
3.44011e-05
3.44014e-05
3.4402e-05
3.44e-05
3.43924e-05
3.43894e-05
3.43993e-05
3.44093e-05
3.44104e-05
3.43972e-05
3.44071e-05
3.43864e-05
3.43911e-05
3.43959e-05
3.44006e-05
3.44049e-05
3.44085e-05
3.4411e-05
3.44126e-05
3.44133e-05
3.44133e-05
3.44124e-05
3.44107e-05
3.44081e-05
3.4405e-05
3.44023e-05
3.44011e-05
3.44015e-05
3.4402e-05
3.43997e-05
3.43918e-05
3.43898e-05
3.44002e-05
3.44102e-05
3.44106e-05
3.43975e-05
3.44081e-05
3.43832e-05
3.43875e-05
3.43922e-05
3.43971e-05
3.44018e-05
3.44061e-05
3.44096e-05
3.44121e-05
3.44136e-05
3.44141e-05
3.44139e-05
3.44129e-05
3.44111e-05
3.44083e-05
3.4405e-05
3.44023e-05
3.44012e-05
3.44015e-05
3.4402e-05
3.43995e-05
3.43912e-05
3.43902e-05
3.44012e-05
3.4411e-05
3.44106e-05
3.43978e-05
3.4409e-05
3.43802e-05
3.43842e-05
3.43886e-05
3.43934e-05
3.43983e-05
3.44031e-05
3.44074e-05
3.44108e-05
3.44132e-05
3.44145e-05
3.44149e-05
3.44146e-05
3.44134e-05
3.44114e-05
3.44084e-05
3.44051e-05
3.44023e-05
3.44012e-05
3.44016e-05
3.44019e-05
3.43991e-05
3.43907e-05
3.43906e-05
3.44022e-05
3.44119e-05
3.44106e-05
3.43983e-05
3.441e-05
3.43812e-05
3.43852e-05
3.43897e-05
3.43946e-05
3.43995e-05
3.44044e-05
3.44086e-05
3.4412e-05
3.44142e-05
3.44154e-05
3.44157e-05
3.44152e-05
3.44139e-05
3.44117e-05
3.44086e-05
3.44051e-05
3.44023e-05
3.44011e-05
3.44016e-05
3.44019e-05
3.43988e-05
3.43901e-05
3.43911e-05
3.44032e-05
3.44127e-05
3.44106e-05
3.43988e-05
3.44111e-05
3.43784e-05
3.43821e-05
3.43863e-05
3.43909e-05
3.43958e-05
3.44008e-05
3.44057e-05
3.44099e-05
3.44132e-05
3.44153e-05
3.44163e-05
3.44164e-05
3.44158e-05
3.44143e-05
3.4412e-05
3.44087e-05
3.44051e-05
3.44022e-05
3.44011e-05
3.44016e-05
3.44018e-05
3.43984e-05
3.43896e-05
3.43917e-05
3.44043e-05
3.44135e-05
3.44104e-05
3.43994e-05
3.44121e-05
3.4376e-05
3.43793e-05
3.43832e-05
3.43874e-05
3.43921e-05
3.4397e-05
3.44021e-05
3.4407e-05
3.44111e-05
3.44143e-05
3.44163e-05
3.44172e-05
3.44172e-05
3.44164e-05
3.44148e-05
3.44122e-05
3.44087e-05
3.4405e-05
3.44022e-05
3.44011e-05
3.44016e-05
3.44017e-05
3.4398e-05
3.43891e-05
3.43923e-05
3.44053e-05
3.44143e-05
3.44103e-05
3.44001e-05
3.44132e-05
3.43742e-05
3.43767e-05
3.43802e-05
3.43842e-05
3.43886e-05
3.43933e-05
3.43983e-05
3.44035e-05
3.44083e-05
3.44124e-05
3.44155e-05
3.44174e-05
3.44181e-05
3.44179e-05
3.44169e-05
3.44152e-05
3.44124e-05
3.44088e-05
3.4405e-05
3.44021e-05
3.44011e-05
3.44016e-05
3.44016e-05
3.43975e-05
3.43887e-05
3.4393e-05
3.44064e-05
3.44151e-05
3.441e-05
3.44009e-05
3.44143e-05
3.43739e-05
3.43748e-05
3.43775e-05
3.43812e-05
3.43853e-05
3.43898e-05
3.43946e-05
3.43997e-05
3.44048e-05
3.44096e-05
3.44137e-05
3.44167e-05
3.44184e-05
3.4419e-05
3.44186e-05
3.44175e-05
3.44155e-05
3.44126e-05
3.44088e-05
3.44049e-05
3.4402e-05
3.4401e-05
3.44016e-05
3.44015e-05
3.4397e-05
3.43883e-05
3.43937e-05
3.44075e-05
3.44158e-05
3.44097e-05
3.44017e-05
3.44155e-05
3.43759e-05
3.43741e-05
3.43753e-05
3.43784e-05
3.43822e-05
3.43864e-05
3.4391e-05
3.43959e-05
3.4401e-05
3.44062e-05
3.4411e-05
3.4415e-05
3.44179e-05
3.44194e-05
3.44198e-05
3.44193e-05
3.4418e-05
3.44159e-05
3.44128e-05
3.44088e-05
3.44048e-05
3.44019e-05
3.44009e-05
3.44015e-05
3.44013e-05
3.43965e-05
3.4388e-05
3.43945e-05
3.44086e-05
3.44165e-05
3.44094e-05
3.44027e-05
3.44166e-05
3.43787e-05
3.43759e-05
3.43744e-05
3.4376e-05
3.43792e-05
3.43832e-05
3.43876e-05
3.43922e-05
3.43972e-05
3.44024e-05
3.44076e-05
3.44123e-05
3.44163e-05
3.4419e-05
3.44204e-05
3.44206e-05
3.44199e-05
3.44185e-05
3.44162e-05
3.44129e-05
3.44088e-05
3.44047e-05
3.44017e-05
3.44009e-05
3.44015e-05
3.44012e-05
3.43959e-05
3.43877e-05
3.43954e-05
3.44098e-05
3.44172e-05
3.4409e-05
3.44036e-05
3.44178e-05
3.43788e-05
3.4376e-05
3.43747e-05
3.43767e-05
3.43802e-05
3.43843e-05
3.43888e-05
3.43935e-05
3.43985e-05
3.44038e-05
3.4409e-05
3.44137e-05
3.44176e-05
3.44202e-05
3.44214e-05
3.44215e-05
3.44206e-05
3.4419e-05
3.44165e-05
3.44131e-05
3.44088e-05
3.44045e-05
3.44016e-05
3.44008e-05
3.44014e-05
3.44009e-05
3.43954e-05
3.43876e-05
3.43963e-05
3.44109e-05
3.44178e-05
3.44085e-05
3.44047e-05
3.4419e-05
3.43812e-05
3.43788e-05
3.4376e-05
3.43751e-05
3.43774e-05
3.43811e-05
3.43855e-05
3.439e-05
3.43949e-05
3.43999e-05
3.44052e-05
3.44104e-05
3.44151e-05
3.44189e-05
3.44213e-05
3.44224e-05
3.44223e-05
3.44212e-05
3.44194e-05
3.44168e-05
3.44131e-05
3.44087e-05
3.44044e-05
3.44014e-05
3.44007e-05
3.44013e-05
3.44007e-05
3.43947e-05
3.43876e-05
3.43972e-05
3.4412e-05
3.44184e-05
3.4408e-05
3.44058e-05
3.44202e-05
3.43828e-05
3.43813e-05
3.43789e-05
3.4376e-05
3.43756e-05
3.43782e-05
3.43822e-05
3.43866e-05
3.43913e-05
3.43962e-05
3.44013e-05
3.44067e-05
3.44119e-05
3.44165e-05
3.44202e-05
3.44225e-05
3.44234e-05
3.4423e-05
3.44218e-05
3.44198e-05
3.4417e-05
3.44132e-05
3.44086e-05
3.44042e-05
3.44013e-05
3.44006e-05
3.44012e-05
3.44004e-05
3.43941e-05
3.43877e-05
3.43982e-05
3.44132e-05
3.44189e-05
3.44074e-05
3.4407e-05
3.44214e-05
3.43831e-05
3.43815e-05
3.43789e-05
3.43761e-05
3.43761e-05
3.4379e-05
3.43832e-05
3.43878e-05
3.43926e-05
3.43976e-05
3.44028e-05
3.44081e-05
3.44133e-05
3.44179e-05
3.44215e-05
3.44236e-05
3.44243e-05
3.44238e-05
3.44224e-05
3.44202e-05
3.44172e-05
3.44132e-05
3.44085e-05
3.4404e-05
3.44011e-05
3.44004e-05
3.44011e-05
3.44001e-05
3.43935e-05
3.43878e-05
3.43993e-05
3.44143e-05
3.44194e-05
3.44068e-05
3.44083e-05
3.44226e-05
3.43841e-05
3.43834e-05
3.43817e-05
3.43789e-05
3.43762e-05
3.43766e-05
3.43799e-05
3.43843e-05
3.43891e-05
3.4394e-05
3.4399e-05
3.44043e-05
3.44096e-05
3.44148e-05
3.44193e-05
3.44227e-05
3.44247e-05
3.44252e-05
3.44245e-05
3.44229e-05
3.44206e-05
3.44174e-05
3.44132e-05
3.44084e-05
3.44038e-05
3.44009e-05
3.44003e-05
3.4401e-05
3.43998e-05
3.43928e-05
3.43881e-05
3.44003e-05
3.44155e-05
3.44198e-05
3.44062e-05
3.44096e-05
3.44238e-05
3.43846e-05
3.43845e-05
3.43837e-05
3.43818e-05
3.43789e-05
3.43763e-05
3.43772e-05
3.43809e-05
3.43855e-05
3.43904e-05
3.43954e-05
3.44005e-05
3.44058e-05
3.44111e-05
3.44163e-05
3.44207e-05
3.4424e-05
3.44258e-05
3.44261e-05
3.44252e-05
3.44234e-05
3.44209e-05
3.44176e-05
3.44132e-05
3.44082e-05
3.44035e-05
3.44007e-05
3.44002e-05
3.44009e-05
3.43995e-05
3.43921e-05
3.43884e-05
3.44015e-05
3.44166e-05
3.44202e-05
3.44055e-05
3.44111e-05
3.4425e-05
3.43849e-05
3.4385e-05
3.43848e-05
3.43839e-05
3.43819e-05
3.43788e-05
3.43765e-05
3.43779e-05
3.43818e-05
3.43867e-05
3.43917e-05
3.43968e-05
3.44019e-05
3.44073e-05
3.44127e-05
3.44178e-05
3.44222e-05
3.44253e-05
3.44269e-05
3.4427e-05
3.44259e-05
3.44239e-05
3.44212e-05
3.44177e-05
3.44132e-05
3.4408e-05
3.44033e-05
3.44004e-05
3.44e-05
3.44007e-05
3.43991e-05
3.43914e-05
3.43888e-05
3.44027e-05
3.44178e-05
3.44205e-05
3.44048e-05
3.44125e-05
3.44262e-05
3.43855e-05
3.43853e-05
3.43854e-05
3.43852e-05
3.43842e-05
3.4382e-05
3.43788e-05
3.43767e-05
3.43787e-05
3.43829e-05
3.43879e-05
3.43931e-05
3.43982e-05
3.44034e-05
3.44088e-05
3.44142e-05
3.44193e-05
3.44236e-05
3.44266e-05
3.4428e-05
3.44279e-05
3.44265e-05
3.44244e-05
3.44215e-05
3.44178e-05
3.44131e-05
3.44078e-05
3.4403e-05
3.44002e-05
3.43999e-05
3.44005e-05
3.43986e-05
3.43908e-05
3.43893e-05
3.44039e-05
3.44189e-05
3.44207e-05
3.44041e-05
3.44141e-05
3.44273e-05
3.43868e-05
3.43858e-05
3.43857e-05
3.43858e-05
3.43856e-05
3.43844e-05
3.4382e-05
3.43788e-05
3.43771e-05
3.43795e-05
3.4384e-05
3.43892e-05
3.43945e-05
3.43997e-05
3.4405e-05
3.44104e-05
3.44158e-05
3.44208e-05
3.4425e-05
3.44278e-05
3.4429e-05
3.44287e-05
3.44272e-05
3.44248e-05
3.44218e-05
3.44179e-05
3.4413e-05
3.44075e-05
3.44027e-05
3.44e-05
3.43997e-05
3.44003e-05
3.43982e-05
3.43901e-05
3.43899e-05
3.44051e-05
3.442e-05
3.44209e-05
3.44034e-05
3.44158e-05
3.44285e-05
3.43895e-05
3.4387e-05
3.43861e-05
3.43861e-05
3.43862e-05
3.43859e-05
3.43846e-05
3.43821e-05
3.43788e-05
3.43775e-05
3.43803e-05
3.43851e-05
3.43905e-05
3.43959e-05
3.44012e-05
3.44065e-05
3.4412e-05
3.44173e-05
3.44223e-05
3.44264e-05
3.44291e-05
3.44301e-05
3.44295e-05
3.44278e-05
3.44252e-05
3.4422e-05
3.44179e-05
3.44128e-05
3.44072e-05
3.44024e-05
3.43997e-05
3.43995e-05
3.44001e-05
3.43977e-05
3.43895e-05
3.43905e-05
3.44064e-05
3.44211e-05
3.4421e-05
3.44027e-05
3.44175e-05
3.44297e-05
3.43933e-05
3.43896e-05
3.43872e-05
3.43865e-05
3.43865e-05
3.43866e-05
3.43862e-05
3.43848e-05
3.43821e-05
3.43788e-05
3.43779e-05
3.43812e-05
3.43863e-05
3.43919e-05
3.43974e-05
3.44028e-05
3.44081e-05
3.44136e-05
3.44189e-05
3.44239e-05
3.44278e-05
3.44303e-05
3.44311e-05
3.44303e-05
3.44283e-05
3.44256e-05
3.44222e-05
3.44179e-05
3.44126e-05
3.44069e-05
3.44021e-05
3.43994e-05
3.43993e-05
3.43999e-05
3.43972e-05
3.43888e-05
3.43912e-05
3.44077e-05
3.44222e-05
3.44211e-05
3.4402e-05
3.44193e-05
3.44308e-05
3.43965e-05
3.43934e-05
3.43896e-05
3.43875e-05
3.43868e-05
3.43869e-05
3.43871e-05
3.43866e-05
3.4385e-05
3.43821e-05
3.43788e-05
3.43785e-05
3.43822e-05
3.43876e-05
3.43933e-05
3.43989e-05
3.44043e-05
3.44097e-05
3.44152e-05
3.44205e-05
3.44254e-05
3.44292e-05
3.44315e-05
3.44321e-05
3.44311e-05
3.44289e-05
3.44259e-05
3.44223e-05
3.44179e-05
3.44124e-05
3.44066e-05
3.44017e-05
3.43991e-05
3.43991e-05
3.43996e-05
3.43966e-05
3.43883e-05
3.4392e-05
3.4409e-05
3.44232e-05
3.4421e-05
3.44013e-05
3.44212e-05
3.44319e-05
3.43989e-05
3.43968e-05
3.43936e-05
3.43897e-05
3.43877e-05
3.43872e-05
3.43874e-05
3.43875e-05
3.43869e-05
3.43851e-05
3.43821e-05
3.43788e-05
3.43791e-05
3.43832e-05
3.43889e-05
3.43947e-05
3.44004e-05
3.44059e-05
3.44114e-05
3.44168e-05
3.44222e-05
3.44269e-05
3.44306e-05
3.44327e-05
3.4433e-05
3.44318e-05
3.44294e-05
3.44262e-05
3.44225e-05
3.44178e-05
3.44122e-05
3.44063e-05
3.44013e-05
3.43988e-05
3.43989e-05
3.43994e-05
3.43961e-05
3.43878e-05
3.43929e-05
3.44104e-05
3.44242e-05
3.44209e-05
3.44007e-05
3.44231e-05
3.4433e-05
3.44006e-05
3.43993e-05
3.43971e-05
3.43936e-05
3.43898e-05
3.43879e-05
3.43876e-05
3.43878e-05
3.43879e-05
3.43872e-05
3.43853e-05
3.4382e-05
3.43789e-05
3.43798e-05
3.43843e-05
3.43902e-05
3.43962e-05
3.4402e-05
3.44075e-05
3.4413e-05
3.44185e-05
3.44238e-05
3.44284e-05
3.4432e-05
3.44339e-05
3.4434e-05
3.44325e-05
3.44298e-05
3.44265e-05
3.44225e-05
3.44177e-05
3.44119e-05
3.44059e-05
3.44009e-05
3.43985e-05
3.43987e-05
3.43991e-05
3.43955e-05
3.43873e-05
3.43938e-05
3.44118e-05
3.44252e-05
3.44208e-05
3.44002e-05
3.44252e-05
3.44341e-05
3.44014e-05
3.44011e-05
3.43998e-05
3.43973e-05
3.43937e-05
3.43899e-05
3.43882e-05
3.4388e-05
3.43882e-05
3.43883e-05
3.43875e-05
3.43854e-05
3.4382e-05
3.43791e-05
3.43805e-05
3.43855e-05
3.43916e-05
3.43978e-05
3.44036e-05
3.44092e-05
3.44147e-05
3.44202e-05
3.44254e-05
3.443e-05
3.44333e-05
3.4435e-05
3.44349e-05
3.44331e-05
3.44303e-05
3.44268e-05
3.44226e-05
3.44176e-05
3.44117e-05
3.44055e-05
3.44005e-05
3.43982e-05
3.43984e-05
3.43988e-05
3.43949e-05
3.43869e-05
3.43948e-05
3.44132e-05
3.44261e-05
3.44205e-05
3.43998e-05
3.44273e-05
3.44351e-05
3.44017e-05
3.44021e-05
3.44017e-05
3.44002e-05
3.43976e-05
3.43937e-05
3.439e-05
3.43885e-05
3.43884e-05
3.43887e-05
3.43886e-05
3.43877e-05
3.43854e-05
3.43819e-05
3.43793e-05
3.43814e-05
3.43867e-05
3.4393e-05
3.43993e-05
3.44053e-05
3.44109e-05
3.44164e-05
3.44218e-05
3.4427e-05
3.44315e-05
3.44347e-05
3.44362e-05
3.44358e-05
3.44338e-05
3.44307e-05
3.4427e-05
3.44226e-05
3.44174e-05
3.44113e-05
3.44051e-05
3.44001e-05
3.43979e-05
3.43982e-05
3.43984e-05
3.43942e-05
3.43866e-05
3.43958e-05
3.44146e-05
3.4427e-05
3.44202e-05
3.43995e-05
3.44294e-05
3.44361e-05
3.44016e-05
3.44024e-05
3.44027e-05
3.44023e-05
3.44006e-05
3.43978e-05
3.43937e-05
3.43901e-05
3.43888e-05
3.43888e-05
3.43891e-05
3.4389e-05
3.4388e-05
3.43855e-05
3.43819e-05
3.43796e-05
3.43823e-05
3.4388e-05
3.43945e-05
3.44009e-05
3.44069e-05
3.44126e-05
3.44181e-05
3.44235e-05
3.44287e-05
3.4433e-05
3.4436e-05
3.44373e-05
3.44366e-05
3.44344e-05
3.44311e-05
3.44271e-05
3.44226e-05
3.44172e-05
3.4411e-05
3.44046e-05
3.43997e-05
3.43975e-05
3.43979e-05
3.4398e-05
3.43935e-05
3.43864e-05
3.43969e-05
3.4416e-05
3.44279e-05
3.44198e-05
3.43993e-05
3.44317e-05
3.4437e-05
3.44014e-05
3.44023e-05
3.44031e-05
3.44034e-05
3.44028e-05
3.4401e-05
3.4398e-05
3.43937e-05
3.43902e-05
3.43891e-05
3.43892e-05
3.43895e-05
3.43894e-05
3.43882e-05
3.43855e-05
3.43818e-05
3.43799e-05
3.43833e-05
3.43893e-05
3.43961e-05
3.44026e-05
3.44086e-05
3.44143e-05
3.44198e-05
3.44252e-05
3.44303e-05
3.44345e-05
3.44374e-05
3.44384e-05
3.44375e-05
3.44349e-05
3.44314e-05
3.44273e-05
3.44226e-05
3.4417e-05
3.44106e-05
3.44041e-05
3.43992e-05
3.43972e-05
3.43976e-05
3.43977e-05
3.43929e-05
3.43864e-05
3.43981e-05
3.44174e-05
3.44287e-05
3.44193e-05
3.43993e-05
3.4434e-05
3.44379e-05
3.44014e-05
3.4402e-05
3.44029e-05
3.44038e-05
3.4404e-05
3.44033e-05
3.44014e-05
3.43981e-05
3.43936e-05
3.43904e-05
3.43895e-05
3.43896e-05
3.439e-05
3.43897e-05
3.43884e-05
3.43855e-05
3.43818e-05
3.43804e-05
3.43843e-05
3.43907e-05
3.43976e-05
3.44043e-05
3.44104e-05
3.44161e-05
3.44216e-05
3.44269e-05
3.44319e-05
3.4436e-05
3.44387e-05
3.44394e-05
3.44382e-05
3.44355e-05
3.44317e-05
3.44274e-05
3.44225e-05
3.44168e-05
3.44102e-05
3.44037e-05
3.43988e-05
3.43968e-05
3.43973e-05
3.43972e-05
3.43922e-05
3.43864e-05
3.43993e-05
3.44189e-05
3.44295e-05
3.44188e-05
3.43994e-05
3.44364e-05
3.44387e-05
3.44017e-05
3.44019e-05
3.44026e-05
3.44036e-05
3.44045e-05
3.44047e-05
3.44039e-05
3.44017e-05
3.43982e-05
3.43936e-05
3.43906e-05
3.43898e-05
3.43901e-05
3.43904e-05
3.43901e-05
3.43885e-05
3.43855e-05
3.43818e-05
3.4381e-05
3.43854e-05
3.43921e-05
3.43993e-05
3.4406e-05
3.44121e-05
3.44178e-05
3.44233e-05
3.44287e-05
3.44336e-05
3.44375e-05
3.444e-05
3.44405e-05
3.4439e-05
3.4436e-05
3.4432e-05
3.44275e-05
3.44224e-05
3.44165e-05
3.44097e-05
3.44031e-05
3.43983e-05
3.43965e-05
3.4397e-05
3.43968e-05
3.43915e-05
3.43866e-05
3.44006e-05
3.44203e-05
3.44302e-05
3.44182e-05
3.43998e-05
3.44387e-05
3.44395e-05
3.44022e-05
3.44025e-05
3.44033e-05
3.44043e-05
3.44052e-05
3.44053e-05
3.44044e-05
3.4402e-05
3.43983e-05
3.43935e-05
3.43908e-05
3.43902e-05
3.43905e-05
3.43908e-05
3.43904e-05
3.43887e-05
3.43854e-05
3.43818e-05
3.43816e-05
3.43866e-05
3.43936e-05
3.44009e-05
3.44077e-05
3.44139e-05
3.44196e-05
3.44251e-05
3.44304e-05
3.44352e-05
3.4439e-05
3.44412e-05
3.44414e-05
3.44397e-05
3.44364e-05
3.44322e-05
3.44275e-05
3.44223e-05
3.44162e-05
3.44093e-05
3.44026e-05
3.43978e-05
3.43961e-05
3.43967e-05
3.43964e-05
3.43908e-05
3.43869e-05
3.44019e-05
3.44217e-05
3.44308e-05
3.44175e-05
3.44003e-05
3.44412e-05
3.44402e-05
3.44031e-05
3.44028e-05
3.44031e-05
3.44039e-05
3.4405e-05
3.44059e-05
3.4406e-05
3.44048e-05
3.44023e-05
3.43984e-05
3.43935e-05
3.4391e-05
3.43906e-05
3.4391e-05
3.43913e-05
3.43907e-05
3.43888e-05
3.43854e-05
3.43818e-05
3.43824e-05
3.43879e-05
3.43952e-05
3.44026e-05
3.44095e-05
3.44157e-05
3.44214e-05
3.44269e-05
3.44321e-05
3.44368e-05
3.44405e-05
3.44425e-05
3.44424e-05
3.44404e-05
3.44368e-05
3.44324e-05
3.44275e-05
3.44221e-05
3.44158e-05
3.44088e-05
3.4402e-05
3.43973e-05
3.43957e-05
3.43964e-05
3.43959e-05
3.43901e-05
3.43873e-05
3.44033e-05
3.44232e-05
3.44314e-05
3.44168e-05
3.44011e-05
3.44436e-05
3.44409e-05
3.44036e-05
3.44033e-05
3.44036e-05
3.44046e-05
3.44057e-05
3.44066e-05
3.44066e-05
3.44053e-05
3.44026e-05
3.43984e-05
3.43935e-05
3.43912e-05
3.4391e-05
3.43914e-05
3.43917e-05
3.4391e-05
3.43889e-05
3.43853e-05
3.43819e-05
3.43832e-05
3.43892e-05
3.43968e-05
3.44044e-05
3.44113e-05
3.44175e-05
3.44232e-05
3.44287e-05
3.44338e-05
3.44385e-05
3.44419e-05
3.44437e-05
3.44434e-05
3.4441e-05
3.44372e-05
3.44326e-05
3.44275e-05
3.44219e-05
3.44154e-05
3.44083e-05
3.44015e-05
3.43968e-05
3.43953e-05
3.4396e-05
3.43954e-05
3.43894e-05
3.43879e-05
3.44047e-05
3.44246e-05
3.4432e-05
3.4416e-05
3.4402e-05
3.44461e-05
3.44415e-05
3.44049e-05
3.44041e-05
3.44038e-05
3.44042e-05
3.44053e-05
3.44065e-05
3.44073e-05
3.44072e-05
3.44058e-05
3.44028e-05
3.43984e-05
3.43935e-05
3.43915e-05
3.43914e-05
3.43919e-05
3.43921e-05
3.43913e-05
3.4389e-05
3.43852e-05
3.4382e-05
3.43841e-05
3.43906e-05
3.43984e-05
3.44062e-05
3.44132e-05
3.44194e-05
3.44251e-05
3.44305e-05
3.44356e-05
3.44401e-05
3.44433e-05
3.44449e-05
3.44443e-05
3.44416e-05
3.44376e-05
3.44327e-05
3.44274e-05
3.44216e-05
3.4415e-05
3.44077e-05
3.44009e-05
3.43963e-05
3.43949e-05
3.43957e-05
3.43948e-05
3.43887e-05
3.43885e-05
3.44062e-05
3.4426e-05
3.44324e-05
3.44152e-05
3.4403e-05
3.44486e-05
3.4442e-05
3.44054e-05
3.44045e-05
3.44043e-05
3.44048e-05
3.44059e-05
3.44072e-05
3.4408e-05
3.44078e-05
3.44062e-05
3.4403e-05
3.43983e-05
3.43935e-05
3.43918e-05
3.43918e-05
3.43924e-05
3.43925e-05
3.43915e-05
3.4389e-05
3.43851e-05
3.43823e-05
3.43851e-05
3.4392e-05
3.44002e-05
3.4408e-05
3.4415e-05
3.44212e-05
3.44269e-05
3.44323e-05
3.44373e-05
3.44417e-05
3.44448e-05
3.4446e-05
3.44451e-05
3.44422e-05
3.44379e-05
3.44328e-05
3.44273e-05
3.44213e-05
3.44146e-05
3.44071e-05
3.44003e-05
3.43957e-05
3.43945e-05
3.43953e-05
3.43943e-05
3.43881e-05
3.43892e-05
3.44077e-05
3.44273e-05
3.44328e-05
3.44143e-05
3.44042e-05
3.44511e-05
3.44425e-05
3.44058e-05
3.4405e-05
3.44049e-05
3.44055e-05
3.44066e-05
3.44079e-05
3.44087e-05
3.44084e-05
3.44066e-05
3.44032e-05
3.43982e-05
3.43936e-05
3.43921e-05
3.43923e-05
3.43928e-05
3.43928e-05
3.43917e-05
3.4389e-05
3.4385e-05
3.43826e-05
3.43862e-05
3.43936e-05
3.44019e-05
3.44099e-05
3.44169e-05
3.44231e-05
3.44288e-05
3.44341e-05
3.4439e-05
3.44433e-05
3.44461e-05
3.44471e-05
3.44459e-05
3.44427e-05
3.44381e-05
3.44328e-05
3.44272e-05
3.4421e-05
3.44141e-05
3.44065e-05
3.43996e-05
3.43952e-05
3.43941e-05
3.43949e-05
3.43937e-05
3.43875e-05
3.439e-05
3.44092e-05
3.44287e-05
3.44331e-05
3.44135e-05
3.44056e-05
3.44537e-05
3.44429e-05
3.44063e-05
3.44055e-05
3.44054e-05
3.44061e-05
3.44074e-05
3.44087e-05
3.44094e-05
3.4409e-05
3.4407e-05
3.44034e-05
3.43981e-05
3.43937e-05
3.43924e-05
3.43927e-05
3.43933e-05
3.43932e-05
3.43919e-05
3.4389e-05
3.4385e-05
3.4383e-05
3.43874e-05
3.43952e-05
3.44037e-05
3.44118e-05
3.44189e-05
3.4425e-05
3.44306e-05
3.44359e-05
3.44407e-05
3.44448e-05
3.44475e-05
3.44482e-05
3.44467e-05
3.44432e-05
3.44383e-05
3.44328e-05
3.4427e-05
3.44207e-05
3.44136e-05
3.44059e-05
3.4399e-05
3.43946e-05
3.43937e-05
3.43945e-05
3.43932e-05
3.4387e-05
3.43909e-05
3.44107e-05
3.443e-05
3.44334e-05
3.44126e-05
3.4407e-05
3.44562e-05
3.44432e-05
3.44081e-05
3.44068e-05
3.4406e-05
3.44059e-05
3.44067e-05
3.44081e-05
3.44094e-05
3.44101e-05
3.44096e-05
3.44074e-05
3.44035e-05
3.4398e-05
3.43938e-05
3.43928e-05
3.43932e-05
3.43937e-05
3.43936e-05
3.43921e-05
3.43889e-05
3.43849e-05
3.43836e-05
3.43886e-05
3.43968e-05
3.44056e-05
3.44137e-05
3.44208e-05
3.4427e-05
3.44325e-05
3.44377e-05
3.44425e-05
3.44464e-05
3.44488e-05
3.44493e-05
3.44475e-05
3.44437e-05
3.44385e-05
3.44328e-05
3.44268e-05
3.44203e-05
3.4413e-05
3.44052e-05
3.43983e-05
3.43941e-05
3.43932e-05
3.43941e-05
3.43926e-05
3.43865e-05
3.43919e-05
3.44123e-05
3.44313e-05
3.44335e-05
3.44117e-05
3.44086e-05
3.44587e-05
3.44435e-05
3.44085e-05
3.44072e-05
3.44064e-05
3.44065e-05
3.44074e-05
3.44088e-05
3.44102e-05
3.44108e-05
3.44101e-05
3.44077e-05
3.44035e-05
3.43978e-05
3.43939e-05
3.43932e-05
3.43937e-05
3.43942e-05
3.43939e-05
3.43922e-05
3.43889e-05
3.43849e-05
3.43843e-05
3.439e-05
3.43985e-05
3.44075e-05
3.44157e-05
3.44228e-05
3.44289e-05
3.44344e-05
3.44395e-05
3.44442e-05
3.44479e-05
3.44502e-05
3.44503e-05
3.44482e-05
3.44441e-05
3.44387e-05
3.44327e-05
3.44265e-05
3.44199e-05
3.44124e-05
3.44045e-05
3.43976e-05
3.43935e-05
3.43928e-05
3.43937e-05
3.4392e-05
3.43861e-05
3.43929e-05
3.44139e-05
3.44325e-05
3.44337e-05
3.44108e-05
3.44102e-05
3.44612e-05
3.44437e-05
3.44105e-05
3.4409e-05
3.44077e-05
3.44069e-05
3.4407e-05
3.4408e-05
3.44096e-05
3.44109e-05
3.44115e-05
3.44106e-05
3.4408e-05
3.44036e-05
3.43977e-05
3.43941e-05
3.43936e-05
3.43941e-05
3.43946e-05
3.43942e-05
3.43923e-05
3.43888e-05
3.43849e-05
3.4385e-05
3.43914e-05
3.44003e-05
3.44094e-05
3.44177e-05
3.44248e-05
3.44308e-05
3.44363e-05
3.44413e-05
3.44459e-05
3.44495e-05
3.44514e-05
3.44513e-05
3.44489e-05
3.44444e-05
3.44387e-05
3.44326e-05
3.44262e-05
3.44194e-05
3.44118e-05
3.44038e-05
3.43969e-05
3.43929e-05
3.43924e-05
3.43933e-05
3.43914e-05
3.43857e-05
3.4394e-05
3.44155e-05
3.44338e-05
3.44337e-05
3.44099e-05
3.4412e-05
3.44636e-05
3.44438e-05
3.44111e-05
3.44095e-05
3.44081e-05
3.44074e-05
3.44076e-05
3.44087e-05
3.44103e-05
3.44117e-05
3.44122e-05
3.44112e-05
3.44083e-05
3.44036e-05
3.43975e-05
3.43943e-05
3.4394e-05
3.43946e-05
3.4395e-05
3.43945e-05
3.43924e-05
3.43887e-05
3.43849e-05
3.43859e-05
3.43929e-05
3.44021e-05
3.44114e-05
3.44197e-05
3.44268e-05
3.44328e-05
3.44381e-05
3.44431e-05
3.44475e-05
3.4451e-05
3.44527e-05
3.44522e-05
3.44495e-05
3.44447e-05
3.44388e-05
3.44324e-05
3.44259e-05
3.44189e-05
3.44112e-05
3.44031e-05
3.43962e-05
3.43924e-05
3.43919e-05
3.43929e-05
3.43907e-05
3.43855e-05
3.43951e-05
3.44171e-05
3.44349e-05
3.44336e-05
3.44091e-05
3.44138e-05
3.44661e-05
3.44439e-05
3.44116e-05
3.44099e-05
3.44085e-05
3.44079e-05
3.44082e-05
3.44094e-05
3.44111e-05
3.44125e-05
3.44129e-05
3.44116e-05
3.44085e-05
3.44035e-05
3.43974e-05
3.43945e-05
3.43944e-05
3.43951e-05
3.43955e-05
3.43947e-05
3.43924e-05
3.43886e-05
3.4385e-05
3.43869e-05
3.43945e-05
3.4404e-05
3.44134e-05
3.44218e-05
3.44288e-05
3.44348e-05
3.444e-05
3.44449e-05
3.44492e-05
3.44524e-05
3.44539e-05
3.44532e-05
3.44501e-05
3.4445e-05
3.44388e-05
3.44322e-05
3.44255e-05
3.44184e-05
3.44105e-05
3.44023e-05
3.43955e-05
3.43918e-05
3.43915e-05
3.43924e-05
3.43901e-05
3.43854e-05
3.43964e-05
3.44187e-05
3.44361e-05
3.44335e-05
3.44083e-05
3.44157e-05
3.44685e-05
3.44439e-05
3.44121e-05
3.44104e-05
3.4409e-05
3.44084e-05
3.44088e-05
3.44101e-05
3.44119e-05
3.44133e-05
3.44136e-05
3.44121e-05
3.44087e-05
3.44034e-05
3.43973e-05
3.43948e-05
3.43949e-05
3.43956e-05
3.43959e-05
3.4395e-05
3.43925e-05
3.43885e-05
3.43852e-05
3.4388e-05
3.43961e-05
3.44059e-05
3.44155e-05
3.44239e-05
3.44309e-05
3.44367e-05
3.44419e-05
3.44467e-05
3.44509e-05
3.44539e-05
3.44551e-05
3.4454e-05
3.44506e-05
3.44452e-05
3.44388e-05
3.4432e-05
3.44251e-05
3.44178e-05
3.44098e-05
3.44016e-05
3.43948e-05
3.43912e-05
3.43911e-05
3.43919e-05
3.43895e-05
3.43853e-05
3.43976e-05
3.44203e-05
3.44372e-05
3.44333e-05
3.44075e-05
3.44176e-05
3.44709e-05
3.44438e-05
3.44125e-05
3.44108e-05
3.44094e-05
3.44089e-05
3.44094e-05
3.44108e-05
3.44127e-05
3.44141e-05
3.44142e-05
3.44126e-05
3.44089e-05
3.44033e-05
3.43972e-05
3.43951e-05
3.43953e-05
3.43961e-05
3.43963e-05
3.43952e-05
3.43924e-05
3.43883e-05
3.43855e-05
3.43892e-05
3.43978e-05
3.44079e-05
3.44176e-05
3.4426e-05
3.44329e-05
3.44387e-05
3.44438e-05
3.44485e-05
3.44525e-05
3.44553e-05
3.44563e-05
3.44549e-05
3.44511e-05
3.44454e-05
3.44387e-05
3.44317e-05
3.44247e-05
3.44172e-05
3.44091e-05
3.44008e-05
3.43941e-05
3.43907e-05
3.43906e-05
3.43915e-05
3.43889e-05
3.43854e-05
3.4399e-05
3.44219e-05
3.44382e-05
3.44331e-05
3.44068e-05
3.44197e-05
3.44732e-05
3.44437e-05
3.4413e-05
3.44112e-05
3.44099e-05
3.44094e-05
3.441e-05
3.44116e-05
3.44135e-05
3.44148e-05
3.44149e-05
3.4413e-05
3.4409e-05
3.44031e-05
3.43972e-05
3.43954e-05
3.43958e-05
3.43965e-05
3.43966e-05
3.43954e-05
3.43924e-05
3.43882e-05
3.43859e-05
3.43905e-05
3.43996e-05
3.441e-05
3.44198e-05
3.44281e-05
3.4435e-05
3.44407e-05
3.44457e-05
3.44503e-05
3.44541e-05
3.44567e-05
3.44574e-05
3.44556e-05
3.44515e-05
3.44455e-05
3.44386e-05
3.44314e-05
3.44242e-05
3.44166e-05
3.44083e-05
3.44e-05
3.43934e-05
3.43901e-05
3.43902e-05
3.4391e-05
3.43883e-05
3.43856e-05
3.44004e-05
3.44235e-05
3.44392e-05
3.44327e-05
3.44062e-05
3.44218e-05
3.44755e-05
3.44435e-05
3.44135e-05
3.44116e-05
3.44103e-05
3.44099e-05
3.44106e-05
3.44123e-05
3.44143e-05
3.44156e-05
3.44155e-05
3.44134e-05
3.44092e-05
3.44029e-05
3.43972e-05
3.43957e-05
3.43963e-05
3.4397e-05
3.4397e-05
3.43955e-05
3.43923e-05
3.43881e-05
3.43864e-05
3.43919e-05
3.44015e-05
3.44121e-05
3.44219e-05
3.44303e-05
3.44371e-05
3.44427e-05
3.44476e-05
3.4452e-05
3.44557e-05
3.44581e-05
3.44584e-05