/*--------------------------------*- C++ -*----------------------------------*\
  =========                 |
  \\      /  F ield         | OpenFOAM: The Open Source CFD Toolbox
   \\    /   O peration     | Website:  https://openfoam.org
    \\  /    A nd           | Version:  7
     \\/     M anipulation  |
\*---------------------------------------------------------------------------*/
FoamFile
{
    version     2.0;
    format      ascii;
    class       volScalarField;
    location    "1200";
    object      p;
}
// * * * * * * * * * * * * * * * * * * * * * * * * * * * * * * * * * * * * * //

dimensions      [0 2 -2 0 0 0 0];

internalField   nonuniform List<scalar> 
23023
(
1.90754
-0.351076
1.90337
-0.142963
-0.352382
1.89879
0.0272045
-0.139864
-0.353748
1.8939
0.0351532
-0.136438
-0.355247
1.88872
1.22345
0.0436776
-0.132654
-0.356895
1.88318
2.55891
1.23361
0.0527818
-0.128488
-0.358653
1.87724
3.96574
2.56771
1.24435
0.0624478
-0.123955
-0.360499
1.87096
5.05325
3.97117
2.57696
1.25565
0.0726437
-0.119076
-0.362442
1.86442
5.82721
5.05466
3.97688
2.58664
1.26747
0.0833399
-0.113861
-0.364503
1.85767
6.34602
5.82508
5.05621
3.98282
2.59672
1.2798
0.0945183
-0.10831
-0.366695
1.85074
6.34134
5.82305
5.05787
3.98896
2.60716
1.29261
0.106168
-0.10242
-0.369013
1.84361
6.77787
6.33682
5.8211
5.05961
3.99531
2.61796
1.30587
0.118281
-0.0961902
-0.371448
1.83628
7.25933
6.77181
6.33242
5.81919
5.06143
4.00185
2.62909
1.31959
0.130843
-0.0896245
-0.373987
1.82873
7.84658
7.25226
6.76598
6.32813
5.81736
5.06334
4.00856
2.64054
1.33374
0.143838
-0.0827298
-0.376625
1.82096
8.52061
7.8385
7.24552
6.76036
6.32396
5.81558
5.06532
4.01543
2.6523
1.3483
0.157252
-0.0755165
-0.379362
1.81296
8.51118
7.8308
7.23907
6.75494
6.31991
5.81385
5.06735
4.02245
2.66433
1.36326
0.171068
-0.0679984
-0.382197
1.80478
9.21655
8.50214
7.82345
7.23291
6.74973
6.31596
5.81215
5.06941
4.02959
2.67663
1.37859
0.185272
-0.0601931
-0.385132
1.79642
9.90472
9.20566
8.49348
7.81643
7.22703
6.74472
6.31209
5.81045
5.07149
4.03685
2.68919
1.39429
0.199846
-0.05212
-0.388164
1.78791
9.89168
9.19516
8.48515
7.80975
7.22144
6.73988
6.30827
5.80874
5.07359
4.04421
2.70198
1.41035
0.214771
-0.043797
-0.391289
1.77924
10.5418
9.87905
9.18502
8.47718
7.80339
7.21609
6.73519
6.30449
5.80704
5.0757
4.05168
2.715
1.42674
0.230028
-0.0352372
-0.394504
1.77041
11.1654
10.5268
9.86676
9.1752
8.46953
7.79732
7.21096
6.73063
6.30076
5.80534
5.07784
4.05925
2.72825
1.44346
0.245604
-0.0264484
-0.397805
1.76139
11.7798
11.148
10.5122
9.8548
9.16571
8.46219
7.79152
7.20603
6.72618
6.29709
5.80364
5.07999
4.06692
2.74171
1.46048
0.26149
-0.0174343
-0.401192
1.75217
12.3905
11.7601
11.1311
10.4979
9.84316
9.15654
8.45512
7.78595
7.20129
6.72185
6.29346
5.80196
5.08216
4.07468
2.75538
1.47779
0.277683
-0.00819704
-0.404666
1.74275
12.3686
11.741
11.1146
10.484
9.83183
9.14765
8.4483
7.7806
7.19673
6.71765
6.2899
5.80028
5.08435
4.08254
2.76925
1.4954
0.294186
0.0012599
-0.408229
1.73314
12.9632
12.3472
11.7222
11.0984
10.4703
9.82078
9.13902
8.44172
7.77548
7.19236
6.71358
6.2864
5.79862
5.08656
4.0905
2.78332
1.51329
0.310995
0.0109285
-0.411883
1.72334
13.5259
12.9395
12.3262
11.7037
11.0825
10.457
9.80999
9.13062
8.43536
7.77058
7.18818
6.70964
6.28296
5.79697
5.08879
4.09855
2.79759
1.53149
0.328106
0.0207962
-0.415628
1.71339
13.5001
12.9163
12.3056
11.6856
11.0669
10.444
9.79943
9.12244
8.42923
7.7659
7.1842
6.70582
6.27957
5.79533
5.09104
4.10669
2.81208
1.54997
0.345502
0.030847
-0.419463
1.70331
14.0175
13.4748
12.8934
12.2853
11.6679
11.0517
10.4312
9.78908
9.11446
8.42332
7.76145
7.1804
6.70213
6.27623
5.79369
5.09332
4.11494
2.82678
1.56875
0.363163
0.0410638
-0.423385
1.69313
14.4916
13.9901
13.4498
12.8709
12.2653
11.6504
11.0367
10.4186
9.77892
9.10669
8.41764
7.75722
7.17679
6.69856
6.27294
5.79207
5.09562
4.1233
2.84169
1.58781
0.381066
0.0514309
-0.427389
1.68287
14.4626
13.9633
13.4253
12.8488
12.2457
11.6333
11.0219
10.4062
9.76897
9.09913
8.41218
7.75319
7.17333
6.69508
6.26969
5.79045
5.09796
4.13176
2.85681
1.60712
0.399188
0.061936
-0.431472
1.67255
14.9039
14.434
13.9368
13.401
12.827
12.2264
11.6163
11.0073
10.394
9.75922
9.09178
8.40693
7.74936
7.17004
6.69171
6.26647
5.78883
5.10032
4.14032
2.8721
1.62666
0.417509
0.072571
-0.435631
1.66217
15.3318
14.8739
14.4059
13.9107
13.3772
12.8055
12.2073
11.5996
10.993
10.3821
9.74967
9.08463
8.40188
7.74571
7.16689
6.68842
6.26328
5.78721
5.1027
4.14897
2.88756
1.64641
0.436017
0.083333
-0.439864
1.65172
15.3006
14.8444
14.3782
13.8849
13.3536
12.7842
12.1884
11.5831
10.9788
10.3703
9.74031
9.07769
8.39702
7.74223
7.16387
6.68522
6.26011
5.7856
5.10511
4.15771
2.90317
1.66635
0.454708
0.0942222
-0.444171
1.6412
15.7331
15.27
14.8154
14.3509
13.8595
13.3303
12.7633
12.1698
11.5669
10.9649
10.3587
9.73115
9.07092
8.39234
7.73892
7.16098
6.68208
6.25697
5.78399
5.10754
4.16651
2.91891
1.68646
0.473582
0.105241
-0.448555
1.63059
16.184
15.7016
15.24
14.7868
14.3239
13.8344
13.3073
12.7425
12.1514
11.5508
10.9512
10.3473
9.72218
9.06434
8.38782
7.73575
7.15822
6.67903
6.25386
5.78238
5.10999
4.17538
2.93477
1.70675
0.492644
0.116391
-0.453017
1.61987
16.1517
15.6707
15.2105
14.7586
14.2973
13.8096
13.2845
12.722
12.1332
11.535
10.9377
10.3361
9.71337
9.05791
8.38346
7.73273
7.15556
6.67604
6.25078
5.78078
5.11245
4.18432
2.95076
1.72722
0.511901
0.127675
-0.457561
1.60903
16.6235
16.1202
15.6404
15.1814
14.7308
14.2711
13.785
13.262
12.7017
12.1153
11.5194
10.9243
10.3251
9.70473
9.05164
8.37925
7.72985
7.15302
6.67312
6.24772
5.77919
5.11494
4.19331
2.96688
1.74787
0.531357
0.139093
-0.462188
1.59807
17.1079
16.5913
16.0893
15.6107
15.1528
14.7035
14.2451
13.7607
13.2397
12.6816
12.0975
11.504
10.9112
10.3142
9.69624
9.04551
8.37519
7.72711
7.1506
6.67027
6.2447
5.77761
5.11745
4.20237
2.98314
1.76871
0.551016
0.150644
-0.466899
1.58698
17.5915
17.0752
16.5598
16.059
15.5814
15.1246
14.6764
14.2194
13.7367
13.2176
12.6617
12.08
11.4888
10.8983
10.3036
9.68788
9.03952
8.37126
7.72451
7.14828
6.66749
6.24171
5.77605
5.11998
4.21151
2.99954
1.78976
0.570876
0.162321
-0.471693
1.57576
18.0646
17.5583
17.0433
16.5291
16.0293
15.5527
15.0969
14.6497
14.194
13.7129
13.1957
12.6421
12.0627
11.4738
10.8855
10.293
9.67966
9.03366
8.36748
7.72204
7.14607
6.66478
6.23876
5.77449
5.12253
4.22072
3.01608
1.81101
0.59093
0.174117
-0.47657
1.56442
18.5302
18.031
17.526
17.0121
16.499
16.0001
15.5244
15.0695
14.6233
14.1688
13.6893
13.1741
12.6226
12.0456
11.4589
10.8728
10.2826
9.67155
9.02793
8.36383
7.71969
7.14396
6.66214
6.23584
5.77295
5.1251
4.23
3.03278
1.83245
0.611168
0.186024
-0.481531
1.55296
19.0072
18.4964
17.9985
17.4946
16.9816
16.4694
15.9715
15.4966
15.0425
14.5972
14.1439
13.6659
13.1526
12.6033
12.0286
11.4442
10.8604
10.2723
9.66357
9.02232
8.36031
7.71747
7.14196
6.65957
6.23295
5.77142
5.12771
4.23936
3.04963
1.85409
0.631576
0.198031
-0.486573
1.5414
18.9732
18.4638
17.9669
17.4639
16.9518
16.4405
15.9434
15.4692
15.0158
14.5714
14.1192
13.6427
13.1313
12.5843
12.0118
11.4297
10.848
10.2621
9.65572
9.01685
8.35692
7.71537
7.14005
6.65706
6.23008
5.76989
5.13033
4.2488
3.06661
1.87591
0.652141
0.210126
-0.491696
1.52976
19.4915
18.9406
18.4322
17.9361
17.4338
16.9226
16.4121
15.9157
15.4422
14.9894
14.5459
14.0948
13.6198
13.1103
12.5654
11.9952
11.4153
10.8358
10.2521
9.64798
9.01149
8.35366
7.71339
7.13824
6.65461
6.22724
5.76837
5.13297
4.25831
3.08373
1.89789
0.672846
0.222298
-0.496897
1.51804
20.0842
19.4587
18.9091
18.4015
17.9061
17.4046
16.8941
16.3843
15.8885
15.4156
14.9634
14.5206
14.0705
13.597
13.0894
12.5466
11.9787
11.401
10.8236
10.2421
9.64036
9.00626
8.35051
7.71152
7.13651
6.65222
6.22441
5.76684
5.13563
4.26788
3.10096
1.92003
0.693677
0.234538
-0.502174
1.50625
20.0512
19.4274
18.8787
18.3717
17.8769
17.3759
16.8661
16.3569
15.8618
15.3893
14.9377
14.4956
14.0465
13.5744
13.0686
12.528
11.9623
11.3869
10.8117
10.2323
9.63286
9.00115
8.34748
7.70975
7.13488
6.64988
6.22161
5.76531
5.1383
4.2775
3.1183
1.9423
0.714622
0.246839
-0.507521
1.49442
20.7456
20.02
19.3974
18.8493
18.3428
17.8484
17.3479
16.8387
16.33
15.8354
15.3634
14.9123
14.4708
14.0228
13.552
13.048
12.5095
11.9461
11.3729
10.7998
10.2226
9.62548
8.99615
8.34456
7.70808
7.13332
6.64759
6.21881
5.76378
5.14098
4.28718
3.13574
1.9647
0.735671
0.259194
-0.512934
1.48253
21.5564
20.7139
19.9902
19.3685
18.821
18.3147
17.8206
17.3205
16.8117
16.3036
15.8094
15.3378
14.8871
14.4463
13.9992
13.5298
13.0276
12.4912
11.93
11.359
10.7881
10.2131
9.6182
8.99125
8.34174
7.70652
7.13184
6.64534
6.21603
5.76224
5.14366
4.29691
3.15327
1.98722
0.756818
0.271601
-0.518406
1.47061
22.4859
21.524
20.684
19.9617
19.3408
18.7936
18.2875
17.7935
17.2937
16.7853
16.2776
15.7838
15.3126
14.8622
14.422
13.9757
13.5077
13.0073
12.473
11.9141
11.3453
10.7765
10.2036
9.61103
8.98646
8.33903
7.70505
7.13045
6.64314
6.21325
5.7607
5.14635
4.30667
3.17088
2.00984
0.778059
0.284058
-0.523931
1.45864
23.5267
22.4521
21.4935
20.6557
19.9346
19.3142
18.7671
18.261
17.767
17.2674
16.7594
16.252
15.7586
15.2876
14.8376
14.3979
13.9525
13.4858
12.9871
12.4549
11.8982
11.3317
10.765
10.1942
9.60397
8.98176
8.33642
7.70368
7.12912
6.64098
6.21049
5.75915
5.14906
4.31649
3.18857
2.03256
0.79939
0.296564
-0.529504
1.44664
24.6692
23.4908
22.4204
21.4648
20.6289
19.9088
19.2887
18.7415
18.2352
17.7412
17.2417
16.7339
16.2268
15.7337
15.2629
14.8132
14.374
13.9294
13.464
12.967
12.4369
11.8825
11.3182
10.7536
10.185
9.59699
8.97716
8.3339
7.7024
7.12788
6.63887
6.20774
5.7576
5.15177
4.32634
3.20634
2.05538
0.82081
0.309122
-0.53512
1.43461
25.9068
24.6303
23.4571
22.3906
21.4377
20.6034
19.8842
19.2642
18.7168
18.2101
17.7159
17.2164
16.7088
16.202
15.7091
15.2386
14.7891
14.3502
13.9065
13.4423
12.9471
12.4191
11.867
11.3048
10.7423
10.1758
9.59011
8.97265
8.33149
7.70122
7.12671
6.6368
6.205
5.75605
5.15449
4.33623
3.22419
2.0783
0.84232
0.321731
-0.540777
1.42254
27.2357
25.864
24.5937
23.4254
22.3626
21.4122
20.5794
19.8607
19.2407
18.6928
18.1857
17.6912
17.1916
16.6841
16.1776
15.6848
15.2144
14.7652
14.3267
13.8837
13.4207
12.9273
12.4014
11.8515
11.2916
10.7312
10.1668
9.58331
8.96823
8.32917
7.70012
7.1256
6.63476
6.20227
5.7545
5.15722
4.34617
3.24211
2.1013
0.863917
0.334392
-0.546474
1.41043
28.6504
27.1884
25.8238
24.5594
23.3956
22.3363
21.3882
20.5567
19.8384
19.2181
18.6696
18.1619
17.6669
17.1672
16.6598
16.1534
15.6608
15.1906
14.7414
14.3033
13.861
13.3993
12.9076
12.3839
11.8362
11.2785
10.7201
10.1578
9.5766
8.9639
8.32694
7.69912
7.12457
6.63277
6.19956
5.75296
5.15997
4.35615
3.26011
2.1244
0.885602
0.347105
-0.552209
1.39828
30.1385
28.5978
27.1437
25.7859
24.527
23.3677
22.3116
21.3657
20.5352
19.8171
19.1963
18.6472
18.1387
17.6432
17.1433
16.6359
16.1296
15.6372
15.167
14.7179
14.2801
13.8385
13.378
12.8881
12.3664
11.821
11.2654
10.7091
10.1489
9.56997
8.95966
8.3248
7.69819
7.12359
6.6308
6.19686
5.75142
5.16274
4.36617
3.27818
2.14759
0.907372
0.35987
-0.557984
1.38609
31.6817
30.08
28.548
27.1015
25.7501
24.4966
23.3416
22.2886
21.3446
20.5149
19.7968
19.1754
18.6254
18.116
17.62
17.1197
16.6123
16.1062
15.6138
15.1436
14.6946
14.257
13.8161
13.3569
12.8686
12.3491
11.8059
11.2525
10.6982
10.1401
9.56342
8.95551
8.32275
7.69735
7.12268
6.62888
6.19417
5.74989
5.16552
4.37623
3.29632
2.17087
0.929227
0.372685
-0.563798
1.37385
33.2615
31.6166
30.0243
28.5007
27.0615
25.7164
24.4682
23.3172
22.267
21.3247
20.4958
19.7775
19.1553
18.6043
18.0939
17.5972
17.0966
16.5891
16.083
15.5906
15.1204
14.6714
14.2342
13.7939
13.3359
12.8493
12.3319
11.7909
11.2396
10.6874
10.1314
9.55695
8.95143
8.32079
7.69658
7.12182
6.62698
6.19149
5.74836
5.16832
4.38633
3.31453
2.19424
0.951164
0.385548
-0.569654
1.36158
34.8648
33.1894
31.5546
29.9713
28.4557
27.0237
25.6848
24.4415
23.2943
22.2468
21.3061
20.4777
19.7591
19.136
18.5838
18.0724
17.5748
17.0738
16.5662
16.0601
15.5677
15.0975
14.6485
14.2114
13.7718
13.315
12.8301
12.3147
11.7759
11.2268
10.6767
10.1227
9.55056
8.94744
8.3189
7.69588
7.12101
6.62511
6.18883
5.74684
5.17113
4.39648
3.33282
2.2177
0.973181
0.398458
-0.575546
1.34926
36.4882
34.7852
33.1204
31.4952
29.9208
28.4132
26.9881
25.6551
24.4166
23.273
22.228
21.2887
20.4606
19.7415
19.1174
18.5639
18.0513
17.5528
17.0514
16.5437
16.0375
15.5451
15.0747
14.6257
14.1888
13.7499
13.2942
12.811
12.2977
11.7611
11.2141
10.666
10.1141
9.54425
8.94353
8.31709
7.69524
7.12025
6.62327
6.18618
5.74532
5.17396
4.40667
3.35117
2.24125
0.99528
0.411406
-0.581484
1.33681
38.1393
36.4006
34.7088
33.0542
31.4385
29.8727
28.3728
26.9545
25.6271
24.3932
23.2531
22.2105
21.2724
20.4446
19.7249
19.0996
18.5446
18.0307
17.5313
17.0294
16.5214
16.0152
15.5227
15.0522
14.6031
14.1664
13.7281
13.2735
12.792
12.2807
11.7463
11.2015
10.6555
10.1056
9.53801
8.93969
8.31535
7.69467
7.11953
6.62146
6.18354
5.74381
5.17681
4.41689
3.36959
2.26489
1.01744
0.424396
-0.587512
1.32428
39.8392
38.0432
36.3164
34.6355
32.9909
31.3844
29.8269
28.3346
26.9228
25.6009
24.3713
23.2346
22.1942
21.2573
20.4295
19.709
19.0824
18.5258
18.0105
17.5102
17.0077
16.4995
15.9932
15.5005
15.0299
14.5807
14.1441
13.7063
13.2529
12.773
12.2638
11.7317
11.189
10.645
10.0972
9.53185
8.93592
8.31367
7.69415
7.11886
6.61968
6.18091
5.74231
5.17968
4.42716
3.38808
2.28859
1.03968
0.437478
-0.593559
1.31188
41.6227
39.7341
37.9508
36.2355
34.565
32.9301
31.3326
29.7834
28.2983
26.8928
25.5762
24.351
23.2174
22.1791
21.2432
20.4154
19.6939
19.0658
18.5076
17.9909
17.4894
16.9863
16.4778
15.9714
15.4786
15.0077
14.5584
14.122
13.6847
13.2324
12.7542
12.247
11.7171
11.1765
10.6346
10.0888
9.52575
8.93222
8.31206
7.69368
7.11823
6.61792
6.17829
5.74082
5.18256
4.43747
3.40663
2.31238
1.06211
0.450644
-0.599452
1.29965
41.508
39.633
37.862
36.1576
34.4974
32.8719
31.2831
29.7418
28.2639
26.8646
25.5531
24.332
23.2015
22.1652
21.2301
20.4021
19.6796
19.0499
18.49
17.9716
17.469
16.9652
16.4564
15.9498
15.4569
14.9858
14.5363
14.0999
13.6632
13.2119
12.7354
12.2303
11.7026
11.1642
10.6242
10.0806
9.51972
8.92858
8.31049
7.69326
7.11763
6.61618
6.17569
5.73933
5.18546
4.44781
3.42524
2.33639
1.08468
0.463751
-0.605212
1.28745
43.4104
41.3977
39.5359
37.7765
36.0828
34.4324
32.8161
31.2358
29.7022
28.2312
26.8379
25.5315
24.3144
23.1869
22.1524
21.218
20.3897
19.666
19.0345
18.4728
17.9528
17.449
16.9445
16.4353
15.9285
15.4353
14.964
14.5143
14.078
13.6418
13.1916
12.7167
12.2136
11.6882
11.1519
10.614
10.0723
9.51375
8.92499
8.30899
7.69289
7.11708
6.61447
6.17309
5.73785
5.18837
4.45819
3.44404
2.36054
1.10705
0.476729
-0.610965
1.27526
43.2902
41.2918
39.4424
37.6943
36.0108
34.3699
32.7625
31.1904
29.6645
28.2002
26.8129
25.5114
24.2982
23.1735
22.1406
21.2068
20.3781
19.6531
19.0198
18.4561
17.9344
17.4293
16.924
16.4144
15.9074
15.414
14.9424
14.4924
14.0562
13.6204
13.1713
12.6981
12.1971
11.6738
11.1397
10.6038
10.0642
9.50784
8.92146
8.30753
7.69257
7.11656
6.61277
6.1705
5.73637
5.1913
4.46869
3.46294
2.38444
1.12916
0.48962
-0.616717
1.26309
45.3579
43.1748
41.1899
39.3525
37.6152
35.9415
34.3098
32.711
31.147
29.6285
28.1709
26.7894
25.4927
24.2832
23.1612
22.1299
21.1966
20.3672
19.6408
19.0056
18.4399
17.9164
17.4099
16.9038
16.3938
15.8865
15.3929
14.9209
14.4707
14.0344
13.5991
13.1511
12.6795
12.1806
11.6596
11.1276
10.5937
10.0561
9.50197
8.91797
8.30612
7.69228
7.11607
6.61111
6.16793
5.7349
5.19427
4.47924
3.48162
2.40804
1.15117
0.502479
-0.622417
1.25099
45.2324
43.0639
41.092
39.266
37.5389
35.8748
34.2519
32.6615
31.1054
29.5942
28.1433
26.7673
25.4753
24.2695
23.15
22.1202
21.1872
20.3572
19.6292
18.992
18.4241
17.8987
17.3909
16.8839
16.3734
15.8659
15.3719
14.8996
14.4491
14.0128
13.578
13.131
12.661
12.1642
11.6454
11.1156
10.5836
10.0481
9.49616
8.91454
8.30475
7.69204
7.11562
6.60946
6.16536
5.73343
5.19725
4.48963
3.50005
2.43155
1.17315
0.515323
-0.628043
1.23894
45.1119
42.9574
40.9978
39.1827
37.4654
35.8104
34.1961
32.6139
31.0657
29.5617
28.1171
26.7467
25.4593
24.2569
23.1398
22.1114
21.1786
20.3478
19.6183
18.9789
18.4088
17.8814
17.3721
16.8642
16.3533
15.8454
15.3511
14.8784
14.4276
13.9912
13.5569
13.1109
12.6427
12.1479
11.6313
11.1036
10.5736
10.0401
9.49039
8.91114
8.30343
7.69185
7.1152
6.60783
6.16279
5.73196
5.20016
4.49987
3.51842
2.45504
1.19509
0.52814
-0.633603
1.22695
44.9962
42.8551
40.9072
39.1025
37.3945
35.7482
34.1424
32.5683
31.0276
29.5307
28.0925
26.7275
25.4445
24.2455
23.1307
22.1035
21.1709
20.3392
19.6079
18.9663
18.3938
17.8644
17.3536
16.8447
16.3333
15.8251
15.3304
14.8573
14.4062
13.9698
13.5358
13.091
12.6244
12.1317
11.6173
11.0917
10.5637
10.0321
9.48466
8.90779
8.30215
7.69169
7.11481
6.60621
6.1602
5.73045
5.20301
4.5101
3.53679
2.47847
1.21694
0.540915
-0.639105
1.21502
47.2464
44.8851
42.7569
40.82
39.025
37.3261
35.6884
34.0907
32.5245
30.9913
29.5013
28.0693
26.7096
25.4309
24.2351
23.1226
22.0965
21.164
20.3313
19.5982
18.9542
18.3793
17.8477
17.3353
16.8255
16.3135
15.8049
15.3099
14.8364
14.3849
13.9484
13.5149
13.0711
12.6061
12.1155
11.6033
11.0798
10.5538
10.0242
9.47897
8.90447
8.30092
7.69157
7.11445
6.60458
6.1576
5.72895
5.20587
4.52034
3.55511
2.50179
1.23869
0.553645
-0.644541
1.20314
47.1256
44.7784
42.6624
40.736
38.9503
37.2601
35.6306
34.0409
32.4824
30.9566
29.4734
28.0475
26.693
25.4184
24.2258
23.1154
22.0904
21.1578
20.324
19.5889
18.9425
18.3651
17.8313
17.3173
16.8065
16.2939
15.7849
15.2895
14.8156
14.3637
13.9271
13.4941
13.0513
12.588
12.0994
11.5894
11.068
10.5439
10.0163
9.47332
8.9012
8.29972
7.69148
7.11408
6.60293
6.15501
5.72745
5.20874
4.53053
3.57332
2.52501
1.26036
0.566337
-0.649902
1.19133
49.6004
47.0097
44.6761
42.5716
40.655
38.8783
37.1964
35.575
33.9931
32.4421
30.9235
29.447
28.027
26.6776
25.4071
24.2176
23.1092
22.0851
21.1524
20.3174
19.5802
18.9312
18.3512
17.8152
17.2996
16.7877
16.2745
15.7651
15.2693
14.7949
14.3426
13.906
13.4733
13.0316
12.5699
12.0834
11.5755
11.0562
10.5341
10.0085
9.46771
8.89796
8.29855
7.69139
7.11366
6.60126
6.15242
5.72596
5.21158
4.54065
3.59145
2.54812
1.28194
0.578994
-0.655182
1.17957
49.4743
46.8985
44.5778
42.4842
40.577
38.8089
37.1351
35.5213
33.947
32.4034
30.8919
29.422
28.0078
26.6634
25.3968
24.2103
23.1039
22.0807
21.1476
20.3113
19.572
18.9204
18.3377
17.7994
17.2821
16.7691
16.2553
15.7454
15.2492
14.7743
14.3216
13.8849
13.4526
13.0119
12.5518
12.0674
11.5617
11.0445
10.5243
10.0007
9.46213
8.89474
8.29736
7.69123
7.11321
6.59958
6.14983
5.72446
5.21439
4.55072
3.6095
2.57114
1.30344
0.591615
-0.66038
1.16788
49.3533
46.7918
44.4834
42.4
40.5018
38.7419
37.0759
35.4696
33.9026
32.3662
30.8617
29.3983
27.9899
26.6503
25.3877
24.204
23.0994
22.0769
21.1435
20.3058
19.5642
18.9099
18.3245
17.7838
17.2647
16.7507
16.2362
15.7259
15.2292
14.7538
14.3008
13.8639
13.432
12.9923
12.5339
12.0514
11.5479
11.0328
10.5146
9.99298
9.45655
8.89149
8.29611
7.69102
7.11273
6.59788
6.14721
5.72293
5.21717
4.56074
3.62746
2.59405
1.32484
0.604198
-0.665492
1.15624
49.2372
46.6894
44.3927
42.3189
40.4294
38.6774
37.0188
35.4198
33.86
32.3306
30.8329
29.3758
27.9731
26.6383
25.3795
24.1986
23.0957
22.0739
21.1401
20.3008
19.5569
18.8998
18.3116
17.7685
17.2477
16.7324
16.2173
15.7066
15.2094
14.7335
14.28
13.843
13.4115
12.9728
12.5159
12.0355
11.5342
11.0212
10.5049
9.98521
9.45092
8.88818
8.29481
7.69077
7.11221
6.59615
6.14458
5.7214
5.21993
4.57071
3.64533
2.61685
1.34616
0.616741
-0.670518
1.14467
49.1258
46.5913
44.3054
42.241
40.3597
38.6153
36.9638
35.3717
33.8189
32.2964
30.8054
29.3546
27.9575
26.6274
25.3722
24.194
23.0928
22.0715
21.1372
20.2963
19.55
18.8901
18.299
17.7535
17.2308
16.7144
16.1985
15.6873
15.1897
14.7132
14.2593
13.8221
13.391
12.9533
12.498
12.0197
11.5205
11.0096
10.4952
9.97737
9.44525
8.88483
8.29347
7.69049
7.11166
6.5944
6.14194
5.71986
5.22267
4.58063
3.66311
2.63954
1.36737
0.629244
-0.675454
1.13316
49.019
46.4972
44.2216
42.1659
40.2926
38.5554
36.9107
35.3254
33.7793
32.2636
30.7792
29.3346
27.943
26.6175
25.3659
24.1903
23.0906
22.0698
21.1348
20.2923
19.5436
18.8807
18.2867
17.7386
17.2141
16.6965
16.18
15.6682
15.1701
14.6931
14.2387
13.8014
13.3706
12.9338
12.4802
12.0038
11.5069
10.9979
10.4853
9.96951
9.43956
8.88145
8.29209
7.69016
7.11107
6.59262
6.13929
5.71832
5.22539
4.59048
3.6808
2.66212
1.38849
0.641704
-0.680298
1.12172
48.9166
46.4068
44.1409
42.0938
40.228
38.4976
36.8595
35.2807
33.7412
32.2322
30.7543
29.3158
27.9296
26.6085
25.3605
24.1873
23.0891
22.0687
21.1331
20.2888
19.5375
18.8717
18.2747
17.724
17.1976
16.6788
16.1615
15.6493
15.1506
14.6731
14.2182
13.7807
13.3502
12.9144
12.4624
11.9881
11.4932
10.9862
10.4755
9.96165
9.43385
8.87804
8.29066
7.68978
7.11043
6.59082
6.13663
5.71676
5.22808
4.60028
3.69839
2.68458
1.4095
0.654121
-0.685048
1.11034
48.8184
46.3199
44.0634
42.0244
40.1658
38.4419
36.81
35.2375
33.7045
32.202
30.7305
29.298
27.9171
26.6005
25.3558
24.1851
23.0882
22.0682
21.1318
20.2858
19.5319
18.8629
18.2629
17.7096
17.1812
16.6612
16.1432
15.6305
15.1313
14.6531
14.1977
13.76
13.3299
12.8951
12.4446
11.9722
11.4794
10.9744
10.4657
9.95376
9.4281
8.87457
8.28918
7.68934
7.10976
6.58899
6.13396
5.7152
5.23075
4.61002
3.71588
2.70692
1.43041
0.666493
-0.689699
1.09904
48.724
46.2364
43.989
41.9578
40.1059
38.3881
36.7622
35.1958
33.6691
32.1731
30.7079
29.2813
27.9057
26.5933
25.352
24.1835
23.088
22.0683
21.1311
20.2832
19.5266
18.8545
18.2514
17.6954
17.1651
16.6438
16.125
15.6117
15.112
14.6333
14.1774
13.7394
13.3096
12.8758
12.4267
11.9562
11.4655
10.9627
10.4559
9.94583
9.42229
8.87104
8.28763
7.68885
7.10903
6.58713
6.13128
5.71364
5.2334
4.61969
3.73327
2.72913
1.4512
0.678817
-0.694247
1.08781
48.6335
46.1563
43.9175
41.8937
40.0481
38.3362
36.716
35.1555
33.635
32.1453
30.6864
29.2656
27.8951
26.587
25.3489
24.1827
23.0885
22.069
21.1309
20.2811
19.5217
18.8464
18.2401
17.6815
17.1491
16.6265
16.107
15.5932
15.0929
14.6135
14.157
13.7189
13.2893
12.8563
12.4087
11.9402
11.4518
10.9509
10.446
9.93784
9.41643
8.86746
8.28604
7.68831
7.10827
6.58524
6.12858
5.71206
5.23601
4.6293
3.75054
2.75121
1.47189
0.691093
-0.698686
1.07667
48.5466
46.0793
43.8488
41.832
39.9925
38.2861
36.6714
35.1166
33.6022
32.1187
30.6659
29.2509
27.8854
26.5815
25.3466
24.1826
23.0895
22.0702
21.1311
20.2793
19.5171
18.8386
18.229
17.6676
17.1332
16.6094
16.0891
15.5747
15.0738
14.5938
14.1368
13.6984
13.269
12.8367
12.3908
11.9244
11.438
10.9391
10.436
9.92979
9.41051
8.86382
8.28438
7.6877
7.10745
6.58333
6.12588
5.71047
5.2386
4.63884
3.7677
2.77314
1.49245
0.70332
-0.703012
1.06561
48.4632
46.0054
43.7829
41.7727
39.9389
38.2377
36.6282
35.0791
33.5705
32.0931
30.6464
29.2371
27.8766
26.5768
25.345
24.1831
23.0912
22.072
21.1319
20.278
19.5129
18.831
18.2182
17.654
17.1176
16.5924
16.0713
15.5563
15.0548
14.5742
14.1166
13.6778
13.2485
12.8172
12.3729
11.9084
11.4241
10.9272
10.426
9.92169
9.40454
8.86012
8.28265
7.68704
7.10659
6.58138
6.12316
5.70887
5.24115
4.6483
3.78474
2.79494
1.51289
0.715499
-0.707218
1.05463
48.3831
45.9345
43.7196
41.7157
39.8871
38.1909
36.5865
35.0428
33.54
32.0686
30.6279
29.2241
27.8686
26.5728
25.3441
24.1843
23.0935
22.0742
21.1331
20.2771
19.509
18.8237
18.2076
17.6406
17.102
16.5755
16.0536
15.538
15.0359
14.5546
14.0963
13.657
13.228
12.7978
12.355
11.8924
11.4102
10.9153
10.416
9.91355
9.39852
8.85636
8.28086
7.68631
7.10568
6.57941
6.12042
5.70726
5.24367
4.65769
3.80165
2.81658
1.5332
0.727631
-0.711297
1.04375
48.3064
45.8666
43.6589
41.6608
39.8372
38.1456
36.5462
35.0077
33.5106
32.0452
30.6103
29.2121
27.8614
26.5696
25.3439
24.1861
23.0963
22.077
21.1347
20.2765
19.5054
18.8167
18.1971
17.6272
17.0866
16.5588
16.036
15.5198
15.0171
14.535
14.0759
13.6363
13.2077
12.7784
12.337
11.8764
11.3962
10.9033
10.4059
9.90534
9.39243
8.85254
8.279
7.68551
7.10472
6.5774
6.11768
5.70564
5.24614
4.66699
3.81843
2.83806
1.55338
0.739715
-0.715245
1.03296
48.2328
45.8014
43.6006
41.6079
39.7889
38.1019
36.5071
34.9738
33.4823
32.0226
30.5936
29.2008
27.855
26.5671
25.3443
24.1885
23.0996
22.0803
21.1367
20.2763
19.5021
18.8098
18.1869
17.6141
17.0713
16.5421
16.0185
15.5017
14.9982
14.5152
14.0555
13.6157
13.1873
12.7588
12.3189
11.8602
11.3822
10.8913
10.3957
9.89707
9.38628
8.84865
8.27707
7.68465
7.1037
6.57536
6.11491
5.704
5.24858
4.6762
3.83508
2.85938
1.57343
0.751754
-0.719053
1.02226
48.1622
45.7389
43.5445
41.557
39.7424
38.0596
36.4694
34.9411
33.455
32.0011
30.5777
29.1904
27.8493
26.5653
25.3454
24.1914
23.1035
22.084
21.1392
20.2763
19.499
18.8032
18.1768
17.6011
17.0562
16.5256
16.0011
15.4835
14.9791
14.4954
14.0352
13.5951
13.1669
12.7392
12.3008
11.8441
11.3681
10.8792
10.3854
9.88874
9.38006
8.84468
8.27506
7.68372
7.10262
6.57328
6.11212
5.70233
5.25098
4.68532
3.85158
2.88053
1.59334
0.763748
-0.722718
1.01166
48.0946
45.679
43.4907
41.508
39.6975
38.0187
36.4329
34.9094
33.4286
31.9804
30.5627
29.1808
27.8444
26.5642
25.3471
24.195
23.1078
22.0881
21.142
20.2767
19.4962
18.7968
18.1669
17.5882
17.0412
16.5091
15.9837
15.4652
14.9601
14.4757
14.0148
13.5744
13.1463
12.7195
12.2827
11.8278
11.3539
10.867
10.3751
9.88035
9.37378
8.84064
8.27298
7.68271
7.10148
6.57117
6.10932
5.70065
5.25333
4.69435
3.86792
2.90151
1.6131
0.775699
-0.726235
1.00116
48.0298
45.6216
43.439
41.4608
39.6541
37.9792
36.3976
34.8788
33.4033
31.9605
30.5485
29.1719
27.8401
26.5637
25.3494
24.199
23.1126
22.0926
21.1451
20.2774
19.4936
18.7906
18.1571
17.5755
17.0262
16.4927
15.9661
15.4468
14.9412
14.456
13.9943
13.5535
13.1257
12.6998
12.2644
11.8115
11.3397
10.8548
10.3648
9.87188
9.36742
8.83652
8.27081
7.68162
7.10028
6.56901
6.10649
5.69896
5.25563
4.70328
3.88412
2.9223
1.63273
0.787606
-0.729599
0.990749
47.9676
45.5665
43.3893
41.4153
39.6123
37.941
36.3634
34.8492
33.3788
31.9416
30.5351
29.1637
27.8366
26.5638
25.3522
24.2036
23.1179
22.0975
21.1486
20.2784
19.4913
18.7845
18.1475
17.5629
17.0113
16.476
15.9485
15.4286
14.9221
14.4361
13.9737
13.5326
13.105
12.68
12.2462
11.7952
11.3254
10.8425
10.3543
9.86335
9.36099
8.83232
8.26856
7.68046
7.09902
6.56681
6.10364
5.69723
5.25788
4.7121
3.90015
2.94292
1.6522
0.799471
-0.732804
0.980443
47.9081
45.5137
43.3415
41.3714
39.5719
37.9041
36.3303
34.8206
33.3552
31.9234
30.5224
29.1563
27.8337
26.5646
25.3556
24.2086
23.1235
22.1028
21.1523
20.2796
19.4891
18.7787
18.1381
17.5503
16.9962
16.4594
15.9309
15.4102
14.9029
14.4161
13.9531
13.5117
13.0843
12.6602
12.2278
11.7787
11.311
10.8301
10.3438
9.85474
9.35447
8.82804
8.26622
7.6792
7.09768
6.56457
6.10077
5.69549
5.26008
4.72081
3.91602
2.96334
1.67153
0.811293
-0.735846
0.970239
47.851
45.4629
43.2956
41.3292
39.5329
37.8684
36.2983
34.7929
33.3324
31.906
30.5105
29.1495
27.8314
26.5659
25.3594
24.214
23.1296
22.1084
21.1564
20.2811
19.4872
18.773
18.1286
17.5375
16.9811
16.4428
15.9132
15.3917
14.8836
14.396
13.9324
13.4907
13.0635
12.6403
12.2094
11.7622
11.2966
10.8176
10.3332
9.84604
9.34788
8.82367
8.26378
7.67786
7.09628
6.56228
6.09787
5.69373
5.26223
4.72941
3.93172
2.98357
1.69071
0.823072
-0.738719
0.960138
47.7963
45.4143
43.2514
41.2885
39.4953
37.8338
36.2672
34.7661
33.3105
31.8893
30.4992
29.1433
27.8297
26.5677
25.3638
24.2199
23.136
22.1143
21.1607
20.2828
19.4855
18.7674
18.1191
17.5247
16.966
16.426
15.8954
15.373
14.8642
14.3759
13.9116
13.4696
13.0427
12.6203
12.1909
11.7456
11.282
10.8051
10.3225
9.83727
9.3412
8.8192
8.26125
7.67643
7.0948
6.55994
6.09495
5.69194
5.26432
4.7379
3.94725
3.0036
1.70972
0.834806
-0.741418
0.950146
47.7438
45.3676
43.209
41.2494
39.4589
37.8003
36.2372
34.7401
33.2893
31.8734
30.4886
29.1378
27.8285
26.57
25.3685
24.2261
23.1428
22.1206
21.1654
20.2848
19.4839
18.7617
18.1095
17.5119
16.9507
16.4091
15.8774
15.3543
14.8447
14.3556
13.8907
13.4484
13.0217
12.6002
12.1723
11.729
11.2674
10.7924
10.3118
9.82841
9.33443
8.81464
8.25862
7.67491
7.09324
6.55756
6.09201
5.69012
5.26635
4.74626
3.96259
3.02343
1.72858
0.846495
-0.743936
0.940266
47.6935
45.3228
43.1683
41.2117
39.4238
37.7679
36.208
34.7149
33.2689
31.8582
30.4787
29.1328
27.8279
26.5728
25.3737
24.2328
23.1499
22.1271
21.1703
20.2869
19.4822
18.7558
18.0998
17.499
16.9353
16.3921
15.8593
15.3354
14.8251
14.3353
13.8697
13.4271
13.0007
12.5801
12.1537
11.7122
11.2527
10.7797
10.3009
9.81946
9.32756
8.80998
8.25589
7.67328
7.09161
6.55513
6.08904
5.68827
5.26831
4.7545
3.97775
3.04304
1.74727
0.858138
-0.746267
0.930503
47.6454
45.2799
43.1291
41.1753
39.3898
37.7365
36.1797
34.6906
33.2491
31.8436
30.4693
29.1284
27.8278
26.576
25.3794
24.2398
23.1573
22.1339
21.1753
20.2889
19.4804
18.7499
18.0899
17.4858
16.9197
16.3749
15.8412
15.3165
14.8054
14.3148
13.8487
13.4058
12.9796
12.5599
12.1349
11.6954
11.2379
10.7669
10.29
9.81042
9.3206
8.80521
8.25304
7.67155
7.0899
6.55264
6.08604
5.6864
5.27021
4.76261
3.99271
3.06244
1.76579
0.869732
-0.748402
0.920861
47.5992
45.2387
43.0915
41.1403
39.357
37.706
36.1523
34.667
33.2301
31.8296
30.4605
29.1246
27.8281
26.5797
25.3854
24.2471
23.1651
22.141
21.1803
20.2907
19.4783
18.7436
18.0798
17.4725
16.904
16.3576
15.8228
15.2974
14.7856
14.2942
13.8275
13.3843
12.9585
12.5396
12.1161
11.6784
11.223
10.754
10.2789
9.80127
9.31353
8.80033
8.25008
7.66972
7.0881
6.55011
6.083
5.68449
5.27204
4.77058
4.00748
3.08162
1.78413
0.881278
-0.750336
0.911345
47.555
45.1992
43.0554
41.1066
39.3253
37.6765
36.1257
34.6441
33.2117
31.8162
30.4523
29.1212
27.829
26.5838
25.3918
24.2548
23.1731
22.148
21.185
20.2922
19.4759
18.7372
18.0695
17.459
16.8882
16.3402
15.8044
15.2781
14.7656
14.2736
13.8062
13.3628
12.9372
12.5192
12.0972
11.6614
11.208
10.7409
10.2678
9.79202
9.30635
8.79533
8.247
7.66777
7.08621
6.54751
6.07994
5.68255
5.27379
4.77841
4.02203
3.10055
1.80229
0.892774
-0.75206
0.901959
47.5126
45.1613
43.0207
41.0741
39.2946
37.6479
36.0998
34.6219
33.194
31.8034
30.4446
29.1183
27.8302
26.5883
25.3985
24.2628
23.181
22.1546
21.1894
20.2934
19.4733
18.7306
18.0591
17.4454
16.8722
16.3226
15.7858
15.2588
14.7456
14.2528
13.7848
13.3412
12.9158
12.4987
12.0782
11.6442
11.1929
10.7278
10.2565
9.78266
9.29906
8.79021
8.24379
7.66571
7.08423
6.54486
6.07684
5.68056
5.27547
4.7861
4.03637