/*--------------------------------*- C++ -*----------------------------------*\
  =========                 |
  \\      /  F ield         | OpenFOAM: The Open Source CFD Toolbox
   \\    /   O peration     | Website:  https://openfoam.org
    \\  /    A nd           | Version:  7
     \\/     M anipulation  |
\*---------------------------------------------------------------------------*/
FoamFile
{
    version     2.0;
    format      ascii;
    class       surfaceScalarField;
    location    "1200";
    object      phi;
}
// * * * * * * * * * * * * * * * * * * * * * * * * * * * * * * * * * * * * * //

dimensions      [0 3 -1 0 0 0 0];

internalField   nonuniform List<scalar> 
45693
(
-0.00164571
0.0639495
-0.00164568
0.0621799
-0.00157943
0.0639488
-0.00164678
0.0602131
-0.00157938
0.0621798
-0.00151591
0.0639482
0.0581785
-0.00158045
0.0602142
-0.00151585
0.0621798
-0.00145481
0.0639476
-0.00158103
0.0581791
-0.00151689
0.0602152
-0.00145473
0.0621797
-0.00139623
0.063947
-0.00158109
0.0561803
-0.00151747
0.0581797
-0.00145574
0.0602162
-0.00139613
0.0621796
-0.00134006
0.0639464
-0.00158056
0.0542572
-0.00151755
0.0561804
-0.00145631
0.0581803
-0.0013971
0.0602172
-0.00133995
0.0621795
-0.00128611
0.0639458
-0.00157971
0.0524681
-0.00151705
0.0542567
-0.00145641
0.0561805
-0.00139768
0.0581808
-0.00134089
0.0602181
-0.00128598
0.0621793
-0.00123432
0.0639452
-0.00157881
0.0507825
-0.00151624
0.0524673
-0.00145595
0.0542562
-0.00139779
0.0561806
-0.00134145
0.0581814
-0.00128688
0.0602191
-0.00123417
0.0621792
-0.00118459
0.0639446
-0.00157809
0.0491641
-0.00151538
0.0507817
-0.00145518
0.0524665
-0.00139737
0.0542558
-0.00134158
0.0561808
-0.00128744
0.058182
-0.00123504
0.0602199
-0.00118443
0.062179
-0.00113692
0.063944
0.0476109
-0.00151468
0.0491634
-0.00145435
0.0507808
-0.00139663
0.0524658
-0.00134119
0.0542554
-0.00128759
0.0561809
-0.0012356
0.0581825
-0.00118527
0.0602208
-0.00113674
0.0621788
-0.00109116
0.0639435
-0.00151421
0.0476105
-0.00145368
0.0491628
-0.00139584
0.05078
-0.00134049
0.0524651
-0.00128723
0.0542551
-0.00123575
0.0561811
-0.00118581
0.0581831
-0.00113755
0.0602216
-0.00109098
0.0621787
-0.00104722
0.0639429
-0.00151391
0.0460812
-0.00145323
0.04761
-0.00139519
0.0491621
-0.00133973
0.0507793
-0.00128656
0.0524644
-0.00123542
0.0542547
-0.00118598
0.0561812
-0.00113809
0.0581836
-0.00109175
0.0602224
-0.00104702
0.0621785
-0.00100509
0.0639424
-0.00151366
0.0445844
-0.00145294
0.0460809
-0.00139476
0.0476096
-0.00133911
0.0491615
-0.00128584
0.0507786
-0.00123479
0.0524638
-0.00118568
0.0542544
-0.00113827
0.0561814
-0.00109228
0.0581841
-0.00104777
0.0602231
-0.00100487
0.0621782
-0.000964614
0.0639418
-0.00151336
0.0431264
-0.0014527
0.0445842
-0.00139448
0.0460806
-0.00133869
0.0476092
-0.00128524
0.0491609
-0.0012341
0.0507779
-0.00118508
0.0524632
-0.001138
0.0542542
-0.00109247
0.0561816
-0.00104829
0.0581847
-0.00100559
0.0602238
-0.00096439
0.062178
-0.000925751
0.0639413
0.041704
-0.00145242
0.0431261
-0.00139426
0.044584
-0.00133843
0.0460804
-0.00128484
0.0476088
-0.00123352
0.0491603
-0.00118442
0.0507772
-0.00113743
0.0524626
-0.00109222
0.0542539
-0.00104848
0.0561818
-0.0010061
0.0581852
-0.000965075
0.0602245
-0.000925516
0.0621778
-0.000888497
0.0639408
-0.00145206
0.0417037
-0.00139399
0.0431258
-0.00133822
0.0445837
-0.00128458
0.0460801
-0.00123313
0.0476084
-0.00118386
0.0491598
-0.0011368
0.0507766
-0.00109169
0.0524621
-0.00104826
0.0542537
-0.00100631
0.056182
-0.000965577
0.0581857
-0.000926172
0.0602252
-0.000888252
0.0621775
-0.000852752
0.0639403
-0.00145164
0.0403431
-0.00139365
0.0417033
-0.00133797
0.0431256
-0.00128438
0.0445835
-0.00123289
0.0460799
-0.00118349
0.047608
-0.00113626
0.0491593
-0.00109108
0.0507759
-0.00104776
0.0524616
-0.00100611
0.0542535
-0.000965789
0.0561822
-0.000926663
0.0581862
-0.000888879
0.0602258
-0.000852498
0.0621773
-0.000818416
0.0639398
0.0390135
-0.00139324
0.0403427
-0.00133764
0.041703
-0.00128415
0.0431253
-0.0012327
0.0445834
-0.00118326
0.0460796
-0.0011359
0.0476076
-0.00109057
0.0491587
-0.00104717
0.0507754
-0.00100563
0.0524611
-0.000965611
0.0542533
-0.000926882
0.0561824
-0.00088936
0.0581866
-0.000853096
0.0602264
-0.000818153
0.062177
-0.000785437
0.0639393
-0.0013928
0.039013
-0.00133726
0.0403423
-0.00128384
0.0417027
-0.00123248
0.0431251
-0.00118308
0.0445832
-0.00113568
0.0460794
-0.00109022
0.0476073
-0.00104668
0.0491582
-0.00100507
0.0507748
-0.000965164
0.0524607
-0.000926724
0.0542532
-0.000889583
0.0561826
-0.000853567
0.0581871
-0.000818723
0.0602269
-0.000785167
0.0621768
-0.000753867
0.0639388
-0.00139235
0.0377372
-0.00133684
0.0390126
-0.00128347
0.0403419
-0.00123219
0.0417024
-0.00118287
0.0431249
-0.00113551
0.044583
-0.00109
0.0460792
-0.00104634
0.047607
-0.0010046
0.0491578
-0.00096463
0.0507743
-0.000926303
0.0524602
-0.000889445
0.054253
-0.000853794
0.0561829
-0.000819183
0.0581876
-0.00078571
0.0602275
-0.000753589
0.0621765
-0.000723504
0.0639383
-0.00139189
0.0364994
-0.00133641
0.0377368
-0.00128307
0.0390122
-0.00123184
0.0403416
-0.0011826
0.0417021
-0.00113531
0.0431247
-0.00108984
0.0445828
-0.00104614
0.046079
-0.00100427
0.0476066
-0.000964173
0.0491573
-0.000925794
0.0507738
-0.00088905
0.0524598
-0.000853675
0.0542529
-0.000819414
0.0561831
-0.000786158
0.058188
-0.000754106
0.060228
-0.000723219
0.0621762
-0.000694399
0.0639379
-0.00139142
0.0353033
-0.00133597
0.0364989
-0.00128266
0.0377364
-0.00123146
0.0390118
-0.00118227
0.0403412
-0.00113506
0.0417019
-0.00108966
0.0431245
-0.00104599
0.0445827
-0.00100408
0.0460788
-0.000963859
0.0476063
-0.000925353
0.0491569
-0.000888563
0.0507733
-0.000853303
0.0524595
-0.000819312
0.0542528
-0.000786392
0.0561833
-0.000754542
0.0581885
-0.00072371
0.0602285
-0.000694108
0.0621759
-0.0006664
0.0639374
0.0341445
-0.00133551
0.0353028
-0.00128224
0.0364985
-0.00123107
0.037736
-0.0011819
0.0390115
-0.00113474
0.0403409
-0.00108942
0.0417016
-0.00104581
0.0431244
-0.00100393
0.0445825
-0.000963669
0.0460786
-0.00092505
0.047606
-0.00088814
0.0491565
-0.000852839
0.0507728
-0.000818964
0.0524591
-0.000786306
0.0542527
-0.000754779
0.0561836
-0.000724135
0.0581889
-0.000694573
0.060229
-0.000666103
0.0621756
-0.000639658
0.063937
-0.00133504
0.034144
-0.00128181
0.0353024
-0.00123067
0.0364981
-0.00118153
0.0377356
-0.0011344
0.0390111
-0.00108912
0.0403406
-0.00104559
0.0417014
-0.00100377
0.0431242
-0.000963534
0.0445824
-0.000924868
0.0460784
-0.000887847
0.0476057
-0.000852432
0.049156
-0.000818521
0.0507724
-0.00078598
0.0524588
-0.000754708
0.0542526
-0.000724373
0.0561838
-0.000694986
0.0581893
-0.000666544
0.0602294
-0.000639356
0.0621753
-0.000613821
0.0639365
-0.00133456
0.0330234
-0.00128136
0.0341435
-0.00123025
0.035302
-0.00118115
0.0364977
-0.00113404
0.0377352
-0.00108879
0.0390108
-0.0010453
0.0403404
-0.00100356
0.0417012
-0.000963384
0.0431241
-0.00092474
0.0445823
-0.000887672
0.0460782
-0.000852149
0.0476054
-0.000818129
0.0491557
-0.000785558
0.0507719
-0.000754404
0.0524585
-0.000724317
0.0542526
-0.000695225
0.0561841
-0.000666945
0.0581897
-0.000639773
0.0602298
-0.000613515
0.062175
-0.000589191
0.0639361
0.0319423
-0.00128089
0.0330229
-0.00122982
0.0341431
-0.00118075
0.0353016
-0.00113367
0.0364974
-0.00108845
0.0377349
-0.00104499
0.0390105
-0.00100329
0.0403401
-0.000963181
0.041701
-0.000924599
0.0431239
-0.000887551
0.0445822
-0.000851981
0.0460781
-0.000817856
0.0476052
-0.000785181
0.0491553
-0.000754002
0.0507715
-0.000724033
0.0524582
-0.000695183
0.0542525
-0.000667185
0.0561843
-0.000640163
0.0581901
-0.000613909
0.0602302
-0.000588882
0.0621747
-0.000565416
0.0639357
-0.00128044
0.0319419
-0.00122937
0.0330224
-0.00118033
0.0341427
-0.00113329
0.0353012
-0.0010881
0.036497
-0.00104467
0.0377346
-0.00100299
0.0390102
-0.000962928
0.0403398
-0.000924408
0.0417008
-0.000887419
0.0431238
-0.000851866
0.044582
-0.000817694
0.0460779
-0.000784918
0.0476049
-0.000753639
0.0491549
-0.00072365
0.0507712
-0.000694918
0.0524579
-0.000667155
0.0542525
-0.000640402
0.0561845
-0.000614286
0.0581905
-0.000589253
0.0602306
-0.000565104
0.0621744
-0.000542698
0.0639353
-0.00128001
0.0308947
-0.00122893
0.0319414
-0.0011799
0.033022
-0.0011329
0.0341423
-0.00108774
0.0353008
-0.00104433
0.0364967
-0.00100268
0.0377342
-0.000962644
0.0390099
-0.000924169
0.0403396
-0.000887239
0.0417006
-0.000851742
0.0431237
-0.000817585
0.0445819
-0.000784762
0.0460777
-0.000753385
0.0476046
-0.000723302
0.0491546
-0.000694554
0.0507708
-0.000666908
0.0524577
-0.000640384
0.0542525
-0.000614525
0.0561848
-0.000589618
0.0581908
-0.000565453
0.0602309
-0.000542382
0.0621741
-0.000520884
0.0639349
0.0298809
-0.00122852
0.0308943
-0.00117948
0.031941
-0.00113248
0.0330216
-0.00108736
0.0341419
-0.00104399
0.0353005
-0.00100236
0.0364964
-0.000962349
0.037734
-0.000923899
0.0390096
-0.000887012
0.0403394
-0.000851574
0.0417005
-0.00081747
0.0431235
-0.000784659
0.0445818
-0.000753234
0.0460776
-0.000723056
0.0476044
-0.000694219
0.0491542
-0.000666562
0.0507704
-0.000640155
0.0524575
-0.000614518
0.0542525
-0.000589856
0.056185
-0.000565806
0.0581912
-0.00054271
0.0602313
-0.000520567
0.0621737
-0.000499875
0.0639345
-0.00122815
0.0298806
-0.00117908
0.0308939
-0.00113207
0.0319406
-0.00108696
0.0330212
-0.00104362
0.0341415
-0.00100203
0.0353002
-0.000962047
0.0364961
-0.000923618
0.0377337
-0.000886756
0.0390094
-0.000851359
0.0403392
-0.000817311
0.0417003
-0.00078455
0.0431234
-0.000753137
0.0445817
-0.000722911
0.0460775
-0.000693982
0.0476042
-0.000666241
0.0491539
-0.000639826
0.0507701
-0.000614306
0.0524573
-0.00058986
0.0542525
-0.000566043
0.0561852
-0.000543052
0.0581915
-0.000520874
0.0602316
-0.000499556
0.0621734
-0.00047977
0.0639341
-0.00122783
0.028896
-0.00117872
0.0298802
-0.00113169
0.0308935
-0.00108657
0.0319402
-0.00104324
0.0330208
-0.00100168
0.0341412
-0.000961732
0.0352998
-0.00092333
0.0364958
-0.000886489
0.0377334
-0.000851116
0.0390091
-0.000817109
0.0403389
-0.000784402
0.0417001
-0.000753035
0.0431233
-0.000722818
0.0445816
-0.000693842
0.0460773
-0.000666012
0.0476039
-0.000639518
0.0491536
-0.000613994
0.0507698
-0.000589663
0.0524571
-0.000566056
0.0542525
-0.000543286
0.0561855
-0.000521204
0.0581919
-0.000499843
0.0602319
-0.000479451
0.0621731
-0.000460471
0.0639337
0.0279416
-0.00117841
0.0288957
-0.00113134
0.0298798
-0.0010862
0.0308931
-0.00104286
0.0319398
-0.00100132
0.0330205
-0.000961397
0.0341409
-0.000923029
0.0352995
-0.000886215
0.0364955
-0.000850862
0.0377332
-0.000816878
0.0390089
-0.000784211
0.0403388
-0.000752896
0.0417
-0.000722724
0.0431232
-0.000693754
0.0445816
-0.000665876
0.0460772
-0.000639296
0.0476037
-0.000613698
0.0491533
-0.000589367
0.0507695
-0.000565875
0.0524569
-0.000543308
0.0542525
-0.000521436
0.0561857
-0.000500161
0.0581922
-0.000479719
0.0602321
-0.000460151
0.0621728
-0.000441925
0.0639334
-0.00117815
0.0279414
-0.00113104
0.0288954
-0.00108586
0.0298795
-0.0010425
0.0308928
-0.00100095
0.0319394
-0.000961046
0.0330201
-0.000922709
0.0341405
-0.000885928
0.0352993
-0.0008506
0.0364952
-0.000816636
0.0377329
-0.000783992
0.0390087
-0.000752715
0.0403386
-0.000722593
0.0416999
-0.000693665
0.0431231
-0.000665793
0.0445815
-0.000639166
0.046077
-0.000613484
0.0476035
-0.000589083
0.049153
-0.000565594
0.0507692
-0.000543142
0.0524567
-0.000521466
0.0542526
-0.000500391
0.0561859
-0.000480025
0.0581925
-0.0004604
0.0602324
-0.000441605
0.0621725
-0.000424184
0.063933
-0.00117793
0.0270107
-0.00113079
0.0279411
-0.00108557
0.0288951
-0.00104218
0.0298792
-0.0010006
0.0308924
-0.000960693
0.0319391
-0.000922373
0.0330198
-0.000885621
0.0341402
-0.000850326
0.035299
-0.000816387
0.036495
-0.000783761
0.0377327
-0.000752508
0.0390085
-0.000722423
0.0403384
-0.000693543
0.0416998
-0.00066571
0.0431231
-0.000639086
0.0445814
-0.000613358
0.0460769
-0.000588876
0.0476033
-0.000565322
0.0491527
-0.000542876
0.050769
-0.000521313
0.0524566
-0.000500428
0.0542526
-0.000480251
0.0561862
-0.000460695
0.0581928
-0.000441836
0.0602326
-0.000423864
0.0621721
-0.000407046
0.0639327
0.0261086
-0.00113057
0.0270105
-0.00108532
0.0279409
-0.00104189
0.0288948
-0.00100029
0.0298789
-0.000960357
0.0308921
-0.000922033
0.0319387
-0.000885299
0.0330194
-0.000850034
0.0341399
-0.000816126
0.0352987
-0.000783525
0.0364948
-0.000752289
0.0377325
-0.000722226
0.0390083
-0.000693382
0.0403382
-0.000665596
0.0416996
-0.000639009
0.043123
-0.000613282
0.0445813
-0.000588754
0.0460768
-0.000565122
0.0476031
-0.000542615
0.0491525
-0.000521061
0.0507687
-0.000500288
0.0524564
-0.000480296
0.0542526
-0.000460918
0.0561864
-0.00044212
0.0581931
-0.000424078
0.0602328
-0.000406727
0.0621718
-0.000390713
0.0639324
-0.00113037
0.0261084
-0.0010851
0.0270102
-0.00104165
0.0279406
-0.00100001
0.0288945
-0.000960052
0.0298786
-0.000921708
0.0308918
-0.000884972
0.0319384
-0.000849725
0.0330191
-0.000815846
0.0341397
-0.000783276
0.0352985
-0.000752063
0.0364945
-0.000722018
0.0377323
-0.000693196
0.0390081
-0.000665444
0.0403381
-0.000638902
0.0416995
-0.00061321
0.0431229
-0.000588682
0.0445812
-0.000565004
0.0460767
-0.000542422
0.0476029
-0.000520811
0.0491522
-0.00050005
0.0507685
-0.000480169
0.0524563
-0.000460968
0.0542527
-0.000442339
0.0561866
-0.000424351
0.0581933
-0.000406925
0.060233
-0.000390395
0.0621715
-0.000374983
0.063932
-0.0011302
0.0252298
-0.00108491
0.0261082
-0.00104144
0.02701
-0.000999779
0.0279404
-0.000959785
0.0288943
-0.000921413
0.0298783
-0.000884659
0.0308914
-0.000849411
0.0319381
-0.00081555
0.0330188
-0.000783009
0.0341394
-0.000751826
0.0352982
-0.000721803
0.0364943
-0.000692998
0.0377321
-0.000665268
0.0390079
-0.000638759
0.0403379
-0.00061311
0.0416994
-0.000588615
0.0431228
-0.000564935
0.0445812
-0.000542307
0.0460766
-0.000520625
0.0476027
-0.000499811
0.049152
-0.000479944
0.0507682
-0.000460853
0.0524562
-0.000442395
0.0542528
-0.000424566
0.0561868
-0.000407186
0.0581936
-0.000390576
0.0602332
-0.000374666
0.0621712
-0.000359916
0.0639317
-0.00113005
0.0243779
-0.00108474
0.0252297
-0.00104125
0.026108
-0.000999574
0.0270098
-0.000959555
0.0279401
-0.000921154
0.028894
-0.000884372
0.029878
-0.000849108
0.0308911
-0.000815248
0.0319378
-0.000782725
0.0330186
-0.000751571
0.0341391
-0.000721578
0.035298
-0.000692794
0.0364941
-0.00066508
0.0377319
-0.000638592
0.0390078
-0.000612976
0.0403378
-0.000588522
0.0416993
-0.000564873
0.0431228
-0.000542242
0.0445811
-0.000520514
0.0460765
-0.000499631
0.0476025
-0.000479714
0.0491518
-0.000460641
0.050768
-0.000442291
0.0524561
-0.000424627
0.0542528
-0.000407397
0.056187
-0.000390827
0.0581938
-0.000374832
0.0602334
-0.000359601
0.0621709
-0.000345417
0.0639314
-0.00112994
0.0235517
-0.00108459
0.0243778
-0.00104108
0.0252295
-0.000999391
0.0261079
-0.000959356
0.0270096
-0.00092093
0.0279399
-0.000884121
0.0288938
-0.000848831
0.0298777
-0.000814956
0.0308909
-0.000782435
0.0319375
-0.0007513
0.0330183
-0.000721334
0.0341389
-0.000692579
0.0352978
-0.000664886
0.0364939
-0.000638414
0.0377317
-0.000612818
0.0390076
-0.000588396
0.0403377
-0.000564786
0.0416993
-0.000542183
0.0431227
-0.000520452
0.0445811
-0.000499524
0.0460763
-0.00047954
0.0476024
-0.000460421
0.0491515
-0.000442091
0.0507678
-0.000424534
0.052456
-0.000407463
0.0542529
-0.000391034
0.0561872
-0.000375072
0.0581941
-0.000359753
0.0602335
-0.000345105
0.0621706
-0.000331522
0.0639311
-0.0011299
0.0227483
-0.00108449
0.0235516
-0.00104094
0.0243776
-0.000999225
0.0252293
-0.000959177
0.0261077
-0.000920736
0.0270094
-0.000883904
0.0279397
-0.000848587
0.0288935
-0.000814688
0.0298774
-0.000782153
0.0308906
-0.000751021
0.0319372
-0.000721074
0.033018
-0.000692347
0.0341387
-0.000664682
0.0352976
-0.00063823
0.0364937
-0.000612649
0.0377315
-0.000588246
0.0390074
-0.000564667
0.0403376
-0.000542102
0.0416992
-0.000520397
0.0431227
-0.000499464
0.044581
-0.000479437
0.0460762
-0.000460253
0.0476022
-0.000441881
0.0491513
-0.000424345
0.0507676
-0.000407379
0.0524559
-0.000391104
0.0542529
-0.000375275
0.0561874
-0.000359982
0.0581943
-0.000345243
0.0602337
-0.000331212
0.0621703
-0.000318184
0.0639308
-0.00112994
0.0219675
-0.00108444
0.0227482
-0.00104083
0.0235515
-0.000999081
0.0243775
-0.000959014
0.0252292
-0.000920561
0.0261075
-0.000883714
0.0270092
-0.000848375
0.0279395
-0.000814451
0.0288933
-0.000781894
0.0298772
-0.000750749
0.0308903
-0.000720806
0.031937
-0.000692098
0.0330178
-0.000664461
0.0341384
-0.000638035
0.0352974
-0.000612474
0.0364936
-0.000588085
0.0377314
-0.000564525
0.0390073
-0.000541991
0.0403375
-0.000520322
0.0416991
-0.000499413
0.0431226
-0.00047938
0.0445809
-0.000460153
0.0460761
-0.000441719
0.047602
-0.000424144
0.0491511
-0.000407202
0.0507675
-0.00039103
0.0524558
-0.000375348
0.054253
-0.00036018
0.0561876
-0.000345461
0.0581945
-0.000331336
0.0602338
-0.000317877
0.0621699
-0.000305384
0.0639305
0.0212053
-0.00108447
0.0219675
-0.00104078
0.0227482
-0.000998973
0.0235514
-0.000958871
0.0243773
-0.0009204
0.025229
-0.000883543
0.0261073
-0.00084819
0.0270091
-0.000814245
0.0279393
-0.000781664
0.028893
-0.000750498
0.0298769
-0.000720545
0.03089
-0.000691841
0.0319367
-0.000664222
0.0330175
-0.000637824
0.0341382
-0.000612289
0.0352972
-0.000587919
0.0364934
-0.000564373
0.0377312
-0.000541857
0.0390072
-0.000520217
0.0403374
-0.000499343
0.041699
-0.000479332
0.0431226
-0.000460098
0.0445809
-0.000441622
0.046076
-0.000423988
0.0476019
-0.00040701
0.0491509
-0.000390863
0.0507673
-0.000375283
0.0524558
-0.000360257
0.0542531
-0.000345655
0.0561878
-0.000331544
0.0581947
-0.000317989
0.0602339
-0.000305081
0.0621696
-0.000293097
0.0639303
-0.00108458
0.0212055
-0.00104081
0.0219675
-0.000998921
0.0227481
-0.000958763
0.0235513
-0.000920259
0.0243772
-0.000883386
0.0252289
-0.000848023
0.0261072
-0.000814065
0.0270089
-0.000781464
0.0279391
-0.000750276
0.0288928
-0.000720302
0.0298767
-0.000691589
0.0308898
-0.000663976
0.0319365
-0.000637597
0.0330173
-0.000612088
0.034138
-0.000587743
0.035297
-0.000564215
0.0364932
-0.000541713
0.0377311
-0.00052009
0.039007
-0.000499245
0.0403373
-0.000479267
0.041699
-0.000460054
0.0431225
-0.000441569
0.0445808
-0.000423894
0.046076
-0.000406859
0.0476017
-0.000390679
0.0491508
-0.000375126
0.0507671
-0.0003602
0.0524557
-0.000345734
0.0542532
-0.000331733
0.056188
-0.000318187
0.0581949
-0.00030518
0.060234
-0.000292797
0.0621693
-0.000281308
0.06393
-0.00108476
0.0204608
-0.00104091
0.0212056
-0.00099894
0.0219676
-0.000958708
0.0227481
-0.000920151
0.0235512
-0.000883246
0.024377
-0.000847869
0.0252287
-0.000813902
0.026107
-0.000781289
0.0270087
-0.000750081
0.0279389
-0.000720086
0.0288926
-0.000691355
0.0298765
-0.000663733
0.0308895
-0.00063736
0.0319362
-0.00061187
0.0330171
-0.000587552
0.0341378
-0.000564048
0.0352969
-0.000541563
0.0364931
-0.000519954
0.0377309
-0.000499125
0.0390069
-0.000479175
0.0403372
-0.000459993
0.0416989
-0.000441528
0.0431225
-0.000423843
0.0445808
-0.000406768
0.0460759
-0.000390534
0.0476016
-0.000374951
0.0491506
-0.000360053
0.050767
-0.000345685
0.0524556
-0.000331815
0.0542533
-0.000318371
0.0561882
-0.000305368
0.0581951
-0.000292885
0.0602341
-0.000281011
0.062169
-0.000269995
0.0639297
0.0197343
-0.00104108
0.020461
-0.000999033
0.0212057
-0.000958721
0.0219676
-0.000920093
0.022748
-0.000883137
0.0235511
-0.000847731
0.0243769
-0.000813751
0.0252285
-0.000781129
0.0261068
-0.00074991
0.0270085
-0.000719897
0.0279387
-0.000691145
0.0288924
-0.000663506
0.0298762
-0.000637126
0.0308893
-0.000611643
0.031936
-0.000587344
0.0330169
-0.000563866
0.0341377
-0.000541404
0.0352967
-0.000519812
0.0364929
-0.000498996
0.0377308
-0.000479062
0.0390068
-0.000459907
0.0403371
-0.000441472
0.0416988
-0.000423805
0.0431224
-0.00040672
0.0445807
-0.000390445
0.0460758
-0.000374811
0.0476014
-0.000359886
0.0491504
-0.000345548
0.0507669
-0.000331773
0.0524556
-0.000318455
0.0542533
-0.000305547
0.0561884
-0.000293064
0.0581953
-0.000281088
0.0602342
-0.000269703
0.0621688
-0.00025913
0.0639295
-0.00104128
0.0197345
-0.000999191
0.0204612
-0.000958807
0.0212057
-0.000920101
0.0219676
-0.000883077
0.022748
-0.000847622
0.0235509
-0.000813615
0.0243768
-0.000780981
0.0252284
-0.000749755
0.0261067
-0.000719731
0.0270084
-0.000690962
0.0279385
-0.000663303
0.0288922
-0.000636907
0.029876
-0.000611418
0.0308891
-0.000587127
0.0319358
-0.000563668
0.0330167
-0.000541231
0.0341375
-0.000519661
0.0352966
-0.000498861
0.0364928
-0.00047894
0.0377307
-0.000459801
0.0390067
-0.000441391
0.040337
-0.000423753
0.0416988
-0.000406684
0.0431224
-0.000390399
0.0445807
-0.000374725
0.0460757
-0.000359751
0.0476013
-0.000345388
0.0491503
-0.000331645
0.0507667
-0.00031842
0.0524556
-0.000305633
0.0542534
-0.000293238
0.0561886
-0.000281257
0.0581955
-0.000269769
0.0602342
-0.000258842
0.0621685
-0.000248708
0.0639292
-0.0010415
0.0190232
-0.00099939
0.0197347
-0.000958956
0.0204613
-0.000920179
0.0212058
-0.000883079
0.0219676
-0.000847559
0.0227479
-0.000813506
0.0235508
-0.000780847
0.0243766
-0.00074961
0.0252283
-0.000719579
0.0261065
-0.0006908
0.0270082
-0.000663125
0.0279383
-0.00063671
0.028892
-0.000611207
0.0298758
-0.00058691
0.0308889
-0.000563459
0.0319356
-0.000541042
0.0330165
-0.000519496
0.0341373
-0.000498718
0.0352964
-0.000478812
0.0364927
-0.000459685
0.0377306
-0.000441291
0.0390066
-0.000423677
0.0403369
-0.000406635
0.0416987
-0.000390365
0.0431224
-0.00037468
0.0445806
-0.000359668
0.0460756
-0.000345258
0.0476012
-0.000331493
0.0491501
-0.0003183
0.0507666
-0.000305604
0.0524555
-0.000293324
0.0542535
-0.000281426
0.0561887
-0.00026993
0.0581956
-0.000258898
0.0602343
-0.000248424
0.0621682
-0.000238702
0.063929
-0.00104171
0.0183281
-0.000999603
0.0190234
-0.000959147
0.0197349
-0.000920319
0.0204614
-0.00088315
0.0212059
-0.000847557
0.0219676
-0.000813441
0.0227478
-0.000780738
0.0235507
-0.000749478
0.0243765
-0.000719438
0.0252281
-0.000690652
0.0261064
-0.000662968
0.027008
-0.000636538
0.0279382
-0.000611016
0.0288918
-0.000586706
0.0298756
-0.000563251
0.0308887
-0.000540842
0.0319354
-0.000519316
0.0330163
-0.000498562
0.0341372
-0.000478677
0.0352963
-0.000459564
0.0364926
-0.000441181
0.0377304
-0.000423583
0.0390065
-0.000406565
0.0403368
-0.000390321
0.0416987
-0.000374649
0.0431223
-0.000359624
0.0445806
-0.000345177
0.0460755
-0.000331368
0.047601
-0.000318155
0.04915
-0.000305493
0.0507665
-0.000293302
0.0524555
-0.000281514
0.0542536
-0.000270093
0.0561889
-0.00025905
0.0581958
-0.00024847
0.0602343
-0.000238423
0.0621679
-0.000229104
0.0639288
-0.00104188
0.017652
-0.000999804
0.0183283
-0.000959353
0.0190236
-0.000920502
0.0197351
-0.000883283
0.0204616
-0.000847621
0.021206
-0.000813433
0.0219676
-0.000780671
0.0227478
-0.000749369
0.0235506
-0.000719308
0.0243764
-0.000690514
0.025228
-0.000662824
0.0261062
-0.000636384
0.0270079
-0.000610849
0.027938
-0.000586522
0.0288916
-0.000563054
0.0298754
-0.000540642
0.0308885
-0.000519125
0.0319352
-0.00049839
0.0330161
-0.000478528
0.034137
-0.000459435
0.0352962
-0.000441067
0.0364925
-0.000423479
0.0377303
-0.000406476
0.0390064
-0.000390255
0.0403368
-0.000374608
0.0416987
-0.000359595
0.0431223
-0.000345135
0.0445806
-0.000331289
0.0460754
-0.000318035
0.0476009
-0.000305355
0.0491498
-0.000293198
0.0507664
-0.000281497
0.0524555
-0.000270182
0.0542537
-0.000259209
0.0561891
-0.000248614
0.0581959
-0.00023846
0.0602344
-0.000228829
0.0621676
-0.000219887
0.0639286
-0.00104199
0.016994
-0.00099997
0.0176522
-0.000959549
0.0183285
-0.000920702
0.0190238
-0.000883457
0.0197353
-0.000847745
0.0204617
-0.000813491
0.021206
-0.000780659
0.0219676
-0.0007493
0.0227477
-0.000719199
0.0235505
-0.000690386
0.0243762
-0.000662688
0.0252278
-0.000636244
0.0261061
-0.0006107
0.0270077
-0.000586359
0.0279378
-0.000562876
0.0288914
-0.000540452
0.0298752
-0.000518932
0.0308883
-0.000498207
0.031935
-0.000478364
0.033016
-0.000459294
0.0341369
-0.000440945
0.035296
-0.000423371
0.0364923
-0.000406378
0.0377302
-0.000390171
0.0390063
-0.000374546
0.0403367
-0.000359557
0.0416986
-0.000345108
0.0431223
-0.000331249
0.0445805
-0.000317958
0.0460754
-0.000305239
0.0476008
-0.000293067
0.0491497
-0.000281401
0.0507663
-0.00027017
0.0524555
-0.000259297
0.0542538
-0.000248767
0.0561892
-0.000238595
0.0581961
-0.000228858
0.0602344
-0.000219617
0.0621674
-0.000211047
0.0639284
-0.00104205
0.0163551
-0.00100009
0.0169941
-0.000959713
0.0176524
-0.000920893
0.0183287
-0.00088365
0.019024
-0.000847912
0.0197354
-0.000813607
0.0204618
-0.00078071
0.0212061
-0.000749284
0.0219675
-0.000719128
0.0227476
-0.000690278
0.0235504
-0.000662563
0.0243761
-0.000636112
0.0252277
-0.000610563
0.026106
-0.000586214
0.0270076
-0.000562718
0.0279377
-0.000540279
0.0288913
-0.000518749
0.029875
-0.000498022
0.0308881
-0.000478188
0.0319348
-0.000459138
0.0330158
-0.000440811
0.0341367
-0.000423255
0.0352959
-0.000406275
0.0364922
-0.000390079
0.0377302
-0.000374468
0.0390063
-0.0003595
0.0403367
-0.000345073
0.0416986
-0.000331223
0.0431223
-0.000317919
0.0445805
-0.000305165
0.0460753
-0.000292955
0.0476007
-0.000281276
0.0491496
-0.000270081
0.0507662
-0.000259291
0.0524555
-0.000248856
0.0542539
-0.000238743
0.0561894
-0.000228985
0.0581962
-0.000219638
0.0602344
-0.000210782
0.0621671
-0.000202554
0.0639282
-0.00104203
0.0157348
-0.00100015
0.0163552
-0.000959832
0.0169943
-0.000921054
0.0176525
-0.000883836
0.0183289
-0.000848098
0.0190242
-0.000813766
0.0197356
-0.000780819
0.0204619
-0.000749329
0.0212061
-0.000719108
0.0219675
-0.000690205
0.0227476
-0.000662456
0.0235503
-0.000635988
0.024376
-0.000610434
0.0252276
-0.000586081
0.0261058
-0.000562577
0.0270075
-0.000540126
0.0279375
-0.000518582
0.0288911
-0.000497845
0.0298748
-0.000478011
0.0308879
-0.00045897
0.0319347
-0.000440662
0.0330157
-0.000423128
0.0341366
-0.000406166
0.0352958
-0.000389982
0.0364921
-0.00037438
0.0377301
-0.000359426
0.0390062
-0.00034502
0.0403366
-0.000331191
0.0416985
-0.000317896
0.0431222
-0.000305127
0.0445804
-0.000292883
0.0460752
-0.000281169
0.0476006
-0.000269963
0.0491495
-0.000259208
0.0507661
-0.000248854
0.0524555
-0.000238832
0.054254
-0.000229128
0.0561895
-0.000219757
0.0581963
-0.000210796
0.0602344
-0.000202294
0.0621668
-0.000194412
0.063928
-0.00104194
0.0151346
-0.00100014
0.0157348
-0.000959896
0.0163552
-0.000921174
0.0169944
-0.000883995
0.0176527
-0.000848278
0.0183291
-0.000813945
0.0190243
-0.00078097
0.0197358
-0.00074943
0.020462
-0.000719147
0.0212061
-0.000690182
0.0219675
-0.000662382
0.0227475
-0.000635882
0.0235502
-0.000610313
0.0243759
-0.000585955
0.0252275
-0.000562448
0.0261057
-0.000539989
0.0270073
-0.000518433
0.0279374
-0.000497683
0.0288909
-0.000477841
0.0298747
-0.0004588
0.0308877
-0.000440502
0.0319345
-0.000422986
0.0330155
-0.000406045
0.0341365
-0.000389878
0.0352957
-0.000374288
0.0364921
-0.000359343
0.03773
-0.00034495
0.0390061
-0.000331141
0.0403366
-0.000317866
0.0416985
-0.000305105
0.0431222
-0.000292847
0.0445804
-0.000281099
0.0460752
-0.000269859
0.0476005
-0.000259096
0.0491493
-0.000248778
0.0507661
-0.000238835
0.0524555
-0.000229217
0.054254
-0.000219895
0.0561896
-0.000210907
0.0581964
-0.000202301
0.0602344
-0.000194158
0.0621666
-0.000186592
0.0639278
-0.00104177
0.0145541
-0.00100006
0.0151346
-0.000959897
0.0157348
-0.000921242
0.0163553
-0.000884115
0.0169945
-0.000848435
0.0176528
-0.000814121
0.0183292
-0.000781142
0.0190245
-0.000749574
0.0197359
-0.000719241
0.0204621
-0.000690215
0.0212062
-0.000662355
0.0219675
-0.000635807
0.0227474
-0.000610207
0.0235501
-0.000585836
0.0243758
-0.000562325
0.0252273
-0.000539863
0.0261056
-0.0005183
0.0270072
-0.000497539
0.0279372
-0.000477684
0.0288908
-0.000458636
0.0298745
-0.000440338
0.0308876
-0.000422833
0.0319343
-0.000405911
0.0330154
-0.000389764
0.0341364
-0.000374191
0.0352956
-0.000359256
0.036492
-0.000344873
0.0377299
-0.000331076
0.0390061
-0.00031782
0.0403365
-0.000305077
0.0416985
-0.000292826
0.0431222
-0.000281064
0.0445804
-0.000269792
0.0460751
-0.000258996
0.0476004
-0.000248671
0.0491492
-0.000238764
0.050766
-0.000229223
0.0524555
-0.000219983
0.0542541
-0.00021104
0.0561898
-0.000202405
0.0581965
-0.000194158
0.0602344
-0.000186344
0.0621663
-0.000179084
0.0639276
-0.00104152
0.0139915
-0.000999901
0.0145539
-0.000959827
0.0151345
-0.00092125
0.0157348
-0.000884187
0.0163554
-0.000848555
0.0169946
-0.000814275
0.017653
-0.000781313
0.0183294
-0.000749739
0.0190247
-0.000719378
0.019736
-0.000690302
0.0204622
-0.000662382
0.0212062
-0.000635777
0.0219674
-0.000610131
0.0227473
-0.000585732
0.02355
-0.000562208
0.0243756
-0.000539743
0.0252272
-0.000518178
0.0261055
-0.000497411
0.0270071
-0.000477545
0.0279371
-0.000458485
0.0288906
-0.00044018
0.0298744
-0.000422677
0.0308874
-0.000405765
0.0319342
-0.000389635
0.0330153
-0.000374082
0.0341363
-0.000359164
0.0352955
-0.00034479
0.0364919
-0.000331003
0.0377298
-0.000317759
0.039006
-0.000305035
0.0403365
-0.000292801
0.0416985
-0.000281044
0.0431222
-0.000269757
0.0445803
-0.000258931
0.046075
-0.000248576
0.0476003
-0.000238664
0.0491491
-0.000229158
0.0507659
-0.000219993
0.0524555
-0.000211128
0.0542542
-0.000202533
0.0561899
-0.000194255
0.0581966
-0.000186337
0.0602344
-0.000178841
0.0621661
-0.000171886
0.0639274
-0.0010412
0.0134482
-0.000999665
0.0139912
-0.00095968
0.0145538
-0.00092119
0.0151344
-0.000884201
0.0157348
-0.00084863
0.0163554
-0.000814395
0.0169947
-0.000781464
0.0176531
-0.000749904
0.0183296
-0.000719536
0.0190248
-0.000690431
0.0197362
-0.000662463
0.0204623
-0.000635799
0.0212062
-0.000610098
0.0219674
-0.000585655
0.0227473
-0.000562105
0.0235499
-0.000539629
0.0243755
-0.000518061
0.0252271
-0.000497292
0.0261053
-0.00047742
0.0270069
-0.00045835
0.027937
-0.000440034
0.0288905
-0.000422524
0.0298742
-0.000405614
0.0308873
-0.000389496
0.0319341
-0.00037396
0.0330151
-0.000359061
0.0341362
-0.000344703
0.0352954
-0.000330925
0.0364918
-0.00031769
0.0377298
-0.000304978
0.0390059
-0.000292761
0.0403364
-0.000281021
0.0416984
-0.000269739
0.0431222
-0.000258898
0.0445803