/*--------------------------------*- C++ -*----------------------------------*\
  =========                 |
  \\      /  F ield         | OpenFOAM: The Open Source CFD Toolbox
   \\    /   O peration     | Website:  https://openfoam.org
    \\  /    A nd           | Version:  7
     \\/     M anipulation  |
\*---------------------------------------------------------------------------*/
FoamFile
{
    version     2.0;
    format      ascii;
    class       volVectorField;
    location    "1200";
    object      U;
}
// * * * * * * * * * * * * * * * * * * * * * * * * * * * * * * * * * * * * * //

dimensions      [0 1 -1 0 0 0 0];

internalField   nonuniform List<vector> 
23023
(
(50.3037 12.4006 0)
(50.252 12.4435 0)
(50.3038 12.4005 0)
(50.2983 12.4356 0)
(50.2509 12.4435 0)
(50.3039 12.4004 0)
(50.3207 12.3995 0)
(50.2971 12.4358 0)
(50.2498 12.4435 0)
(50.304 12.4003 0)
(50.3202 12.3996 0)
(50.296 12.436 0)
(50.2487 12.4435 0)
(50.3042 12.4001 0)
(50.3341 12.3582 0)
(50.3197 12.3997 0)
(50.2948 12.4362 0)
(50.2476 12.4435 0)
(50.3044 12.4 0)
(50.3245 12.32 0)
(50.3343 12.3582 0)
(50.3191 12.3999 0)
(50.2936 12.4364 0)
(50.2465 12.4434 0)
(50.3046 12.3999 0)
(50.3005 12.2934 0)
(50.3254 12.3199 0)
(50.3345 12.3582 0)
(50.3185 12.4 0)
(50.2923 12.4366 0)
(50.2454 12.4434 0)
(50.3049 12.3998 0)
(50.2702 12.2782 0)
(50.3018 12.2932 0)
(50.3263 12.3198 0)
(50.3346 12.3582 0)
(50.3178 12.4001 0)
(50.291 12.4368 0)
(50.2443 12.4434 0)
(50.3052 12.3997 0)
(50.2434 12.2696 0)
(50.2716 12.278 0)
(50.3031 12.293 0)
(50.3272 12.3197 0)
(50.3347 12.3583 0)
(50.317 12.4002 0)
(50.2896 12.437 0)
(50.2433 12.4434 0)
(50.3055 12.3996 0)
(50.2242 12.2614 0)
(50.2447 12.2694 0)
(50.2729 12.2778 0)
(50.3044 12.2928 0)
(50.328 12.3196 0)
(50.3347 12.3583 0)
(50.3162 12.4004 0)
(50.2883 12.4372 0)
(50.2422 12.4433 0)
(50.3059 12.3995 0)
(50.2255 12.2613 0)
(50.246 12.2692 0)
(50.2743 12.2776 0)
(50.3056 12.2927 0)
(50.3287 12.3195 0)
(50.3346 12.3583 0)
(50.3153 12.4005 0)
(50.2868 12.4374 0)
(50.2412 12.4433 0)
(50.3064 12.3994 0)
(50.2135 12.2491 0)
(50.2267 12.2611 0)
(50.2474 12.2691 0)
(50.2757 12.2774 0)
(50.3069 12.2925 0)
(50.3295 12.3194 0)
(50.3345 12.3584 0)
(50.3144 12.4006 0)
(50.2854 12.4375 0)
(50.2402 12.4433 0)
(50.3068 12.3993 0)
(50.2052 12.2316 0)
(50.2147 12.249 0)
(50.2279 12.261 0)
(50.2487 12.2689 0)
(50.2771 12.2772 0)
(50.3081 12.2923 0)
(50.3301 12.3193 0)
(50.3344 12.3584 0)
(50.3135 12.4007 0)
(50.2839 12.4377 0)
(50.2392 12.4432 0)
(50.3073 12.3991 0)
(50.1967 12.2102 0)
(50.2066 12.2316 0)
(50.2159 12.249 0)
(50.2291 12.2609 0)
(50.25 12.2688 0)
(50.2785 12.277 0)
(50.3093 12.2922 0)
(50.3308 12.3193 0)
(50.3341 12.3584 0)
(50.3124 12.4008 0)
(50.2824 12.4378 0)
(50.2382 12.4432 0)
(50.3079 12.399 0)
(50.1855 12.187 0)
(50.1982 12.2101 0)
(50.2078 12.2315 0)
(50.2171 12.2489 0)
(50.2303 12.2608 0)
(50.2513 12.2686 0)
(50.2798 12.2769 0)
(50.3104 12.2921 0)
(50.3314 12.3192 0)
(50.3339 12.3585 0)
(50.3114 12.4009 0)
(50.2809 12.438 0)
(50.2373 12.4432 0)
(50.3085 12.3989 0)
(50.1872 12.1869 0)
(50.1997 12.21 0)
(50.2091 12.2315 0)
(50.2183 12.2488 0)
(50.2315 12.2607 0)
(50.2526 12.2685 0)
(50.2812 12.2767 0)
(50.3116 12.2919 0)
(50.3319 12.3191 0)
(50.3335 12.3585 0)
(50.3102 12.401 0)
(50.2794 12.4381 0)
(50.2364 12.4431 0)
(50.3091 12.3988 0)
(50.1733 12.164 0)
(50.1889 12.1868 0)
(50.2011 12.2099 0)
(50.2104 12.2314 0)
(50.2195 12.2488 0)
(50.2327 12.2606 0)
(50.2539 12.2683 0)
(50.2825 12.2766 0)
(50.3127 12.2918 0)
(50.3324 12.3191 0)
(50.3331 12.3586 0)
(50.3091 12.4011 0)
(50.2778 12.4383 0)
(50.2355 12.4431 0)
(50.3098 12.3987 0)
(50.1577 12.142 0)
(50.1752 12.1639 0)
(50.1905 12.1867 0)
(50.2025 12.2099 0)
(50.2117 12.2314 0)
(50.2206 12.2487 0)
(50.2339 12.2605 0)
(50.2553 12.2682 0)
(50.2839 12.2764 0)
(50.3137 12.2917 0)
(50.3328 12.319 0)
(50.3327 12.3586 0)
(50.3078 12.4013 0)
(50.2762 12.4384 0)
(50.2347 12.443 0)
(50.3105 12.3987 0)
(50.1596 12.1419 0)
(50.177 12.1637 0)
(50.1921 12.1866 0)
(50.204 12.2098 0)
(50.2129 12.2313 0)
(50.2218 12.2486 0)
(50.2351 12.2604 0)
(50.2566 12.2681 0)
(50.2852 12.2763 0)
(50.3148 12.2916 0)
(50.3332 12.319 0)
(50.3321 12.3587 0)
(50.3065 12.4014 0)
(50.2746 12.4385 0)
(50.2339 12.443 0)
(50.3113 12.3986 0)
(50.1434 12.1205 0)
(50.1615 12.1417 0)
(50.1788 12.1636 0)
(50.1938 12.1865 0)
(50.2054 12.2098 0)
(50.2141 12.2313 0)
(50.2229 12.2486 0)
(50.2363 12.2603 0)
(50.2579 12.2679 0)
(50.2865 12.2761 0)
(50.3158 12.2915 0)
(50.3336 12.319 0)
(50.3316 12.3587 0)
(50.3052 12.4015 0)
(50.273 12.4386 0)
(50.2331 12.4429 0)
(50.3121 12.3985 0)
(50.127 12.0991 0)
(50.1454 12.1204 0)
(50.1635 12.1416 0)
(50.1806 12.1635 0)
(50.1954 12.1865 0)
(50.2068 12.2097 0)
(50.2153 12.2312 0)
(50.2241 12.2485 0)
(50.2375 12.2602 0)
(50.2592 12.2678 0)
(50.2878 12.276 0)
(50.3168 12.2914 0)
(50.3339 12.3189 0)
(50.3309 12.3588 0)
(50.3039 12.4015 0)
(50.2713 12.4387 0)
(50.2324 12.4429 0)
(50.313 12.3984 0)
(50.1104 12.0773 0)
(50.1291 12.099 0)
(50.1474 12.1202 0)
(50.1654 12.1415 0)
(50.1824 12.1634 0)
(50.197 12.1864 0)
(50.2081 12.2096 0)
(50.2165 12.2312 0)
(50.2252 12.2485 0)
(50.2387 12.2602 0)
(50.2604 12.2677 0)
(50.2891 12.2759 0)
(50.3177 12.2913 0)
(50.3341 12.3189 0)
(50.3302 12.3588 0)
(50.3024 12.4016 0)
(50.2697 12.4389 0)
(50.2318 12.4428 0)
(50.3139 12.3983 0)
(50.093 12.0554 0)
(50.1125 12.0772 0)
(50.1312 12.0988 0)
(50.1495 12.1201 0)
(50.1673 12.1414 0)
(50.1841 12.1633 0)
(50.1985 12.1863 0)
(50.2095 12.2096 0)
(50.2177 12.2311 0)
(50.2263 12.2484 0)
(50.2398 12.2601 0)
(50.2617 12.2676 0)
(50.2903 12.2758 0)
(50.3187 12.2912 0)
(50.3343 12.3189 0)
(50.3295 12.3589 0)
(50.301 12.4017 0)
(50.268 12.439 0)
(50.2311 12.4428 0)
(50.3148 12.3982 0)
(50.0952 12.0552 0)
(50.1147 12.0771 0)
(50.1334 12.0987 0)
(50.1515 12.12 0)
(50.1692 12.1413 0)
(50.1859 12.1632 0)
(50.2001 12.1862 0)
(50.2108 12.2095 0)
(50.2188 12.2311 0)
(50.2274 12.2484 0)
(50.241 12.26 0)
(50.263 12.2675 0)
(50.2916 12.2757 0)
(50.3195 12.2911 0)
(50.3344 12.3189 0)
(50.3287 12.3589 0)
(50.2995 12.4018 0)
(50.2664 12.439 0)
(50.2306 12.4427 0)
(50.3158 12.3981 0)
(50.0771 12.0335 0)
(50.0974 12.0551 0)
(50.1169 12.0769 0)
(50.1355 12.0986 0)
(50.1535 12.1199 0)
(50.1711 12.1412 0)
(50.1876 12.1631 0)
(50.2017 12.1862 0)
(50.2122 12.2095 0)
(50.22 12.231 0)
(50.2285 12.2483 0)
(50.2422 12.2599 0)
(50.2643 12.2674 0)
(50.2928 12.2756 0)
(50.3204 12.291 0)
(50.3345 12.3189 0)
(50.3278 12.359 0)
(50.298 12.4019 0)
(50.2647 12.4391 0)
(50.2301 12.4426 0)
(50.3169 12.398 0)
(50.059 12.012 0)
(50.0793 12.0333 0)
(50.0996 12.0549 0)
(50.1191 12.0768 0)
(50.1376 12.0984 0)
(50.1555 12.1198 0)
(50.173 12.1411 0)
(50.1894 12.1631 0)
(50.2032 12.1861 0)
(50.2135 12.2095 0)
(50.2211 12.231 0)
(50.2295 12.2483 0)
(50.2433 12.2599 0)
(50.2655 12.2673 0)
(50.294 12.2755 0)
(50.3212 12.291 0)
(50.3345 12.3188 0)
(50.3269 12.359 0)
(50.2964 12.402 0)
(50.2631 12.4392 0)
(50.2296 12.4426 0)
(50.318 12.3979 0)
(50.0611 12.0119 0)
(50.0815 12.0331 0)
(50.1018 12.0548 0)
(50.1213 12.0766 0)
(50.1397 12.0983 0)
(50.1575 12.1196 0)
(50.1749 12.141 0)
(50.1911 12.163 0)
(50.2047 12.1861 0)
(50.2147 12.2094 0)
(50.2222 12.231 0)
(50.2306 12.2482 0)
(50.2445 12.2598 0)
(50.2668 12.2672 0)
(50.2952 12.2754 0)
(50.322 12.2909 0)
(50.3345 12.3188 0)
(50.3259 12.3591 0)
(50.2948 12.4021 0)
(50.2614 12.4393 0)
(50.2292 12.4425 0)
(50.3191 12.3979 0)
(50.0436 11.9905 0)
(50.0632 12.0117 0)
(50.0838 12.033 0)
(50.1041 12.0546 0)
(50.1235 12.0765 0)
(50.1418 12.0982 0)
(50.1596 12.1195 0)
(50.1768 12.1409 0)
(50.1928 12.1629 0)
(50.2062 12.186 0)
(50.216 12.2094 0)
(50.2233 12.231 0)
(50.2317 12.2482 0)
(50.2456 12.2597 0)
(50.2681 12.2671 0)
(50.2964 12.2753 0)
(50.3227 12.2908 0)
(50.3344 12.3188 0)
(50.3249 12.3591 0)
(50.2931 12.4022 0)
(50.2598 12.4394 0)
(50.2289 12.4425 0)
(50.3203 12.3978 0)
(50.0277 11.9687 0)
(50.0456 11.9904 0)
(50.0654 12.0115 0)
(50.086 12.0328 0)
(50.1064 12.0545 0)
(50.1257 12.0764 0)
(50.1439 12.0981 0)
(50.1616 12.1194 0)
(50.1787 12.1408 0)
(50.1945 12.1628 0)
(50.2077 12.1859 0)
(50.2172 12.2093 0)
(50.2244 12.2309 0)
(50.2327 12.2481 0)
(50.2468 12.2597 0)
(50.2693 12.267 0)
(50.2976 12.2752 0)
(50.3234 12.2908 0)
(50.3343 12.3188 0)
(50.3238 12.3592 0)
(50.2915 12.4022 0)
(50.2582 12.4394 0)
(50.2286 12.4424 0)
(50.3216 12.3977 0)
(50.0296 11.9686 0)
(50.0477 11.9902 0)
(50.0676 12.0114 0)
(50.0883 12.0327 0)
(50.1086 12.0544 0)
(50.1279 12.0763 0)
(50.1461 12.098 0)
(50.1636 12.1193 0)
(50.1805 12.1407 0)
(50.1962 12.1628 0)
(50.2091 12.1859 0)
(50.2185 12.2093 0)
(50.2254 12.2309 0)
(50.2337 12.2481 0)
(50.2479 12.2596 0)
(50.2705 12.267 0)
(50.2987 12.2751 0)
(50.3241 12.2907 0)
(50.3341 12.3188 0)
(50.3226 12.3592 0)
(50.2898 12.4023 0)
(50.2566 12.4395 0)
(50.2284 12.4423 0)
(50.3229 12.3976 0)
(50.0156 11.9455 0)
(50.0315 11.9684 0)
(50.0498 11.9901 0)
(50.0698 12.0112 0)
(50.0906 12.0325 0)
(50.1109 12.0542 0)
(50.1301 12.0762 0)
(50.1482 12.0979 0)
(50.1656 12.1193 0)
(50.1824 12.1406 0)
(50.1979 12.1627 0)
(50.2105 12.1859 0)
(50.2197 12.2093 0)
(50.2265 12.2309 0)
(50.2348 12.2481 0)
(50.249 12.2595 0)
(50.2718 12.2669 0)
(50.2998 12.275 0)
(50.3247 12.2907 0)
(50.3339 12.3188 0)
(50.3214 12.3593 0)
(50.288 12.4024 0)
(50.2549 12.4396 0)
(50.2283 12.4423 0)
(50.3242 12.3976 0)
(50.0037 11.9205 0)
(50.0174 11.9454 0)
(50.0335 11.9683 0)
(50.0519 11.9899 0)
(50.0721 12.0111 0)
(50.0929 12.0324 0)
(50.1132 12.0541 0)
(50.1323 12.076 0)
(50.1503 12.0978 0)
(50.1676 12.1192 0)
(50.1842 12.1405 0)
(50.1995 12.1626 0)
(50.212 12.1858 0)
(50.2208 12.2093 0)
(50.2275 12.2308 0)
(50.2358 12.248 0)
(50.2501 12.2595 0)
(50.273 12.2668 0)
(50.3009 12.2749 0)
(50.3252 12.2906 0)
(50.3335 12.3188 0)
(50.3201 12.3593 0)
(50.2863 12.4024 0)
(50.2534 12.4396 0)
(50.2282 12.4422 0)
(50.3256 12.3975 0)
(50.0053 11.9204 0)
(50.0191 11.9452 0)
(50.0354 11.9681 0)
(50.0541 11.9898 0)
(50.0744 12.011 0)
(50.0952 12.0323 0)
(50.1155 12.054 0)
(50.1345 12.0759 0)
(50.1524 12.0977 0)
(50.1695 12.1191 0)
(50.1861 12.1405 0)
(50.2012 12.1626 0)
(50.2134 12.1858 0)
(50.222 12.2092 0)
(50.2285 12.2308 0)
(50.2368 12.248 0)
(50.2512 12.2594 0)
(50.2742 12.2667 0)
(50.3019 12.2749 0)
(50.3258 12.2906 0)
(50.3332 12.3188 0)
(50.3188 12.3594 0)
(50.2845 12.4025 0)
(50.2518 12.4397 0)
(50.2282 12.4422 0)
(50.327 12.3974 0)
(49.9951 11.8933 0)
(50.0069 11.9203 0)
(50.021 11.9451 0)
(50.0375 11.968 0)
(50.0563 11.9897 0)
(50.0767 12.0108 0)
(50.0976 12.0321 0)
(50.1178 12.0539 0)
(50.1368 12.0758 0)
(50.1545 12.0976 0)
(50.1715 12.119 0)
(50.1879 12.1404 0)
(50.2028 12.1625 0)
(50.2147 12.1857 0)
(50.2231 12.2092 0)
(50.2295 12.2308 0)
(50.2377 12.248 0)
(50.2524 12.2594 0)
(50.2754 12.2667 0)
(50.303 12.2748 0)
(50.3262 12.2906 0)
(50.3328 12.3188 0)
(50.3175 12.3594 0)
(50.2827 12.4026 0)
(50.2502 12.4397 0)
(50.2282 12.4421 0)
(50.3285 12.3974 0)
(49.9861 11.8639 0)
(49.9965 11.8932 0)
(50.0086 11.9202 0)
(50.0228 11.945 0)
(50.0395 11.9679 0)
(50.0585 11.9895 0)
(50.079 12.0107 0)
(50.0999 12.032 0)
(50.1201 12.0538 0)
(50.139 12.0758 0)
(50.1566 12.0975 0)
(50.1735 12.1189 0)
(50.1897 12.1403 0)
(50.2044 12.1625 0)
(50.2161 12.1857 0)
(50.2242 12.2092 0)
(50.2305 12.2308 0)
(50.2387 12.2479 0)
(50.2534 12.2593 0)
(50.2765 12.2666 0)
(50.304 12.2747 0)
(50.3267 12.2905 0)
(50.3323 12.3188 0)
(50.3161 12.3595 0)
(50.2809 12.4026 0)
(50.2487 12.4398 0)
(50.2284 12.442 0)
(50.33 12.3973 0)
(49.9874 11.8638 0)
(49.998 11.8931 0)
(50.0103 11.9201 0)
(50.0247 11.9449 0)
(50.0416 11.9678 0)
(50.0607 11.9894 0)
(50.0813 12.0106 0)
(50.1023 12.0319 0)
(50.1224 12.0537 0)
(50.1412 12.0757 0)
(50.1587 12.0975 0)
(50.1754 12.1189 0)
(50.1915 12.1403 0)
(50.2059 12.1624 0)
(50.2174 12.1857 0)
(50.2253 12.2092 0)
(50.2314 12.2308 0)
(50.2397 12.2479 0)
(50.2545 12.2593 0)
(50.2777 12.2665 0)
(50.305 12.2747 0)
(50.3271 12.2905 0)
(50.3317 12.3188 0)
(50.3146 12.3595 0)
(50.2791 12.4027 0)
(50.2472 12.4398 0)
(50.2286 12.442 0)
(50.3315 12.3972 0)
(49.9792 11.8323 0)
(49.9888 11.8637 0)
(49.9995 11.893 0)
(50.012 11.92 0)
(50.0266 11.9448 0)
(50.0437 11.9676 0)
(50.063 11.9893 0)
(50.0837 12.0104 0)
(50.1047 12.0318 0)
(50.1248 12.0536 0)
(50.1434 12.0756 0)
(50.1608 12.0974 0)
(50.1774 12.1188 0)
(50.1932 12.1402 0)
(50.2075 12.1624 0)
(50.2187 12.1856 0)
(50.2264 12.2091 0)
(50.2324 12.2307 0)
(50.2406 12.2479 0)
(50.2556 12.2592 0)
(50.2789 12.2665 0)
(50.3059 12.2746 0)
(50.3274 12.2905 0)
(50.3311 12.3189 0)
(50.3131 12.3596 0)
(50.2772 12.4028 0)
(50.2458 12.4399 0)
(50.2289 12.4419 0)
(50.3331 12.3972 0)
(49.972 11.7991 0)
(49.9804 11.8322 0)
(49.9901 11.8636 0)
(50.0011 11.8929 0)
(50.0137 11.9199 0)
(50.0286 11.9447 0)
(50.0458 11.9675 0)
(50.0653 11.9891 0)
(50.0861 12.0103 0)
(50.107 12.0317 0)
(50.1271 12.0535 0)
(50.1456 12.0755 0)
(50.1629 12.0973 0)
(50.1793 12.1187 0)
(50.195 12.1402 0)
(50.209 12.1623 0)
(50.22 12.1856 0)
(50.2274 12.2091 0)
(50.2333 12.2307 0)
(50.2416 12.2478 0)
(50.2567 12.2592 0)
(50.28 12.2664 0)
(50.3068 12.2746 0)
(50.3277 12.2904 0)
(50.3305 12.3189 0)
(50.3116 12.3596 0)
(50.2753 12.4028 0)
(50.2443 12.4399 0)
(50.2293 12.4418 0)
(50.3348 12.3971 0)
(49.9661 11.7642 0)
(49.9729 11.799 0)
(49.9815 11.8322 0)
(49.9915 11.8635 0)
(50.0027 11.8928 0)
(50.0155 11.9198 0)
(50.0305 11.9446 0)
(50.048 11.9674 0)
(50.0676 11.989 0)
(50.0885 12.0102 0)
(50.1094 12.0316 0)
(50.1294 12.0534 0)
(50.1479 12.0754 0)
(50.1649 12.0973 0)
(50.1812 12.1187 0)
(50.1967 12.1401 0)
(50.2105 12.1623 0)
(50.2212 12.1856 0)
(50.2285 12.2091 0)
(50.2342 12.2307 0)
(50.2425 12.2478 0)
(50.2578 12.2591 0)
(50.2811 12.2664 0)
(50.3077 12.2745 0)
(50.3279 12.2904 0)
(50.3298 12.3189 0)
(50.31 12.3597 0)
(50.2735 12.4029 0)
(50.2429 12.44 0)
(50.2297 12.4418 0)
(50.3365 12.397 0)
(49.9627 11.7272 0)
(49.9668 11.7641 0)
(49.9739 11.799 0)
(49.9827 11.8321 0)
(49.9929 11.8634 0)
(50.0043 11.8927 0)
(50.0173 11.9197 0)
(50.0325 11.9445 0)
(50.0502 11.9673 0)
(50.0699 11.9889 0)
(50.0909 12.0101 0)
(50.1119 12.0315 0)
(50.1318 12.0533 0)
(50.1501 12.0754 0)
(50.167 12.0972 0)
(50.1831 12.1186 0)
(50.1985 12.1401 0)
(50.212 12.1623 0)
(50.2225 12.1855 0)
(50.2295 12.2091 0)
(50.2351 12.2307 0)
(50.2435 12.2478 0)
(50.2588 12.2591 0)
(50.2822 12.2663 0)
(50.3086 12.2745 0)
(50.3281 12.2904 0)
(50.329 12.3189 0)
(50.3083 12.3597 0)
(50.2716 12.4029 0)
(50.2416 12.44 0)
(50.2302 12.4417 0)
(50.3382 12.397 0)
(49.9624 11.6874 0)
(49.9631 11.7272 0)
(49.9676 11.7641 0)
(49.9748 11.7989 0)
(49.984 11.832 0)
(49.9943 11.8634 0)
(50.0059 11.8927 0)
(50.0192 11.9196 0)
(50.0346 11.9444 0)
(50.0524 11.9672 0)
(50.0723 11.9888 0)
(50.0933 12.01 0)
(50.1143 12.0314 0)
(50.1341 12.0532 0)
(50.1523 12.0753 0)
(50.1691 12.0971 0)
(50.185 12.1186 0)
(50.2002 12.14 0)
(50.2135 12.1622 0)
(50.2237 12.1855 0)
(50.2305 12.2091 0)
(50.2359 12.2307 0)
(50.2444 12.2477 0)
(50.2599 12.259 0)
(50.2833 12.2663 0)
(50.3094 12.2744 0)
(50.3282 12.2904 0)
(50.3282 12.3189 0)
(50.3067 12.3598 0)
(50.2697 12.403 0)
(50.2402 12.44 0)
(50.2309 12.4417 0)
(50.3399 12.3969 0)
(49.9659 11.6437 0)
(49.9626 11.6874 0)
(49.9636 11.7272 0)
(49.9683 11.764 0)
(49.9759 11.7988 0)
(49.9852 11.8319 0)
(49.9958 11.8633 0)
(50.0076 11.8926 0)
(50.021 11.9196 0)
(50.0367 11.9443 0)
(50.0546 11.9671 0)
(50.0746 11.9887 0)
(50.0957 12.0099 0)
(50.1167 12.0313 0)
(50.1364 12.0531 0)
(50.1545 12.0752 0)
(50.1711 12.0971 0)
(50.1869 12.1185 0)
(50.2018 12.14 0)
(50.2149 12.1622 0)
(50.2249 12.1855 0)
(50.2314 12.2091 0)
(50.2368 12.2307 0)
(50.2453 12.2477 0)
(50.2609 12.259 0)
(50.2844 12.2662 0)
(50.3102 12.2744 0)
(50.3283 12.2903 0)
(50.3273 12.3189 0)
(50.305 12.3598 0)
(50.2678 12.403 0)
(50.239 12.44 0)
(50.2316 12.4416 0)
(50.3417 12.3969 0)
(49.9659 11.6438 0)
(49.9629 11.6874 0)
(49.9641 11.7272 0)
(49.9691 11.764 0)
(49.9769 11.7988 0)
(49.9865 11.8319 0)
(49.9973 11.8632 0)
(50.0093 11.8925 0)
(50.0229 11.9195 0)
(50.0388 11.9442 0)
(50.0569 11.967 0)
(50.0771 11.9886 0)
(50.0982 12.0098 0)
(50.1191 12.0312 0)
(50.1388 12.0531 0)
(50.1567 12.0752 0)
(50.1731 12.097 0)
(50.1887 12.1185 0)
(50.2035 12.1399 0)
(50.2164 12.1622 0)
(50.226 12.1855 0)
(50.2323 12.209 0)
(50.2376 12.2306 0)
(50.2462 12.2477 0)
(50.2619 12.259 0)
(50.2855 12.2662 0)
(50.311 12.2743 0)
(50.3284 12.2903 0)
(50.3264 12.319 0)
(50.3032 12.3598 0)
(50.266 12.4031 0)
(50.2377 12.4401 0)
(50.2323 12.4415 0)
(50.3435 12.3968 0)
(49.9726 11.5952 0)
(49.9659 11.6438 0)
(49.9631 11.6875 0)
(49.9646 11.7271 0)
(49.9699 11.7639 0)
(49.978 11.7987 0)
(49.9879 11.8318 0)
(49.9989 11.8631 0)
(50.011 11.8924 0)
(50.0249 11.9194 0)
(50.0409 11.9441 0)
(50.0592 11.9669 0)
(50.0795 11.9885 0)
(50.1007 12.0097 0)
(50.1216 12.0311 0)
(50.1411 12.053 0)
(50.1588 12.0751 0)
(50.1751 12.097 0)
(50.1906 12.1184 0)
(50.2051 12.1399 0)
(50.2178 12.1621 0)
(50.2271 12.1855 0)
(50.2333 12.209 0)
(50.2384 12.2306 0)
(50.247 12.2477 0)
(50.263 12.2589 0)
(50.2865 12.2661 0)
(50.3117 12.2743 0)
(50.3284 12.2903 0)
(50.3254 12.319 0)
(50.3014 12.3599 0)
(50.2641 12.4031 0)
(50.2366 12.4401 0)
(50.2332 12.4415 0)
(50.3454 12.3968 0)
(49.9819 11.5412 0)
(49.9725 11.5953 0)
(49.9659 11.6439 0)
(49.9633 11.6875 0)
(49.9651 11.7271 0)
(49.9707 11.7639 0)
(49.9791 11.7986 0)
(49.9892 11.8317 0)
(50.0005 11.8631 0)
(50.0128 11.8923 0)
(50.0269 11.9193 0)
(50.0431 11.944 0)
(50.0616 11.9668 0)
(50.0819 11.9884 0)
(50.1032 12.0096 0)
(50.124 12.031 0)
(50.1434 12.0529 0)
(50.161 12.075 0)
(50.1771 12.0969 0)
(50.1924 12.1184 0)
(50.2068 12.1399 0)
(50.2191 12.1621 0)
(50.2283 12.1855 0)
(50.2341 12.209 0)
(50.2392 12.2306 0)
(50.2479 12.2477 0)
(50.264 12.2589 0)
(50.2875 12.2661 0)
(50.3124 12.2743 0)
(50.3283 12.2903 0)
(50.3243 12.319 0)
(50.2996 12.3599 0)
(50.2622 12.4031 0)
(50.2354 12.4401 0)
(50.2342 12.4414 0)
(50.3473 12.3967 0)
(49.9818 11.5414 0)
(49.9723 11.5954 0)
(49.9659 11.6439 0)
(49.9636 11.6875 0)
(49.9657 11.7271 0)
(49.9716 11.7638 0)
(49.9803 11.7986 0)
(49.9907 11.8316 0)
(50.0021 11.863 0)
(50.0146 11.8923 0)
(50.0289 11.9192 0)
(50.0453 11.9439 0)
(50.0639 11.9667 0)
(50.0844 11.9883 0)
(50.1057 12.0095 0)
(50.1265 12.031 0)
(50.1458 12.0529 0)
(50.1632 12.075 0)
(50.1791 12.0969 0)
(50.1942 12.1183 0)
(50.2084 12.1398 0)
(50.2205 12.1621 0)
(50.2293 12.1854 0)
(50.235 12.209 0)
(50.24 12.2306 0)
(50.2488 12.2476 0)
(50.265 12.2589 0)
(50.2885 12.266 0)
(50.313 12.2742 0)
(50.3282 12.2903 0)
(50.3232 12.319 0)
(50.2977 12.3599 0)
(50.2603 12.4032 0)
(50.2343 12.4401 0)
(50.2352 12.4414 0)
(50.3492 12.3967 0)
(49.9924 11.4819 0)
(49.9816 11.5415 0)
(49.9722 11.5955 0)
(49.9659 11.644 0)
(49.9638 11.6875 0)
(49.9663 11.7271 0)
(49.9725 11.7638 0)
(49.9815 11.7985 0)
(49.9921 11.8316 0)
(50.0037 11.8629 0)
(50.0165 11.8922 0)
(50.0309 11.9191 0)
(50.0475 11.9438 0)
(50.0663 11.9666 0)
(50.0869 11.9882 0)
(50.1082 12.0095 0)
(50.1289 12.0309 0)
(50.1481 12.0528 0)
(50.1653 12.0749 0)
(50.1811 12.0968 0)
(50.196 12.1183 0)
(50.2099 12.1398 0)
(50.2218 12.1621 0)
(50.2304 12.1854 0)
(50.2359 12.209 0)
(50.2408 12.2306 0)
(50.2496 12.2476 0)
(50.266 12.2588 0)
(50.2895 12.266 0)
(50.3136 12.2742 0)
(50.328 12.2903 0)
(50.3221 12.319 0)
(50.2959 12.36 0)
(50.2585 12.4032 0)
(50.2333 12.4401 0)
(50.2363 12.4413 0)
(50.3511 12.3966 0)
(50.0029 11.4173 0)
(49.9922 11.482 0)
(49.9813 11.5416 0)
(49.972 11.5956 0)
(49.9659 11.644 0)
(49.9641 11.6875 0)
(49.9669 11.727 0)
(49.9735 11.7637 0)
(49.9827 11.7984 0)
(49.9936 11.8315 0)
(50.0054 11.8629 0)
(50.0184 11.8921 0)
(50.033 11.9191 0)
(50.0498 11.9437 0)
(50.0687 11.9665 0)
(50.0894 11.9882 0)
(50.1107 12.0094 0)
(50.1314 12.0308 0)
(50.1504 12.0528 0)
(50.1675 12.0749 0)
(50.1831 12.0968 0)
(50.1978 12.1183 0)
(50.2115 12.1398 0)
(50.2231 12.162 0)
(50.2314 12.1854 0)
(50.2367 12.209 0)
(50.2416 12.2306 0)
(50.2505 12.2476 0)
(50.2669 12.2588 0)
(50.2904 12.2659 0)
(50.3142 12.2742 0)
(50.3278 12.2903 0)
(50.3209 12.319 0)
(50.2939 12.36 0)
(50.2566 12.4032 0)
(50.2324 12.4401 0)
(50.2375 12.4413 0)
(50.3531 12.3966 0)
(50.012 11.3481 0)
(50.0029 11.4174 0)
(49.992 11.4822 0)
(49.9811 11.5417 0)
(49.9718 11.5957 0)
(49.9659 11.6441 0)
(49.9644 11.6875 0)
(49.9675 11.727 0)
(49.9745 11.7637 0)
(49.984 11.7984 0)
(49.9951 11.8314 0)
(50.0071 11.8628 0)
(50.0203 11.8921 0)
(50.0351 11.919 0)
(50.052 11.9437 0)
(50.0712 11.9665 0)
(50.0919 11.9881 0)
(50.1132 12.0093 0)
(50.1338 12.0308 0)
(50.1527 12.0527 0)
(50.1696 12.0748 0)
(50.185 12.0967 0)
(50.1995 12.1182 0)
(50.213 12.1397 0)
(50.2244 12.162 0)
(50.2324 12.1854 0)
(50.2375 12.209 0)
(50.2423 12.2306 0)
(50.2513 12.2476 0)
(50.2679 12.2588 0)
(50.2914 12.2659 0)
(50.3147 12.2742 0)
(50.3275 12.2903 0)
(50.3196 12.3191 0)
(50.292 12.3601 0)
(50.2548 12.4033 0)
(50.2314 12.4401 0)
(50.2388 12.4412 0)
(50.3551 12.3966 0)
(50.019 11.2752 0)
(50.0123 11.3483 0)
(50.0028 11.4175 0)
(49.9918 11.4823 0)
(49.9808 11.5419 0)
(49.9716 11.5958 0)
(49.9659 11.6441 0)
(49.9648 11.6875 0)
(49.9682 11.727 0)
(49.9755 11.7636 0)
(49.9853 11.7983 0)
(49.9966 11.8314 0)
(50.0089 11.8627 0)
(50.0222 11.892 0)
(50.0372 11.9189 0)
(50.0544 11.9436 0)
(50.0736 11.9664 0)
(50.0945 11.988 0)
(50.1158 12.0092 0)
(50.1363 12.0307 0)
(50.155 12.0527 0)
(50.1717 12.0748 0)
(50.1869 12.0967 0)
(50.2012 12.1182 0)
(50.2145 12.1397 0)
(50.2256 12.162 0)
(50.2334 12.1854 0)
(50.2383 12.209 0)
(50.243 12.2306 0)
(50.2521 12.2475 0)
(50.2689 12.2587 0)
(50.2923 12.2659 0)
(50.3152 12.2741 0)
(50.3272 12.2903 0)
(50.3183 12.3191 0)
(50.29 12.3601 0)
(50.253 12.4033 0)
(50.2306 12.4402 0)
(50.2402 12.4412 0)
(50.3571 12.3965 0)
(50.0233 11.199 0)
(50.0195 11.2753 0)
(50.0124 11.3484 0)
(50.0027 11.4177 0)
(49.9915 11.4824 0)
(49.9805 11.542 0)
(49.9714 11.5958 0)
(49.966 11.6441 0)
(49.9651 11.6875 0)
(49.9689 11.7269 0)
(49.9765 11.7636 0)
(49.9867 11.7982 0)
(49.9982 11.8313 0)
(50.0107 11.8627 0)
(50.0242 11.8919 0)
(50.0394 11.9189 0)
(50.0567 11.9435 0)
(50.0761 11.9663 0)
(50.097 11.9879 0)
(50.1183 12.0092 0)
(50.1387 12.0307 0)
(50.1573 12.0526 0)
(50.1738 12.0748 0)
(50.1888 12.0967 0)
(50.2029 12.1182 0)
(50.216 12.1397 0)
(50.2268 12.162 0)
(50.2343 12.1854 0)
(50.239 12.209 0)
(50.2437 12.2305 0)
(50.253 12.2475 0)
(50.2698 12.2587 0)
(50.2932 12.2658 0)
(50.3157 12.2741 0)
(50.3268 12.2903 0)
(50.317 12.3191 0)
(50.2881 12.3601 0)
(50.2512 12.4033 0)
(50.2298 12.4402 0)
(50.2417 12.4411 0)
(50.3591 12.3965 0)
(50.0244 11.12 0)
(50.0241 11.1991 0)
(50.02 11.2754 0)
(50.0125 11.3485 0)
(50.0026 11.4178 0)
(49.9912 11.4825 0)
(49.9802 11.5421 0)
(49.9712 11.5959 0)
(49.9661 11.6441 0)
(49.9655 11.6875 0)
(49.9697 11.7269 0)
(49.9776 11.7635 0)
(49.9881 11.7982 0)
(49.9998 11.8312 0)
(50.0125 11.8626 0)
(50.0262 11.8919 0)
(50.0416 11.9188 0)
(50.0591 11.9434 0)
(50.0786 11.9662 0)
(50.0996 11.9879 0)
(50.1209 12.0091 0)
(50.1412 12.0306 0)
(50.1596 12.0526 0)
(50.1759 12.0747 0)
(50.1907 12.0966 0)
(50.2046 12.1181 0)
(50.2175 12.1397 0)
(50.228 12.162 0)
(50.2353 12.1854 0)
(50.2397 12.209 0)
(50.2444 12.2305 0)
(50.2538 12.2475 0)
(50.2707 12.2587 0)
(50.294 12.2658 0)
(50.3161 12.2741 0)
(50.3263 12.2903 0)
(50.3156 12.3191 0)
(50.2861 12.3601 0)
(50.2494 12.4034 0)
(50.2291 12.4402 0)
(50.2433 12.4411 0)
(50.3612 12.3964 0)
(50.022 11.0383 0)
(50.0256 11.12 0)
(50.0249 11.1992 0)
(50.0203 11.2755 0)
(50.0126 11.3486 0)
(50.0024 11.4179 0)
(49.9909 11.4827 0)
(49.9798 11.5421 0)
(49.9711 11.596 0)
(49.9661 11.6442 0)
(49.966 11.6875 0)
(49.9705 11.7268 0)
(49.9788 11.7634 0)
(49.9895 11.7981 0)
(50.0015 11.8312 0)
(50.0144 11.8625 0)
(50.0283 11.8918 0)
(50.0438 11.9187 0)
(50.0615 11.9434 0)
(50.0811 11.9662 0)
(50.1022 11.9878 0)
(50.1234 12.009 0)
(50.1436 12.0305 0)
(50.1618 12.0525 0)
(50.1779 12.0747 0)
(50.1926 12.0966 0)
(50.2063 12.1181 0)
(50.2189 12.1396 0)
(50.2292 12.1619 0)
(50.2362 12.1854 0)
(50.2404 12.209 0)
(50.2451 12.2305 0)
(50.2546 12.2475 0)
(50.2717 12.2586 0)
(50.2949 12.2658 0)
(50.3164 12.2741 0)
(50.3258 12.2903 0)
(50.3141 12.3191 0)
(50.284 12.3602 0)
(50.2477 12.4034 0)
(50.2284 12.4402 0)
(50.2449 12.441 0)
(50.3633 12.3964 0)
(50.0157 10.9545 0)
(50.0236 11.0383 0)
(50.0267 11.12 0)
(50.0256 11.1992 0)
(50.0207 11.2756 0)
(50.0126 11.3487 0)
(50.0021 11.418 0)
(49.9905 11.4828 0)
(49.9795 11.5422 0)
(49.9709 11.596 0)
(49.9662 11.6442 0)
(49.9664 11.6874 0)
(49.9713 11.7268 0)
(49.98 11.7634 0)
(49.991 11.7981 0)
(50.0032 11.8311 0)
(50.0162 11.8625 0)
(50.0303 11.8917 0)
(50.0461 11.9187 0)
(50.0639 11.9433 0)
(50.0837 11.9661 0)
(50.1048 11.9877 0)
(50.126 12.009 0)
(50.1461 12.0305 0)
(50.1641 12.0525 0)
(50.18 12.0747 0)
(50.1944 12.0966 0)
(50.2079 12.1181 0)
(50.2203 12.1396 0)
(50.2303 12.1619 0)
(50.237 12.1853 0)
(50.2411 12.209 0)
(50.2458 12.2305 0)
(50.2553 12.2475 0)
(50.2726 12.2586 0)
(50.2957 12.2658 0)
(50.3167 12.274 0)
(50.3253 12.2903 0)
(50.3126 12.3191 0)
(50.282 12.3602 0)
(50.246 12.4034 0)
(50.2279 12.4402 0)
(50.2466 12.441 0)
(50.3654 12.3964 0)
(50.0054 10.8689 0)
(50.0176 10.9544 0)
(50.0251 11.0382 0)
(50.0278 11.12 0)
(50.0262 11.1993 0)
(50.0209 11.2757 0)
(50.0125 11.3488 0)
(50.0018 11.4181 0)
(49.9901 11.4829 0)
(49.9792 11.5423 0)
(49.9707 11.5961 0)
(49.9664 11.6442 0)
(49.9669 11.6874 0)
(49.9722 11.7268 0)
(49.9812 11.7633 0)
(49.9925 11.798 0)
(50.0049 11.8311 0)
(50.0182 11.8624 0)
(50.0325 11.8917 0)
(50.0484 11.9186 0)
(50.0663 11.9432 0)
(50.0863 11.966 0)
(50.1074 11.9877 0)
(50.1286 12.0089 0)
(50.1485 12.0304 0)
(50.1663 12.0524 0)
(50.182 12.0746 0)
(50.1962 12.0966 0)
(50.2095 12.1181 0)
(50.2217 12.1396 0)
(50.2314 12.1619 0)
(50.2379 12.1853 0)
(50.2418 12.2089 0)
(50.2464 12.2305 0)
(50.2561 12.2475 0)
(50.2735 12.2586 0)
(50.2965 12.2657 0)
(50.317 12.274 0)
(50.3247 12.2903 0)
(50.3111 12.3192 0)
(50.2799 12.3602 0)
(50.2443 12.4034 0)
(50.2273 12.4402 0)
(50.2485 12.4409 0)
(50.3674 12.3963 0)
(49.9915 10.7819 0)
(50.0076 10.8687 0)
(50.0195 10.9543 0)
(50.0265 11.0382 0)
(50.0288 11.12 0)
(50.0268 11.1993 0)
(50.0211 11.2757 0)
(50.0124 11.3489 0)
(50.0015 11.4182 0)
(49.9897 11.483 0)
(49.9788 11.5424 0)
(49.9705 11.5961 0)
(49.9665 11.6442 0)
(49.9675 11.6874 0)
(49.9731 11.7267 0)
(49.9825 11.7633 0)
(49.994 11.7979 0)
(50.0067 11.831 0)
(50.0201 11.8624 0)
(50.0346 11.8916 0)
(50.0507 11.9185 0)
(50.0688 11.9432 0)
(50.0888 11.966 0)
(50.11 11.9876 0)
(50.1311 12.0089 0)
(50.1509 12.0304 0)
(50.1685 12.0524 0)
(50.184 12.0746 0)
(50.198 12.0965 0)
(50.2111 12.118 0)
(50.223 12.1396 0)
(50.2325 12.1619 0)
(50.2387 12.1853 0)
(50.2424 12.2089 0)
(50.2471 12.2305 0)
(50.2569 12.2474 0)
(50.2743 12.2586 0)
(50.2972 12.2657 0)
(50.3172 12.274 0)
(50.324 12.2903 0)
(50.3095 12.3192 0)
(50.2779 12.3603 0)
(50.2426 12.4035 0)
(50.2269 12.4402 0)
(50.2504 12.4409 0)
(50.3696 12.3963 0)
(49.975 10.6935 0)
(49.994 10.7817 0)
(50.0098 10.8686 0)
(50.0213 10.9542 0)
(50.0279 11.0382 0)
(50.0297 11.12 0)
(50.0273 11.1994 0)
(50.0212 11.2758 0)
(50.0122 11.349 0)
(50.0011 11.4183 0)
(49.9893 11.4831 0)
(49.9784 11.5425 0)
(49.9704 11.5962 0)
(49.9667 11.6442 0)
(49.968 11.6874 0)
(49.9741 11.7267 0)
(49.9838 11.7632 0)
(49.9956 11.7979 0)
(50.0085 11.831 0)
(50.0221 11.8623 0)
(50.0368 11.8916 0)
(50.053 11.9185 0)
(50.0713 11.9431 0)
(50.0914 11.9659 0)
(50.1126 11.9875 0)
(50.1337 12.0088 0)
(50.1533 12.0304 0)
(50.1708 12.0524 0)
(50.186 12.0746 0)
(50.1998 12.0965 0)
(50.2127 12.118 0)
(50.2243 12.1396 0)
(50.2335 12.1619 0)
(50.2395 12.1853 0)
(50.2431 12.2089 0)
(50.2477 12.2305 0)
(50.2576 12.2474 0)
(50.2752 12.2585 0)
(50.298 12.2657 0)
(50.3174 12.274 0)
(50.3233 12.2903 0)
(50.3078 12.3192 0)
(50.2758 12.3603 0)
(50.241 12.4035 0)
(50.2265 12.4402 0)
(50.2524 12.4408 0)
(50.3717 12.3963 0)
(49.9571 10.6033 0)
(49.9777 10.6933 0)
(49.9965 10.7815 0)
(50.012 10.8684 0)
(50.0231 10.9541 0)
(50.0292 11.0381 0)
(50.0305 11.12 0)
(50.0277 11.1994 0)
(50.0212 11.2759 0)
(50.012 11.3491 0)
(50.0007 11.4184 0)
(49.9888 11.4831 0)
(49.9781 11.5425 0)
(49.9703 11.5962 0)
(49.9669 11.6442 0)
(49.9687 11.6874 0)
(49.9751 11.7266 0)
(49.9851 11.7632 0)
(49.9973 11.7978 0)
(50.0104 11.8309 0)
(50.0242 11.8623 0)
(50.039 11.8915 0)
(50.0554 11.9184 0)
(50.0738 11.9431 0)
(50.0941 11.9659 0)
(50.1153 11.9875 0)
(50.1362 12.0088 0)
(50.1557 12.0303 0)
(50.1729 12.0523 0)
(50.188 12.0745 0)
(50.2015 12.0965 0)
(50.2142 12.118 0)
(50.2256 12.1395 0)
(50.2346 12.1619 0)
(50.2402 12.1853 0)
(50.2437 12.2089 0)
(50.2483 12.2305 0)
(50.2584 12.2474 0)
(50.2761 12.2585 0)
(50.2987 12.2657 0)
(50.3176 12.274 0)
(50.3225 12.2903 0)
(50.3062 12.3192 0)
(50.2737 12.3603 0)
(50.2395 12.4035 0)
(50.2262 12.4402 0)
(50.2545 12.4408 0)
(50.3738 12.3962 0)
(49.9389 10.5104 0)
(49.9598 10.603 0)
(49.9803 10.693 0)
(49.9989 10.7813 0)
(50.0141 10.8683 0)
(50.0247 10.954 0)
(50.0304 11.0381 0)
(50.0313 11.1201 0)
(50.028 11.1995 0)
(50.0212 11.276 0)
(50.0117 11.3492 0)
(50.0003 11.4185 0)
(49.9884 11.4832 0)
(49.9777 11.5426 0)
(49.9702 11.5962 0)
(49.9672 11.6443 0)
(49.9693 11.6874 0)
(49.9762 11.7266 0)
(49.9865 11.7631 0)
(49.9989 11.7978 0)
(50.0123 11.8309 0)
(50.0262 11.8622 0)
(50.0412 11.8915 0)
(50.0578 11.9184 0)
(50.0764 11.943 0)
(50.0967 11.9658 0)
(50.1179 11.9874 0)
(50.1388 12.0087 0)
(50.1581 12.0303 0)
(50.1751 12.0523 0)
(50.1899 12.0745 0)
(50.2033 12.0965 0)
(50.2157 12.118 0)
(50.2269 12.1395 0)
(50.2356 12.1619 0)
(50.241 12.1853 0)
(50.2443 12.2089 0)
(50.2489 12.2305 0)
(50.2591 12.2474 0)
(50.2769 12.2585 0)
(50.2993 12.2656 0)
(50.3176 12.274 0)
(50.3217 12.2903 0)
(50.3044 12.3192 0)
(50.2716 12.3603 0)
(50.2379 12.4035 0)
(50.226 12.4402 0)
(50.2567 12.4407 0)
(50.3759 12.3962 0)
(49.9216 10.4135 0)
(49.9417 10.5101 0)
(49.9625 10.6027 0)
(49.9829 10.6927 0)
(50.0012 10.781 0)
(50.0161 10.8681 0)
(50.0263 10.9539 0)
(50.0316 11.0381 0)
(50.032 11.1201 0)
(50.0283 11.1995 0)
(50.0212 11.276 0)
(50.0114 11.3493 0)
(49.9998 11.4186 0)
(49.9879 11.4833 0)
(49.9774 11.5427 0)
(49.9701 11.5963 0)
(49.9674 11.6443 0)
(49.97 11.6873 0)
(49.9773 11.7266 0)
(49.988 11.7631 0)
(50.0006 11.7977 0)
(50.0142 11.8308 0)
(50.0283 11.8622 0)