/*--------------------------------*- C++ -*----------------------------------*\
  =========                 |
  \\      /  F ield         | OpenFOAM: The Open Source CFD Toolbox
   \\    /   O peration     | Website:  https://openfoam.org
    \\  /    A nd           | Version:  7
     \\/     M anipulation  |
\*---------------------------------------------------------------------------*/
FoamFile
{
    version     2.0;
    format      ascii;
    class       volScalarField;
    location    "2000";
    object      nut;
}
// * * * * * * * * * * * * * * * * * * * * * * * * * * * * * * * * * * * * * //

dimensions      [0 2 -1 0 0 0 0];

internalField   nonuniform List<scalar> 
23023
(
5.25886e-06
5.25796e-06
5.25887e-06
5.25783e-06
5.25797e-06
5.25888e-06
5.25722e-06
5.25784e-06
5.25798e-06
5.25889e-06
5.25723e-06
5.25785e-06
5.258e-06
5.2589e-06
5.2568e-06
5.25724e-06
5.25786e-06
5.25801e-06
5.25891e-06
5.25631e-06
5.2568e-06
5.25724e-06
5.25787e-06
5.25802e-06
5.25892e-06
5.25584e-06
5.25632e-06
5.25681e-06
5.25725e-06
5.25788e-06
5.25803e-06
5.25893e-06
5.25536e-06
5.25585e-06
5.25633e-06
5.25682e-06
5.25726e-06
5.25789e-06
5.25803e-06
5.25894e-06
5.25489e-06
5.25537e-06
5.25586e-06
5.25633e-06
5.25683e-06
5.25727e-06
5.2579e-06
5.25804e-06
5.25894e-06
5.25442e-06
5.25489e-06
5.25538e-06
5.25587e-06
5.25634e-06
5.25683e-06
5.25728e-06
5.25791e-06
5.25805e-06
5.25895e-06
5.25442e-06
5.2549e-06
5.25539e-06
5.25587e-06
5.25635e-06
5.25684e-06
5.25728e-06
5.25791e-06
5.25806e-06
5.25895e-06
5.25396e-06
5.25443e-06
5.25491e-06
5.2554e-06
5.25588e-06
5.25636e-06
5.25685e-06
5.25729e-06
5.25792e-06
5.25806e-06
5.25896e-06
5.2535e-06
5.25396e-06
5.25443e-06
5.25492e-06
5.2554e-06
5.25589e-06
5.25636e-06
5.25685e-06
5.2573e-06
5.25793e-06
5.25807e-06
5.25896e-06
5.25306e-06
5.2535e-06
5.25396e-06
5.25444e-06
5.25492e-06
5.25541e-06
5.2559e-06
5.25637e-06
5.25686e-06
5.25731e-06
5.25794e-06
5.25807e-06
5.25896e-06
5.25262e-06
5.25306e-06
5.2535e-06
5.25396e-06
5.25444e-06
5.25493e-06
5.25542e-06
5.2559e-06
5.25637e-06
5.25687e-06
5.25731e-06
5.25794e-06
5.25808e-06
5.25896e-06
5.25262e-06
5.25306e-06
5.2535e-06
5.25397e-06
5.25445e-06
5.25494e-06
5.25543e-06
5.25591e-06
5.25638e-06
5.25687e-06
5.25732e-06
5.25795e-06
5.25808e-06
5.25897e-06
5.25219e-06
5.25262e-06
5.25306e-06
5.2535e-06
5.25397e-06
5.25445e-06
5.25494e-06
5.25543e-06
5.25591e-06
5.25638e-06
5.25688e-06
5.25732e-06
5.25795e-06
5.25808e-06
5.25897e-06
5.25175e-06
5.25219e-06
5.25262e-06
5.25306e-06
5.25351e-06
5.25397e-06
5.25446e-06
5.25495e-06
5.25544e-06
5.25592e-06
5.25639e-06
5.25688e-06
5.25733e-06
5.25796e-06
5.25808e-06
5.25897e-06
5.25175e-06
5.25219e-06
5.25262e-06
5.25305e-06
5.25351e-06
5.25398e-06
5.25446e-06
5.25496e-06
5.25544e-06
5.25592e-06
5.25639e-06
5.25688e-06
5.25733e-06
5.25796e-06
5.25809e-06
5.25897e-06
5.25132e-06
5.25175e-06
5.25218e-06
5.25261e-06
5.25305e-06
5.25351e-06
5.25398e-06
5.25447e-06
5.25496e-06
5.25545e-06
5.25593e-06
5.2564e-06
5.25689e-06
5.25733e-06
5.25796e-06
5.25809e-06
5.25897e-06
5.2509e-06
5.25133e-06
5.25175e-06
5.25218e-06
5.25261e-06
5.25305e-06
5.25351e-06
5.25399e-06
5.25448e-06
5.25497e-06
5.25546e-06
5.25593e-06
5.2564e-06
5.25689e-06
5.25734e-06
5.25797e-06
5.25809e-06
5.25897e-06
5.25048e-06
5.2509e-06
5.25133e-06
5.25175e-06
5.25218e-06
5.25261e-06
5.25305e-06
5.25351e-06
5.25399e-06
5.25448e-06
5.25498e-06
5.25546e-06
5.25594e-06
5.2564e-06
5.25689e-06
5.25734e-06
5.25797e-06
5.25809e-06
5.25897e-06
5.25006e-06
5.25048e-06
5.2509e-06
5.25133e-06
5.25175e-06
5.25218e-06
5.25261e-06
5.25305e-06
5.25352e-06
5.254e-06
5.25449e-06
5.25498e-06
5.25547e-06
5.25594e-06
5.25641e-06
5.2569e-06
5.25734e-06
5.25797e-06
5.25809e-06
5.25898e-06
5.25007e-06
5.25048e-06
5.2509e-06
5.25133e-06
5.25175e-06
5.25218e-06
5.25261e-06
5.25305e-06
5.25352e-06
5.254e-06
5.25449e-06
5.25499e-06
5.25547e-06
5.25594e-06
5.25641e-06
5.2569e-06
5.25734e-06
5.25797e-06
5.25809e-06
5.25898e-06
5.24966e-06
5.25007e-06
5.25048e-06
5.25091e-06
5.25133e-06
5.25175e-06
5.25217e-06
5.25261e-06
5.25306e-06
5.25352e-06
5.25401e-06
5.2545e-06
5.25499e-06
5.25547e-06
5.25595e-06
5.25641e-06
5.2569e-06
5.25734e-06
5.25797e-06
5.25809e-06
5.25898e-06
5.24926e-06
5.24966e-06
5.25007e-06
5.25049e-06
5.25091e-06
5.25133e-06
5.25175e-06
5.25217e-06
5.2526e-06
5.25306e-06
5.25353e-06
5.25401e-06
5.25451e-06
5.255e-06
5.25548e-06
5.25595e-06
5.25641e-06
5.2569e-06
5.25735e-06
5.25797e-06
5.25809e-06
5.25898e-06
5.24926e-06
5.24966e-06
5.25007e-06
5.25049e-06
5.25091e-06
5.25132e-06
5.25174e-06
5.25217e-06
5.2526e-06
5.25306e-06
5.25353e-06
5.25402e-06
5.25451e-06
5.255e-06
5.25548e-06
5.25595e-06
5.25641e-06
5.2569e-06
5.25735e-06
5.25797e-06
5.25809e-06
5.25898e-06
5.24887e-06
5.24926e-06
5.24966e-06
5.25007e-06
5.25049e-06
5.25091e-06
5.25132e-06
5.25174e-06
5.25216e-06
5.2526e-06
5.25306e-06
5.25354e-06
5.25402e-06
5.25452e-06
5.25501e-06
5.25548e-06
5.25595e-06
5.25641e-06
5.2569e-06
5.25735e-06
5.25797e-06
5.25809e-06
5.25898e-06
5.24849e-06
5.24887e-06
5.24926e-06
5.24967e-06
5.25008e-06
5.25049e-06
5.25091e-06
5.25132e-06
5.25174e-06
5.25216e-06
5.2526e-06
5.25306e-06
5.25354e-06
5.25403e-06
5.25452e-06
5.25501e-06
5.25549e-06
5.25596e-06
5.25641e-06
5.2569e-06
5.25734e-06
5.25797e-06
5.25809e-06
5.25898e-06
5.24849e-06
5.24887e-06
5.24926e-06
5.24967e-06
5.25008e-06
5.25049e-06
5.2509e-06
5.25132e-06
5.25173e-06
5.25216e-06
5.2526e-06
5.25307e-06
5.25354e-06
5.25403e-06
5.25453e-06
5.25501e-06
5.25549e-06
5.25596e-06
5.25641e-06
5.2569e-06
5.25734e-06
5.25797e-06
5.25809e-06
5.25899e-06
5.24811e-06
5.24849e-06
5.24887e-06
5.24927e-06
5.24967e-06
5.25008e-06
5.25049e-06
5.2509e-06
5.25131e-06
5.25173e-06
5.25216e-06
5.2526e-06
5.25307e-06
5.25355e-06
5.25404e-06
5.25453e-06
5.25502e-06
5.25549e-06
5.25596e-06
5.25641e-06
5.2569e-06
5.25734e-06
5.25797e-06
5.25809e-06
5.25899e-06
5.24774e-06
5.24811e-06
5.24849e-06
5.24887e-06
5.24927e-06
5.24967e-06
5.25008e-06
5.25049e-06
5.2509e-06
5.25131e-06
5.25173e-06
5.25216e-06
5.25261e-06
5.25307e-06
5.25355e-06
5.25404e-06
5.25453e-06
5.25502e-06
5.25549e-06
5.25596e-06
5.25641e-06
5.2569e-06
5.25734e-06
5.25798e-06
5.25809e-06
5.25899e-06
5.24774e-06
5.24811e-06
5.24849e-06
5.24887e-06
5.24927e-06
5.24967e-06
5.25008e-06
5.25049e-06
5.2509e-06
5.25131e-06
5.25172e-06
5.25216e-06
5.25261e-06
5.25308e-06
5.25356e-06
5.25405e-06
5.25454e-06
5.25502e-06
5.25549e-06
5.25595e-06
5.25641e-06
5.25689e-06
5.25734e-06
5.25798e-06
5.2581e-06
5.25899e-06
5.24738e-06
5.24774e-06
5.24811e-06
5.24849e-06
5.24887e-06
5.24927e-06
5.24967e-06
5.25008e-06
5.25048e-06
5.25089e-06
5.2513e-06
5.25172e-06
5.25216e-06
5.25261e-06
5.25308e-06
5.25356e-06
5.25405e-06
5.25454e-06
5.25502e-06
5.25549e-06
5.25595e-06
5.25641e-06
5.25689e-06
5.25734e-06
5.25798e-06
5.2581e-06
5.25899e-06
5.24703e-06
5.24738e-06
5.24774e-06
5.24811e-06
5.24849e-06
5.24887e-06
5.24927e-06
5.24967e-06
5.25008e-06
5.25048e-06
5.25089e-06
5.2513e-06
5.25172e-06
5.25216e-06
5.25261e-06
5.25308e-06
5.25357e-06
5.25406e-06
5.25454e-06
5.25503e-06
5.25549e-06
5.25595e-06
5.2564e-06
5.25689e-06
5.25734e-06
5.25798e-06
5.2581e-06
5.25899e-06
5.24703e-06
5.24738e-06
5.24774e-06
5.24811e-06
5.24849e-06
5.24888e-06
5.24927e-06
5.24967e-06
5.25008e-06
5.25048e-06
5.25088e-06
5.25129e-06
5.25172e-06
5.25216e-06
5.25261e-06
5.25309e-06
5.25357e-06
5.25406e-06
5.25455e-06
5.25503e-06
5.25549e-06
5.25595e-06
5.2564e-06
5.25689e-06
5.25734e-06
5.25798e-06
5.2581e-06
5.25899e-06
5.24669e-06
5.24703e-06
5.24738e-06
5.24774e-06
5.24811e-06
5.24849e-06
5.24888e-06
5.24927e-06
5.24967e-06
5.25007e-06
5.25048e-06
5.25088e-06
5.25129e-06
5.25171e-06
5.25216e-06
5.25262e-06
5.25309e-06
5.25358e-06
5.25406e-06
5.25455e-06
5.25503e-06
5.25549e-06
5.25595e-06
5.2564e-06
5.25688e-06
5.25734e-06
5.25798e-06
5.2581e-06
5.259e-06
5.24636e-06
5.24669e-06
5.24703e-06
5.24738e-06
5.24774e-06
5.24811e-06
5.24849e-06
5.24888e-06
5.24927e-06
5.24967e-06
5.25007e-06
5.25047e-06
5.25087e-06
5.25129e-06
5.25171e-06
5.25216e-06
5.25262e-06
5.2531e-06
5.25358e-06
5.25407e-06
5.25455e-06
5.25503e-06
5.25549e-06
5.25594e-06
5.25639e-06
5.25688e-06
5.25734e-06
5.25798e-06
5.2581e-06
5.259e-06
5.24605e-06
5.24636e-06
5.24669e-06
5.24703e-06
5.24738e-06
5.24774e-06
5.24811e-06
5.24849e-06
5.24888e-06
5.24927e-06
5.24967e-06
5.25007e-06
5.25047e-06
5.25087e-06
5.25128e-06
5.25171e-06
5.25216e-06
5.25262e-06
5.2531e-06
5.25358e-06
5.25407e-06
5.25455e-06
5.25503e-06
5.25549e-06
5.25594e-06
5.25639e-06
5.25688e-06
5.25734e-06
5.25799e-06
5.25811e-06
5.259e-06
5.24574e-06
5.24605e-06
5.24636e-06
5.24669e-06
5.24703e-06
5.24738e-06
5.24774e-06
5.24811e-06
5.24849e-06
5.24888e-06
5.24927e-06
5.24967e-06
5.25006e-06
5.25046e-06
5.25087e-06
5.25128e-06
5.25171e-06
5.25216e-06
5.25263e-06
5.2531e-06
5.25359e-06
5.25407e-06
5.25455e-06
5.25503e-06
5.25548e-06
5.25593e-06
5.25638e-06
5.25688e-06
5.25734e-06
5.25799e-06
5.25811e-06
5.259e-06
5.24544e-06
5.24574e-06
5.24604e-06
5.24636e-06
5.24668e-06
5.24703e-06
5.24738e-06
5.24774e-06
5.24811e-06
5.24849e-06
5.24888e-06
5.24927e-06
5.24966e-06
5.25006e-06
5.25046e-06
5.25086e-06
5.25128e-06
5.25171e-06
5.25216e-06
5.25263e-06
5.25311e-06
5.25359e-06
5.25407e-06
5.25455e-06
5.25502e-06
5.25548e-06
5.25593e-06
5.25638e-06
5.25687e-06
5.25734e-06
5.25799e-06
5.25811e-06
5.259e-06
5.24514e-06
5.24544e-06
5.24574e-06
5.24604e-06
5.24635e-06
5.24668e-06
5.24703e-06
5.24738e-06
5.24774e-06
5.24811e-06
5.24849e-06
5.24887e-06
5.24927e-06
5.24966e-06
5.25005e-06
5.25045e-06
5.25086e-06
5.25127e-06
5.25171e-06
5.25217e-06
5.25263e-06
5.25311e-06
5.25359e-06
5.25407e-06
5.25455e-06
5.25502e-06
5.25548e-06
5.25592e-06
5.25638e-06
5.25687e-06
5.25734e-06
5.25799e-06
5.25811e-06
5.259e-06
5.24514e-06
5.24544e-06
5.24573e-06
5.24604e-06
5.24635e-06
5.24668e-06
5.24703e-06
5.24738e-06
5.24774e-06
5.24811e-06
5.24849e-06
5.24887e-06
5.24926e-06
5.24966e-06
5.25005e-06
5.25045e-06
5.25085e-06
5.25127e-06
5.25171e-06
5.25217e-06
5.25264e-06
5.25311e-06
5.25359e-06
5.25407e-06
5.25455e-06
5.25502e-06
5.25547e-06
5.25592e-06
5.25637e-06
5.25687e-06
5.25734e-06
5.258e-06
5.25811e-06
5.259e-06
5.24484e-06
5.24514e-06
5.24543e-06
5.24573e-06
5.24603e-06
5.24635e-06
5.24668e-06
5.24702e-06
5.24738e-06
5.24774e-06
5.24811e-06
5.24849e-06
5.24887e-06
5.24926e-06
5.24965e-06
5.25004e-06
5.25044e-06
5.25085e-06
5.25127e-06
5.25171e-06
5.25217e-06
5.25264e-06
5.25312e-06
5.25359e-06
5.25407e-06
5.25455e-06
5.25502e-06
5.25547e-06
5.25591e-06
5.25637e-06
5.25687e-06
5.25734e-06
5.258e-06
5.25811e-06
5.259e-06
5.24455e-06
5.24484e-06
5.24514e-06
5.24543e-06
5.24573e-06
5.24603e-06
5.24635e-06
5.24668e-06
5.24702e-06
5.24738e-06
5.24774e-06
5.24811e-06
5.24849e-06
5.24887e-06
5.24926e-06
5.24965e-06
5.25004e-06
5.25044e-06
5.25084e-06
5.25127e-06
5.25171e-06
5.25217e-06
5.25264e-06
5.25312e-06
5.2536e-06
5.25407e-06
5.25455e-06
5.25501e-06
5.25546e-06
5.25591e-06
5.25636e-06
5.25687e-06
5.25734e-06
5.258e-06
5.25811e-06
5.25899e-06
5.24455e-06
5.24484e-06
5.24514e-06
5.24543e-06
5.24572e-06
5.24603e-06
5.24635e-06
5.24668e-06
5.24702e-06
5.24738e-06
5.24774e-06
5.24811e-06
5.24848e-06
5.24887e-06
5.24925e-06
5.24964e-06
5.25003e-06
5.25043e-06
5.25084e-06
5.25127e-06
5.25172e-06
5.25218e-06
5.25265e-06
5.25312e-06
5.2536e-06
5.25407e-06
5.25455e-06
5.25501e-06
5.25546e-06
5.2559e-06
5.25636e-06
5.25687e-06
5.25734e-06
5.258e-06
5.25812e-06
5.25899e-06
5.24426e-06
5.24455e-06
5.24484e-06
5.24513e-06
5.24543e-06
5.24572e-06
5.24602e-06
5.24634e-06
5.24668e-06
5.24702e-06
5.24738e-06
5.24774e-06
5.24811e-06
5.24848e-06
5.24887e-06
5.24925e-06
5.24964e-06
5.25003e-06
5.25043e-06
5.25084e-06
5.25127e-06
5.25172e-06
5.25218e-06
5.25265e-06
5.25312e-06
5.2536e-06
5.25407e-06
5.25454e-06
5.255e-06
5.25545e-06
5.2559e-06
5.25636e-06
5.25687e-06
5.25735e-06
5.25801e-06
5.25812e-06
5.25899e-06
5.24399e-06
5.24426e-06
5.24455e-06
5.24484e-06
5.24513e-06
5.24542e-06
5.24572e-06
5.24602e-06
5.24634e-06
5.24668e-06
5.24702e-06
5.24737e-06
5.24774e-06
5.2481e-06
5.24848e-06
5.24886e-06
5.24925e-06
5.24963e-06
5.25002e-06
5.25042e-06
5.25084e-06
5.25127e-06
5.25172e-06
5.25218e-06
5.25265e-06
5.25312e-06
5.2536e-06
5.25407e-06
5.25454e-06
5.255e-06
5.25545e-06
5.25589e-06
5.25635e-06
5.25686e-06
5.25735e-06
5.25801e-06
5.25812e-06
5.25899e-06
5.24372e-06
5.24398e-06
5.24426e-06
5.24455e-06
5.24484e-06
5.24513e-06
5.24542e-06
5.24571e-06
5.24602e-06
5.24634e-06
5.24668e-06
5.24702e-06
5.24737e-06
5.24773e-06
5.2481e-06
5.24848e-06
5.24886e-06
5.24924e-06
5.24963e-06
5.25002e-06
5.25042e-06
5.25083e-06
5.25127e-06
5.25172e-06
5.25219e-06
5.25265e-06
5.25312e-06
5.2536e-06
5.25407e-06
5.25453e-06
5.25499e-06
5.25544e-06
5.25589e-06
5.25635e-06
5.25686e-06
5.25735e-06
5.25801e-06
5.25812e-06
5.25899e-06
5.24345e-06
5.24371e-06
5.24398e-06
5.24426e-06
5.24454e-06
5.24484e-06
5.24513e-06
5.24541e-06
5.24571e-06
5.24602e-06
5.24634e-06
5.24667e-06
5.24702e-06
5.24737e-06
5.24773e-06
5.2481e-06
5.24848e-06
5.24885e-06
5.24924e-06
5.24962e-06
5.25001e-06
5.25041e-06
5.25083e-06
5.25127e-06
5.25172e-06
5.25219e-06
5.25266e-06
5.25312e-06
5.25359e-06
5.25406e-06
5.25453e-06
5.25499e-06
5.25544e-06
5.25588e-06
5.25635e-06
5.25686e-06
5.25735e-06
5.25801e-06
5.25812e-06
5.25899e-06
5.24318e-06
5.24344e-06
5.24371e-06
5.24397e-06
5.24425e-06
5.24454e-06
5.24483e-06
5.24512e-06
5.24541e-06
5.24571e-06
5.24601e-06
5.24634e-06
5.24667e-06
5.24702e-06
5.24737e-06
5.24773e-06
5.2481e-06
5.24847e-06
5.24885e-06
5.24923e-06
5.24961e-06
5.25e-06
5.25041e-06
5.25083e-06
5.25127e-06
5.25173e-06
5.25219e-06
5.25266e-06
5.25312e-06
5.25359e-06
5.25406e-06
5.25453e-06
5.25498e-06
5.25543e-06
5.25588e-06
5.25634e-06
5.25686e-06
5.25735e-06
5.25802e-06
5.25812e-06
5.25898e-06
5.24289e-06
5.24317e-06
5.24344e-06
5.2437e-06
5.24397e-06
5.24425e-06
5.24454e-06
5.24483e-06
5.24512e-06
5.24541e-06
5.2457e-06
5.24601e-06
5.24634e-06
5.24667e-06
5.24702e-06
5.24737e-06
5.24773e-06
5.2481e-06
5.24847e-06
5.24884e-06
5.24922e-06
5.24961e-06
5.25e-06
5.25041e-06
5.25083e-06
5.25127e-06
5.25173e-06
5.25219e-06
5.25266e-06
5.25312e-06
5.25359e-06
5.25406e-06
5.25452e-06
5.25498e-06
5.25542e-06
5.25588e-06
5.25634e-06
5.25686e-06
5.25736e-06
5.25802e-06
5.25812e-06
5.25898e-06
5.2426e-06
5.24289e-06
5.24316e-06
5.24343e-06
5.24369e-06
5.24397e-06
5.24425e-06
5.24454e-06
5.24483e-06
5.24511e-06
5.2454e-06
5.2457e-06
5.24601e-06
5.24633e-06
5.24667e-06
5.24702e-06
5.24737e-06
5.24773e-06
5.24809e-06
5.24846e-06
5.24884e-06
5.24922e-06
5.2496e-06
5.24999e-06
5.2504e-06
5.25083e-06
5.25128e-06
5.25173e-06
5.25219e-06
5.25266e-06
5.25312e-06
5.25359e-06
5.25405e-06
5.25452e-06
5.25497e-06
5.25542e-06
5.25587e-06
5.25634e-06
5.25686e-06
5.25736e-06
5.25802e-06
5.25812e-06
5.25898e-06
5.24231e-06
5.2426e-06
5.24288e-06
5.24316e-06
5.24342e-06
5.24369e-06
5.24396e-06
5.24425e-06
5.24454e-06
5.24482e-06
5.24511e-06
5.2454e-06
5.2457e-06
5.24601e-06
5.24633e-06
5.24667e-06
5.24701e-06
5.24737e-06
5.24773e-06
5.24809e-06
5.24846e-06
5.24883e-06
5.24921e-06
5.24959e-06
5.24999e-06
5.2504e-06
5.25083e-06
5.25128e-06
5.25173e-06
5.2522e-06
5.25266e-06
5.25312e-06
5.25358e-06
5.25405e-06
5.25451e-06
5.25497e-06
5.25541e-06
5.25587e-06
5.25634e-06
5.25686e-06
5.25736e-06
5.25802e-06
5.25811e-06
5.25898e-06
5.24201e-06
5.2423e-06
5.24259e-06
5.24288e-06
5.24315e-06
5.24342e-06
5.24368e-06
5.24396e-06
5.24425e-06
5.24453e-06
5.24482e-06
5.2451e-06
5.24539e-06
5.24569e-06
5.24601e-06
5.24633e-06
5.24667e-06
5.24701e-06
5.24736e-06
5.24772e-06
5.24809e-06
5.24846e-06
5.24883e-06
5.2492e-06
5.24959e-06
5.24999e-06
5.2504e-06
5.25083e-06
5.25128e-06
5.25174e-06
5.2522e-06
5.25266e-06
5.25312e-06
5.25358e-06
5.25404e-06
5.2545e-06
5.25496e-06
5.25541e-06
5.25586e-06
5.25634e-06
5.25686e-06
5.25736e-06
5.25802e-06
5.25811e-06
5.25897e-06
5.24171e-06
5.242e-06
5.24229e-06
5.24259e-06
5.24287e-06
5.24314e-06
5.24341e-06
5.24368e-06
5.24396e-06
5.24424e-06
5.24453e-06
5.24482e-06
5.2451e-06
5.24539e-06
5.24569e-06
5.246e-06
5.24633e-06
5.24667e-06
5.24701e-06
5.24736e-06
5.24772e-06
5.24808e-06
5.24845e-06
5.24882e-06
5.2492e-06
5.24958e-06
5.24998e-06
5.2504e-06
5.25083e-06
5.25128e-06
5.25174e-06
5.2522e-06
5.25266e-06
5.25312e-06
5.25357e-06
5.25404e-06
5.2545e-06
5.25495e-06
5.2554e-06
5.25586e-06
5.25633e-06
5.25687e-06
5.25736e-06
5.25803e-06
5.25811e-06
5.25897e-06
5.2414e-06
5.2417e-06
5.24199e-06
5.24229e-06
5.24258e-06
5.24286e-06
5.24314e-06
5.2434e-06
5.24367e-06
5.24395e-06
5.24424e-06
5.24453e-06
5.24481e-06
5.24509e-06
5.24538e-06
5.24569e-06
5.246e-06
5.24633e-06
5.24666e-06
5.24701e-06
5.24736e-06
5.24772e-06
5.24808e-06
5.24844e-06
5.24881e-06
5.24919e-06
5.24958e-06
5.24998e-06
5.2504e-06
5.25084e-06
5.25129e-06
5.25174e-06
5.2522e-06
5.25266e-06
5.25311e-06
5.25357e-06
5.25403e-06
5.25449e-06
5.25495e-06
5.2554e-06
5.25586e-06
5.25633e-06
5.25687e-06
5.25737e-06
5.25803e-06
5.25811e-06
5.25897e-06
5.24108e-06
5.24139e-06
5.24169e-06
5.24198e-06
5.24228e-06
5.24257e-06
5.24286e-06
5.24313e-06
5.2434e-06
5.24367e-06
5.24395e-06
5.24424e-06
5.24452e-06
5.24481e-06
5.24509e-06
5.24538e-06
5.24568e-06
5.246e-06
5.24633e-06
5.24666e-06
5.24701e-06
5.24736e-06
5.24771e-06
5.24807e-06
5.24844e-06
5.24881e-06
5.24918e-06
5.24957e-06
5.24998e-06
5.2504e-06
5.25084e-06
5.25129e-06
5.25174e-06
5.2522e-06
5.25265e-06
5.25311e-06
5.25356e-06
5.25402e-06
5.25449e-06
5.25494e-06
5.25539e-06
5.25585e-06
5.25633e-06
5.25687e-06
5.25737e-06
5.25803e-06
5.25811e-06
5.25896e-06
5.24074e-06
5.24106e-06
5.24137e-06
5.24167e-06
5.24197e-06
5.24227e-06
5.24257e-06
5.24285e-06
5.24312e-06
5.24339e-06
5.24367e-06
5.24395e-06
5.24424e-06
5.24452e-06
5.2448e-06
5.24509e-06
5.24538e-06
5.24568e-06
5.246e-06
5.24633e-06
5.24666e-06
5.247e-06
5.24735e-06
5.24771e-06
5.24807e-06
5.24843e-06
5.2488e-06
5.24918e-06
5.24957e-06
5.24997e-06
5.2504e-06
5.25084e-06
5.25129e-06
5.25174e-06
5.2522e-06
5.25265e-06
5.2531e-06
5.25356e-06
5.25402e-06
5.25448e-06
5.25494e-06
5.25539e-06
5.25585e-06
5.25633e-06
5.25687e-06
5.25737e-06
5.25803e-06
5.25811e-06
5.25896e-06
5.24038e-06
5.24072e-06
5.24105e-06
5.24136e-06
5.24166e-06
5.24196e-06
5.24226e-06
5.24256e-06
5.24284e-06
5.24312e-06
5.24339e-06
5.24366e-06
5.24395e-06
5.24423e-06
5.24452e-06
5.2448e-06
5.24508e-06
5.24537e-06
5.24568e-06
5.246e-06
5.24632e-06
5.24666e-06
5.247e-06
5.24735e-06
5.2477e-06
5.24806e-06
5.24842e-06
5.24879e-06
5.24917e-06
5.24956e-06
5.24997e-06
5.2504e-06
5.25084e-06
5.25129e-06
5.25174e-06
5.2522e-06
5.25265e-06
5.2531e-06
5.25355e-06
5.25401e-06
5.25447e-06
5.25493e-06
5.25539e-06
5.25585e-06
5.25633e-06
5.25687e-06
5.25737e-06
5.25803e-06
5.25811e-06
5.25896e-06
5.24001e-06
5.24036e-06
5.24071e-06
5.24103e-06
5.24135e-06
5.24165e-06
5.24195e-06
5.24226e-06
5.24255e-06
5.24284e-06
5.24311e-06
5.24338e-06
5.24366e-06
5.24394e-06
5.24423e-06
5.24451e-06
5.24479e-06
5.24508e-06
5.24537e-06
5.24568e-06
5.246e-06
5.24632e-06
5.24666e-06
5.247e-06
5.24735e-06
5.2477e-06
5.24806e-06
5.24842e-06
5.24879e-06
5.24916e-06
5.24956e-06
5.24997e-06
5.2504e-06
5.25084e-06
5.25129e-06
5.25174e-06
5.2522e-06
5.25264e-06
5.25309e-06
5.25355e-06
5.25401e-06
5.25447e-06
5.25493e-06
5.25538e-06
5.25584e-06
5.25633e-06
5.25687e-06
5.25737e-06
5.25803e-06
5.2581e-06
5.25895e-06
5.23962e-06
5.23999e-06
5.24035e-06
5.24069e-06
5.24102e-06
5.24133e-06
5.24164e-06
5.24195e-06
5.24225e-06
5.24255e-06
5.24283e-06
5.2431e-06
5.24337e-06
5.24365e-06
5.24394e-06
5.24422e-06
5.24451e-06
5.24479e-06
5.24507e-06
5.24537e-06
5.24567e-06
5.24599e-06
5.24632e-06
5.24665e-06
5.247e-06
5.24734e-06
5.24769e-06
5.24805e-06
5.24841e-06
5.24878e-06
5.24916e-06
5.24956e-06
5.24997e-06
5.2504e-06
5.25085e-06
5.25129e-06
5.25174e-06
5.25219e-06
5.25264e-06
5.25309e-06
5.25354e-06
5.254e-06
5.25446e-06
5.25492e-06
5.25538e-06
5.25584e-06
5.25633e-06
5.25687e-06
5.25738e-06
5.25804e-06
5.2581e-06
5.25895e-06
5.23959e-06
5.23996e-06
5.24033e-06
5.24067e-06
5.241e-06
5.24132e-06
5.24163e-06
5.24194e-06
5.24224e-06
5.24254e-06
5.24282e-06
5.24309e-06
5.24337e-06
5.24365e-06
5.24393e-06
5.24422e-06
5.2445e-06
5.24478e-06
5.24507e-06
5.24536e-06
5.24567e-06
5.24599e-06
5.24632e-06
5.24665e-06
5.24699e-06
5.24734e-06
5.24769e-06
5.24804e-06
5.2484e-06
5.24877e-06
5.24915e-06
5.24955e-06
5.24997e-06
5.2504e-06
5.25085e-06
5.2513e-06
5.25174e-06
5.25219e-06
5.25264e-06
5.25308e-06
5.25353e-06
5.25399e-06
5.25446e-06
5.25492e-06
5.25537e-06
5.25584e-06
5.25632e-06
5.25687e-06
5.25738e-06
5.25804e-06
5.2581e-06
5.25894e-06
5.23919e-06
5.23957e-06
5.23994e-06
5.24031e-06
5.24066e-06
5.24099e-06
5.24131e-06
5.24162e-06
5.24193e-06
5.24224e-06
5.24253e-06
5.24281e-06
5.24309e-06
5.24336e-06
5.24364e-06
5.24393e-06
5.24422e-06
5.2445e-06
5.24478e-06
5.24506e-06
5.24536e-06
5.24567e-06
5.24599e-06
5.24632e-06
5.24665e-06
5.24699e-06
5.24733e-06
5.24768e-06
5.24804e-06
5.2484e-06
5.24877e-06
5.24915e-06
5.24955e-06
5.24997e-06
5.25041e-06
5.25085e-06
5.2513e-06
5.25174e-06
5.25219e-06
5.25263e-06
5.25308e-06
5.25353e-06
5.25399e-06
5.25445e-06
5.25491e-06
5.25537e-06
5.25584e-06
5.25632e-06
5.25687e-06
5.25738e-06
5.25804e-06
5.2581e-06
5.25894e-06
5.23916e-06
5.23954e-06
5.23992e-06
5.24029e-06
5.24064e-06
5.24097e-06
5.24129e-06
5.24161e-06
5.24192e-06
5.24223e-06
5.24252e-06
5.2428e-06
5.24308e-06
5.24336e-06
5.24364e-06
5.24393e-06
5.24421e-06
5.24449e-06
5.24477e-06
5.24506e-06
5.24536e-06
5.24567e-06
5.24599e-06
5.24631e-06
5.24665e-06
5.24699e-06
5.24733e-06
5.24768e-06
5.24803e-06
5.24839e-06
5.24876e-06
5.24914e-06
5.24955e-06
5.24997e-06
5.25041e-06
5.25085e-06
5.2513e-06
5.25174e-06
5.25218e-06
5.25262e-06
5.25307e-06
5.25352e-06
5.25398e-06
5.25445e-06
5.25491e-06
5.25537e-06
5.25584e-06
5.25632e-06
5.25687e-06
5.25738e-06
5.25804e-06
5.25809e-06
5.25894e-06
5.23875e-06
5.23914e-06
5.23952e-06
5.2399e-06
5.24027e-06
5.24062e-06
5.24096e-06
5.24128e-06
5.2416e-06
5.24191e-06
5.24222e-06
5.24252e-06
5.2428e-06
5.24307e-06
5.24335e-06
5.24363e-06
5.24392e-06
5.2442e-06
5.24448e-06
5.24477e-06
5.24506e-06
5.24536e-06
5.24567e-06
5.24599e-06
5.24631e-06
5.24664e-06
5.24698e-06
5.24732e-06
5.24767e-06
5.24802e-06
5.24838e-06
5.24875e-06
5.24914e-06
5.24955e-06
5.24997e-06
5.25041e-06
5.25085e-06
5.2513e-06
5.25174e-06
5.25218e-06
5.25262e-06
5.25306e-06
5.25351e-06
5.25398e-06
5.25444e-06
5.25491e-06
5.25537e-06
5.25584e-06
5.25632e-06
5.25688e-06
5.25739e-06
5.25804e-06
5.25809e-06
5.25893e-06
5.23872e-06
5.23911e-06
5.2395e-06
5.23988e-06
5.24025e-06
5.24061e-06
5.24094e-06
5.24127e-06
5.24159e-06
5.24191e-06
5.24221e-06
5.24251e-06
5.24279e-06
5.24306e-06
5.24334e-06
5.24363e-06
5.24392e-06
5.2442e-06
5.24448e-06
5.24476e-06
5.24505e-06
5.24535e-06
5.24567e-06
5.24598e-06
5.24631e-06
5.24664e-06
5.24698e-06
5.24732e-06
5.24766e-06
5.24801e-06
5.24837e-06
5.24875e-06
5.24914e-06
5.24955e-06
5.24997e-06
5.25041e-06
5.25085e-06
5.2513e-06
5.25174e-06
5.25217e-06
5.25261e-06
5.25306e-06
5.25351e-06
5.25397e-06
5.25444e-06
5.2549e-06
5.25536e-06
5.25583e-06
5.25632e-06
5.25688e-06
5.25739e-06
5.25804e-06
5.25809e-06
5.25893e-06
5.23868e-06
5.23908e-06
5.23947e-06
5.23986e-06
5.24023e-06
5.24059e-06
5.24093e-06
5.24125e-06
5.24158e-06
5.2419e-06
5.24221e-06
5.2425e-06
5.24278e-06
5.24306e-06
5.24334e-06
5.24363e-06
5.24391e-06
5.24419e-06
5.24447e-06
5.24476e-06
5.24505e-06
5.24535e-06
5.24566e-06
5.24598e-06
5.24631e-06
5.24664e-06
5.24697e-06
5.24731e-06
5.24766e-06
5.24801e-06
5.24837e-06
5.24874e-06
5.24914e-06
5.24955e-06
5.24997e-06
5.25041e-06
5.25085e-06
5.2513e-06
5.25173e-06
5.25217e-06
5.25261e-06
5.25305e-06
5.2535e-06
5.25396e-06
5.25443e-06
5.2549e-06
5.25536e-06
5.25583e-06
5.25632e-06
5.25688e-06
5.25739e-06
5.25804e-06
5.25809e-06
5.25892e-06
5.23865e-06
5.23906e-06
5.23945e-06
5.23984e-06
5.24022e-06
5.24057e-06
5.24091e-06
5.24124e-06
5.24157e-06
5.24189e-06
5.2422e-06
5.24249e-06
5.24277e-06
5.24305e-06
5.24333e-06
5.24362e-06
5.24391e-06
5.24419e-06
5.24447e-06
5.24475e-06
5.24505e-06
5.24535e-06
5.24566e-06
5.24598e-06
5.2463e-06
5.24663e-06
5.24697e-06
5.24731e-06
5.24765e-06
5.248e-06
5.24836e-06
5.24874e-06
5.24913e-06
5.24955e-06
5.24998e-06
5.25041e-06
5.25085e-06
5.25129e-06
5.25173e-06
5.25216e-06
5.2526e-06
5.25304e-06
5.2535e-06
5.25396e-06
5.25443e-06
5.2549e-06
5.25536e-06
5.25583e-06
5.25632e-06
5.25688e-06
5.25739e-06
5.25804e-06
5.25808e-06
5.25892e-06
5.23815e-06
5.23862e-06
5.23904e-06
5.23943e-06
5.23982e-06
5.2402e-06
5.24056e-06
5.2409e-06
5.24123e-06
5.24156e-06
5.24188e-06
5.24219e-06
5.24248e-06
5.24276e-06
5.24304e-06
5.24333e-06
5.24362e-06
5.2439e-06
5.24418e-06
5.24446e-06
5.24475e-06
5.24504e-06
5.24535e-06
5.24566e-06
5.24598e-06
5.2463e-06
5.24663e-06
5.24696e-06
5.2473e-06
5.24764e-06
5.24799e-06
5.24835e-06
5.24873e-06
5.24913e-06
5.24955e-06
5.24998e-06
5.25042e-06
5.25085e-06
5.25129e-06
5.25172e-06
5.25216e-06
5.25259e-06
5.25304e-06
5.25349e-06
5.25396e-06
5.25443e-06
5.25489e-06
5.25536e-06
5.25583e-06
5.25632e-06
5.25688e-06
5.2574e-06
5.25805e-06
5.25808e-06
5.25891e-06
5.23809e-06
5.23859e-06
5.23901e-06
5.23941e-06
5.2398e-06
5.24018e-06
5.24054e-06
5.24088e-06
5.24122e-06
5.24155e-06
5.24187e-06
5.24218e-06
5.24247e-06
5.24275e-06
5.24303e-06
5.24332e-06
5.24361e-06
5.2439e-06
5.24418e-06
5.24446e-06
5.24474e-06
5.24504e-06
5.24535e-06
5.24566e-06
5.24597e-06
5.2463e-06
5.24662e-06
5.24696e-06
5.24729e-06
5.24763e-06
5.24799e-06
5.24835e-06
5.24873e-06
5.24913e-06
5.24955e-06
5.24998e-06
5.25042e-06
5.25085e-06
5.25129e-06
5.25172e-06
5.25215e-06
5.25259e-06
5.25303e-06
5.25348e-06
5.25395e-06
5.25442e-06
5.25489e-06
5.25535e-06
5.25583e-06
5.25632e-06
5.25689e-06
5.2574e-06
5.25805e-06
5.25807e-06
5.2589e-06
5.23743e-06
5.23804e-06
5.23856e-06
5.23899e-06
5.23939e-06
5.23978e-06
5.24016e-06
5.24052e-06
5.24087e-06
5.24121e-06
5.24154e-06
5.24186e-06
5.24217e-06
5.24246e-06
5.24274e-06
5.24303e-06
5.24332e-06
5.2436e-06
5.24389e-06
5.24417e-06
5.24445e-06
5.24474e-06
5.24504e-06
5.24534e-06
5.24565e-06
5.24597e-06
5.24629e-06
5.24662e-06
5.24695e-06
5.24729e-06
5.24763e-06
5.24798e-06
5.24834e-06
5.24873e-06
5.24913e-06
5.24955e-06
5.24998e-06
5.25042e-06
5.25085e-06
5.25129e-06
5.25171e-06
5.25214e-06
5.25258e-06
5.25302e-06
5.25348e-06
5.25395e-06
5.25442e-06
5.25489e-06
5.25535e-06
5.25582e-06
5.25632e-06
5.25689e-06
5.2574e-06
5.25805e-06
5.25807e-06
5.2589e-06
5.23736e-06
5.238e-06
5.23852e-06
5.23897e-06
5.23937e-06
5.23977e-06
5.24014e-06
5.24051e-06
5.24086e-06
5.2412e-06
5.24153e-06
5.24185e-06
5.24216e-06
5.24245e-06
5.24273e-06
5.24302e-06
5.24331e-06
5.2436e-06
5.24388e-06
5.24417e-06
5.24445e-06
5.24474e-06
5.24504e-06
5.24534e-06
5.24565e-06
5.24597e-06
5.24629e-06
5.24661e-06
5.24694e-06
5.24728e-06
5.24762e-06
5.24797e-06
5.24834e-06
5.24872e-06
5.24913e-06
5.24955e-06
5.24998e-06
5.25042e-06
5.25085e-06
5.25128e-06
5.25171e-06
5.25214e-06
5.25257e-06
5.25302e-06
5.25347e-06
5.25394e-06
5.25442e-06
5.25488e-06
5.25535e-06
5.25582e-06
5.25632e-06
5.25689e-06
5.25741e-06
5.25805e-06
5.25807e-06
5.25889e-06
5.23729e-06
5.23795e-06
5.23849e-06
5.23895e-06
5.23935e-06
5.23975e-06
5.24013e-06
5.24049e-06
5.24084e-06
5.24119e-06
5.24152e-06
5.24185e-06
5.24215e-06
5.24244e-06
5.24272e-06
5.24301e-06
5.2433e-06
5.24359e-06
5.24388e-06
5.24416e-06
5.24444e-06
5.24473e-06
5.24503e-06
5.24534e-06
5.24565e-06
5.24596e-06
5.24628e-06
5.24661e-06
5.24694e-06
5.24727e-06
5.24761e-06
5.24797e-06
5.24833e-06
5.24872e-06
5.24913e-06
5.24955e-06
5.24999e-06
5.25042e-06
5.25085e-06
5.25128e-06
5.2517e-06
5.25213e-06
5.25257e-06
5.25301e-06
5.25347e-06
5.25394e-06
5.25441e-06
5.25488e-06
5.25535e-06
5.25582e-06
5.25632e-06
5.25689e-06
5.25741e-06
5.25805e-06
5.25806e-06
5.25889e-06
5.23722e-06
5.2379e-06
5.23847e-06
5.23893e-06
5.23934e-06
5.23973e-06
5.24011e-06
5.24047e-06
5.24083e-06
5.24118e-06
5.24151e-06
5.24184e-06
5.24214e-06
5.24243e-06
5.24271e-06
5.24301e-06
5.2433e-06
5.24359e-06
5.24387e-06
5.24416e-06
5.24444e-06
5.24473e-06
5.24503e-06
5.24534e-06
5.24565e-06
5.24596e-06
5.24628e-06
5.2466e-06
5.24693e-06
5.24726e-06
5.2476e-06
5.24796e-06
5.24833e-06
5.24872e-06
5.24913e-06
5.24956e-06
5.24999e-06
5.25042e-06
5.25085e-06
5.25127e-06
5.2517e-06
5.25213e-06
5.25256e-06
5.25301e-06
5.25346e-06
5.25393e-06
5.25441e-06
5.25488e-06
5.25534e-06
5.25582e-06
5.25632e-06
5.2569e-06
5.25741e-06
5.25805e-06
5.25806e-06
5.25888e-06
5.23715e-06
5.23786e-06
5.23844e-06
5.23891e-06
5.23932e-06
5.23971e-06
5.24009e-06
5.24046e-06
5.24081e-06
5.24117e-06
5.2415e-06
5.24183e-06
5.24213e-06
5.24242e-06
5.24271e-06
5.243e-06
5.24329e-06
5.24358e-06
5.24387e-06
5.24415e-06
5.24444e-06
5.24473e-06
5.24503e-06
5.24533e-06
5.24564e-06
5.24596e-06
5.24627e-06
5.24659e-06
5.24692e-06
5.24726e-06
5.2476e-06
5.24795e-06
5.24833e-06
5.24872e-06
5.24913e-06
5.24956e-06
5.24999e-06
5.25042e-06
5.25084e-06
5.25127e-06
5.25169e-06
5.25212e-06
5.25256e-06
5.253e-06
5.25346e-06
5.25393e-06
5.25441e-06
5.25488e-06
5.25534e-06
5.25582e-06
5.25632e-06
5.2569e-06
5.25741e-06
5.25805e-06
5.25805e-06
5.25887e-06
5.23709e-06
5.23781e-06
5.23841e-06
5.23888e-06
5.2393e-06
5.23969e-06
5.24007e-06
5.24044e-06
5.2408e-06
5.24115e-06
5.24149e-06
5.24181e-06
5.24212e-06
5.24241e-06
5.2427e-06
5.24299e-06
5.24329e-06
5.24358e-06
5.24386e-06
5.24415e-06
5.24443e-06
5.24473e-06
5.24503e-06
5.24533e-06
5.24564e-06
5.24595e-06
5.24627e-06
5.24659e-06
5.24691e-06
5.24725e-06
5.24759e-06
5.24795e-06
5.24832e-06
5.24872e-06
5.24913e-06
5.24956e-06
5.24999e-06
5.25042e-06
5.25084e-06
5.25126e-06
5.25168e-06
5.25211e-06
5.25255e-06
5.253e-06
5.25346e-06
5.25393e-06
5.25441e-06
5.25488e-06
5.25534e-06
5.25582e-06
5.25633e-06
5.2569e-06
5.25742e-06
5.25805e-06
5.25805e-06
5.25887e-06
5.23703e-06
5.23777e-06
5.23838e-06
5.23886e-06
5.23928e-06
5.23967e-06
5.24005e-06
5.24043e-06
5.24079e-06
5.24114e-06
5.24148e-06
5.2418e-06
5.2421e-06
5.2424e-06
5.24269e-06
5.24298e-06
5.24328e-06
5.24357e-06
5.24386e-06
5.24414e-06
5.24443e-06
5.24472e-06
5.24502e-06
5.24533e-06
5.24564e-06
5.24595e-06
5.24626e-06
5.24658e-06
5.24691e-06
5.24724e-06
5.24758e-06
5.24794e-06