/*--------------------------------*- C++ -*----------------------------------*\
  =========                 |
  \\      /  F ield         | OpenFOAM: The Open Source CFD Toolbox
   \\    /   O peration     | Website:  https://openfoam.org
    \\  /    A nd           | Version:  7
     \\/     M anipulation  |
\*---------------------------------------------------------------------------*/
FoamFile
{
    version     2.0;
    format      ascii;
    class       volScalarField;
    location    "2000";
    object      p;
}
// * * * * * * * * * * * * * * * * * * * * * * * * * * * * * * * * * * * * * //

dimensions      [0 2 -2 0 0 0 0];

internalField   nonuniform List<scalar> 
23023
(
1.222
0.31047
1.22173
1.77528
0.310064
1.22155
2.05858
1.7743
0.309802
1.22139
2.05716
1.77328
0.309607
1.2212
2.90986
2.05558
1.77224
0.309409
1.22097
3.45994
2.90796
2.05389
1.77121
0.309166
1.2207
4.13433
3.45746
2.90581
2.05221
1.77019
0.308862
1.22039
4.72819
4.13122
3.45475
2.90351
2.05058
1.76919
0.308503
1.22006
5.34698
4.72446
4.12799
3.45189
2.90119
2.04907
1.76822
0.308118
1.21972
5.94384
5.34261
4.72071
4.12464
3.44902
2.89897
2.04768
1.76731
0.307742
1.21937
5.93879
5.33832
4.71692
4.1213
3.44625
2.8969
2.04641
1.76646
0.3074
1.21904
6.53805
5.93392
5.33407
4.71315
4.11804
3.44366
2.89502
2.04525
1.76567
0.307099
1.21872
7.12994
6.53253
5.92916
5.32986
4.70947
4.11496
3.44128
2.89331
2.04419
1.76493
0.306838
1.21841
7.72056
7.12369
6.52724
5.92448
5.32575
4.70595
4.1121
3.43911
2.89173
2.04319
1.76424
0.30661
1.21812
8.30822
7.71357
7.11772
6.52211
5.9199
5.32179
4.70264
4.10944
3.43708
2.89025
2.04225
1.76359
0.306413
1.21784
8.30049
7.70689
7.11195
6.51708
5.91548
5.31802
4.69953
4.10695
3.43517
2.88884
2.04135
1.76297
0.306243
1.21757
8.88685
8.29309
7.70044
7.10632
6.51217
5.91125
5.31447
4.6966
4.10459
3.43335
2.88749
2.04049
1.76238
0.306098
1.21731
9.47354
8.87871
8.28594
7.69416
7.10084
6.50743
5.90722
5.3111
4.69383
4.10234
3.4316
2.8862
2.03967
1.76182
0.305976
1.21706
9.46463
8.8709
8.27899
7.68806
7.09555
6.50289
5.90339
5.30791
4.69118
4.10018
3.42991
2.88495
2.03888
1.7613
0.305876
1.21682
10.052
9.45607
8.86333
8.27224
7.68218
7.09049
6.49856
5.89975
5.30486
4.68865
4.0981
3.42829
2.88374
2.03814
1.76081
0.305794
1.21658
10.6423
10.0426
9.44779
8.85598
8.26574
7.67657
7.08566
6.49443
5.89628
5.30194
4.68621
4.09609
3.42672
2.88258
2.03743
1.76035
0.305729
1.21636
11.2369
10.6321
10.0337
9.43974
8.84884
8.25953
7.67121
7.08105
6.4905
5.89296
5.29913
4.68385
4.09415
3.42519
2.88145
2.03675
1.75992
0.305679
1.21615
11.8368
11.2257
10.6223
10.0249
9.43193
8.84198
8.2536
7.66609
7.07665
6.48674
5.88977
5.29643
4.68158
4.09227
3.42371
2.88036
2.0361
1.75951
0.305641
1.21595
11.8247
11.215
10.6128
10.0165
9.42441
8.83542
8.24794
7.6612
7.07244
6.48314
5.88671
5.29383
4.67939
4.09045
3.42228
2.87932
2.03549
1.75913
0.305616
1.21576
12.4302
11.813
11.2046
10.6035
10.0083
9.4172
8.82916
8.24252
7.6565
7.0684
6.47968
5.88376
5.29133
4.67727
4.08869
3.4209
2.87831
2.03491
1.75876
0.305601
1.21557
13.044
12.4175
11.8016
11.1945
10.5946
10.0004
9.41032
8.82318
8.23733
7.65201
7.06452
6.47637
5.88093
5.28891
4.67523
4.08699
3.41957
2.87735
2.03436
1.75843
0.305596
1.21539
13.0303
12.4053
11.7906
11.1847
10.586
9.99282
9.40375
8.81745
8.23235
7.64769
7.06081
6.47318
5.87821
5.2866
4.67327
4.08535
3.4183
2.87642
2.03384
1.75811
0.3056
1.21522
13.6526
13.0171
12.3935
11.78
11.1753
10.5777
9.9856
9.39746
8.81196
8.22757
7.64355
7.05724
6.47012
5.8756
5.28437
4.67138
4.08378
3.41708
2.87554
2.03335
1.75783
0.305613
1.21505
14.2863
13.6383
13.0043
12.3821
11.7698
11.1663
10.5698
9.97869
9.39143
8.8067
8.22299
7.63957
7.05381
6.46719
5.87309
5.28223
4.66957
4.08228
3.41591
2.8747
2.03289
1.75756
0.305635
1.21489
14.2709
13.6246
12.992
12.3711
11.7601
11.1578
10.5623
9.97209
9.38565
8.80165
8.21859
7.63575
7.05052
6.46437
5.87069
5.28019
4.66784
4.08084
3.41479
2.8739
2.03246
1.75732
0.305665
1.21473
14.9161
14.2561
13.6114
12.9801
12.3605
11.7508
11.1496
10.5551
9.96576
9.3801
8.7968
8.21436
7.63209
7.04736
6.46167
5.86839
5.27822
4.66617
4.07946
3.41372
2.87314
2.03207
1.75711
0.305703
1.21458
15.5757
14.9
14.2418
13.5986
12.9686
12.3503
11.7419
11.1418
10.5482
9.9597
9.37479
8.79214
8.2103
7.62857
7.04433
6.45909
5.86618
5.27634
4.66458
4.07814
3.4127
2.87241
2.0317
1.75691
0.305749
1.21444
15.5584
14.8847
14.228
13.5863
12.9576
12.3407
11.7334
11.1343
10.5416
9.95389
9.36968
8.78767
8.20639
7.62519
7.04143
6.4566
5.86407
5.27454
4.66306
4.07687
3.41171
2.87172
2.03136
1.75674
0.305803
1.21431
16.2322
15.5417
14.8699
14.2147
13.5744
12.9472
12.3314
11.7253
11.1271
10.5353
9.94831
9.36477
8.78337
8.20265
7.62195
7.03864
6.45422
5.86204
5.27281
4.66159
4.07564
3.41077
2.87106
2.03104
1.75658
0.305865
1.21419
16.9233
16.2142
15.5257
14.8556
14.2019
13.563
12.9372
12.3226
11.7175
11.1202
10.5292
9.94295
9.36006
8.77925
8.19905
7.61884
7.03597
6.45194
5.86009
5.27116
4.66019
4.07447
3.40986
2.87044
2.03075
1.75644
0.305934
1.21407
16.9038
16.1969
15.5102
14.8418
14.1896
13.5522
12.9276
12.3142
11.7101
11.1136
10.5234
9.9378
9.35553
8.77528
8.1956
7.61585
7.03341
6.44975
5.85823
5.26957
4.65884
4.07334
3.40899
2.86984
2.03048
1.75632
0.306011
1.21396
17.6119
16.885
16.1802
15.4953
14.8285
14.1779
13.5418
12.9185
12.3061
11.7029
11.1073
10.5177
9.93285
9.35118
8.77147
8.19229
7.61299
7.03095
6.44765
5.85645
5.26805
4.65755
4.07225
3.40815
2.86927
2.03022
1.75622
0.306095
1.21387
18.3403
17.5917
16.867
16.1641
15.481
14.8157
14.1667
13.5319
12.9097
12.2983
11.696
11.1012
10.5124
9.9281
9.347
8.76782
8.18912
7.61024
7.02859
6.44564
5.85474
5.2666
4.6563
4.07121
3.40735
2.86873
2.02999
1.75613
0.306185
1.21377
19.091
18.3185
17.5722
16.8496
16.1486
15.4672
14.8036
14.1559
13.5224
12.9013
12.2908
11.6894
11.0953
10.5072
9.92353
9.34299
8.76432
8.18607
7.60761
7.02633
6.44371
5.8531
5.2652
4.65511
4.07021
3.40658
2.86822
2.02978
1.75605
0.306281
1.21369
19.8662
19.0674
18.2975
17.5535
16.8329
16.1338
15.454
14.7919
14.1456
13.5132
12.8932
12.2837
11.683
11.0897
10.5022
9.91914
9.33914
8.76095
8.18314
7.60508
7.02416
6.44187
5.85154
5.26386
4.65396
4.06925
3.40585
2.86773
2.02958
1.75599
0.306382
1.21361
20.668
19.8407
19.0448
18.2773
17.5355
16.8168
16.1195
15.4414
14.7808
14.1357
13.5045
12.8854
12.2768
11.6769
11.0843
10.4974
9.91493
9.33545
8.75772
8.18033
7.60265
7.02208
6.4401
5.85004
5.26258
4.65286
4.06832
3.40515
2.86726
2.0294
1.75594
0.306487
1.21353
21.4987
20.6405
19.8164
19.0232
18.2579
17.5182
16.8014
16.1059
15.4294
14.7701
14.1262
13.4961
12.8779
12.2701
11.671
11.0791
10.4928
9.91089
9.3319
8.75463
8.17764
7.60033
7.02009
6.43841
5.8486
5.26135
4.65181
4.06744
3.40448
2.86682
2.02923
1.7559
0.306596
1.21346
21.4691
20.6143
19.7931
19.0023
18.2393
17.5016
16.7867
16.0929
15.4178
14.7598
14.1171
13.488
12.8708
12.2638
11.6654
11.0741
10.4884
9.90701
9.3285
8.75165
8.17505
7.5981
7.01818
6.43679
5.84723
5.26017
4.65081
4.0666
3.40384
2.86641
2.02909
1.75588
0.306709
1.21339
22.3289
21.4408
20.5892
19.7706
18.9822
18.2214
17.4856
16.7726
16.0804
15.4068
14.75
14.1084
13.4802
12.8639
12.2577
11.6599
11.0693
10.4842
9.90329
9.32523
8.7488
8.17257
7.59596
7.01635
6.43524
5.84591
5.25905
4.64984
4.06579
3.40323
2.86601
2.02895
1.75587
0.306825
1.21333
23.2224
22.2982
21.4137
20.565
19.749
18.9629
18.2042
17.4704
16.7591
16.0684
15.3961
14.7405
14.1
13.4728
12.8572
12.2518
11.6547
11.0647
10.4801
9.89972
9.3221
8.74606
8.17019
7.5939
7.0146
6.43375
5.84465
5.25797
4.64892
4.06502
3.40264
2.86564
2.02884
1.75587
0.306944
1.21327
23.1893
22.2688
21.3877
20.5418
19.7283
18.9444
18.1878
17.4558
16.7462
16.0569
15.3859
14.7315
14.0919
13.4656
12.8509
12.2461
11.6498
11.0603
10.4762
9.89629
9.31908
8.74343
8.16791
7.59194
7.01292
6.43232
5.84344
5.25694
4.64804
4.06428
3.40208
2.86528
2.02874
1.75588
0.307067
1.21321
24.1167
23.1575
22.2407
21.3626
20.5194
19.7083
18.9267
18.172
17.4419
16.7338
16.0459
15.3761
14.7227
14.0842
13.4587
12.8448
12.2407
11.645
11.056
10.4725
9.89299
9.31619
8.7409
8.16572
7.59005
7.01131
6.43096
5.84228
5.25595
4.6472
4.06357
3.40155
2.86495
2.02865
1.75591
0.307193
1.21315
25.0834
24.0823
23.1271
22.2137
21.3385
20.4979
19.6892
18.9097
18.157
17.4285
16.7219
16.0353
15.3667
14.7144
14.0767
13.4521
12.8389
12.2355
11.6404
11.052
10.4689
9.88983
9.31342
8.73848
8.16362
7.58824
7.00977
6.42965
5.84118
5.25501
4.64639
4.06289
3.40103
2.86463
2.02858
1.75595
0.307323
1.21311
26.0926
25.0462
24.0493
23.0979
22.1877
21.3153
20.4772
19.6708
18.8934
18.1425
17.4156
16.7105
16.0252
15.3577
14.7063
14.0696
13.4458
12.8333
12.2306
11.6359
11.0481
10.4654
9.8868
9.31076
8.73616
8.1616
7.58651
7.00829
6.4284
5.84012
5.25411
4.64561
4.06223
3.40054
2.86433
2.02852
1.75599
0.307457
1.21306
27.1479
26.0525
25.0106
24.0178
23.0699
22.1627
21.293
20.4574
19.6532
18.8778
18.1286
17.4033
16.6996
16.0154
15.349
14.6986
14.0628
13.4397
12.8279
12.2258
11.6317
11.0443
10.4621
9.88388
9.3082
8.73393
8.15967
7.58485
7.00688
6.4272
5.83911
5.25324
4.64486
4.0616
3.40006
2.86404
2.02847
1.75605
0.307594
1.21302
28.253
27.1046
26.014
24.9764
23.9875
23.0429
22.1387
21.2716
20.4384
19.6363
18.8628
18.1153
17.3915
16.689
16.006
15.3407
14.6912
14.0562
13.4339
12.8227
12.2212
11.6276
11.0407
10.459
9.88108
9.30575
8.73179
8.15782
7.58326
7.00552
6.42605
5.83814
5.25241
4.64415
4.06099
3.3996
2.86378
2.02844
1.75612
0.307735
1.21299
29.4119
28.2062
27.063
25.977
24.9437
23.9584
23.0169
22.1155
21.251
20.4201
19.6201
18.8484
18.1025
17.3801
16.6789
15.997
15.3327
14.6841
14.0499
13.4283
12.8177
12.2168
11.6237
11.0372
10.4559
9.8784
9.3034
8.72974
8.15605
7.58173
7.00422
6.42495
5.83721
5.25162
4.64346
4.0604
3.39917
2.86352
2.02841
1.7562
0.30788
1.21296
30.629
29.3613
28.1612
27.023
25.9416
24.9122
23.9304
22.9919
22.0934
21.2313
20.4026
19.6046
18.8346
18.0903
17.3692
16.6692
15.9884
15.325
14.6773
14.0438
13.4229
12.813
12.2125
11.62
11.0339
10.453
9.87582
9.30114
8.72778
8.15435
7.58027
7.00297
6.4239
5.83632
5.25086
4.64279
4.05983
3.39874
2.86329
2.0284
1.75629
0.308028
1.21293
31.9092
30.5743
29.3127
28.1181
26.9848
25.9076
24.882
23.9034
22.968
22.0721
21.2124
20.3858
19.5897
18.8214
18.0785
17.3587
16.6599
15.9801
15.3176
14.6708
14.038
13.4177
12.8084
12.2085
11.6164
11.0307
10.4502
9.87335
9.29897
8.72589
8.15271
7.57887
7.00178
6.4229
5.83547
5.25013
4.64216
4.05928
3.39834
2.86306
2.0284
1.75639
0.30818
1.21291
33.2579
31.8499
30.5217
29.2661
28.0767
26.948
25.8749
24.8529
23.8776
22.945
22.0516
21.1942
20.3697
19.5753
18.8086
18.0672
17.3487
16.6509
15.9722
15.3105
14.6645
14.0324
13.4128
12.804
12.2046
11.6129
11.0277
10.4475
9.87098
9.2969
8.72408
8.15115
7.57752
7.00063
6.42193
5.83466
5.24943
4.64154
4.05876
3.39795
2.86286
2.02841
1.75649
0.308335
1.21289
34.6813
33.1937
31.793
30.4713
29.2213
28.037
26.9127
25.8435
24.825
23.8528
22.9229
22.032
21.1768
20.3542
19.5616
18.7964
18.0563
17.339
16.6423
15.9645
15.3038
14.6584
14.0271
13.408
12.7998
12.2008
11.6096
11.0248
10.4449
9.8687
9.29491
8.72235
8.14965
7.57623
6.99954
6.42101
5.83389
5.24876
4.64096
4.05826
3.39758
2.86266
2.02843
1.7566
0.308493
1.21288
36.1862
34.6117
33.132
31.7384
30.4228
29.1783
27.9988
26.8787
25.8133
24.7982
23.8289
22.9018
22.0132
21.1601
20.3394
19.5484
18.7847
18.0459
17.3297
16.6341
15.9572
15.2972
14.6527
14.0219
13.4035
12.7957
12.1972
11.6064
11.0219
10.4424
9.86652
9.293
8.72068
8.1482
7.57499
6.99849
6.42013
5.83315
5.24812
4.64039
4.05777
3.39723
2.86248
2.02846
1.75673
0.308653
1.21287
37.7801
36.1106
34.5447
33.0728
31.6859
30.3763
29.137
27.962
26.8461
25.7844
24.7724
23.8061
22.8815
21.9952
21.1441
20.3251
19.5357
18.7734
18.0359
17.3208
16.6262
15.9502
15.291
14.6471
14.017
13.3991
12.7919
12.1938
11.6034
11.0192
10.44
9.86442
9.29117
8.71909
8.14682
7.57381
6.99749
6.41929
5.83244
5.24751
4.63985
4.05731
3.39689
2.86231
2.02849
1.75685
0.308816
1.21286
39.4715
37.698
36.0379
34.4804
33.0159
31.6355
30.3315
29.0973
27.9268
26.8148
25.7566
24.7478
23.7842
22.862
21.9779
21.1287
20.3114
19.5236
18.7626
18.0262
17.3123
16.6186
15.9434
15.285
14.6418
14.0123
13.3949
12.7881
12.1905
11.6005
11.0167
10.4377
9.86242
9.28941
8.71755
8.14549
7.57267
6.99653
6.41849
5.83176
5.24692
4.63934
4.05686
3.39657
2.86215
2.02854
1.75699
0.308981
1.21286
41.27
39.3823
37.6191
35.9681
34.4187
32.9613
31.587
30.2885
29.0591
27.8929
26.7848
25.73
24.7241
23.7632
22.8433
21.9613
21.1139
20.2983
19.5119
18.7522
18.017
17.3041
16.6113
15.9369
15.2792
14.6367
14.0077
13.3908
12.7846
12.1873
11.5977
11.0142
10.4355
9.86049
9.28772
8.71608
8.14422
7.57158
6.99561
6.41772
5.83112
5.24637
4.63884
4.05643
3.39626
2.862
2.02859
1.75713
0.309149
1.21285
43.1863
41.1731
39.2965
37.5432
35.9011
34.3594
32.9087
31.5404
30.2471
29.0224
27.8605
26.756
25.7044
24.7014
23.743
22.8254
21.9453
21.0997
20.2857
19.5007
18.7423
18.0082
17.2962
16.6043
15.9307
15.2737
14.6318
14.0034
13.387
12.7811
12.1843
11.595
11.0118
10.4334
9.85864
9.2861
8.71467
8.143
7.57054
6.99473
6.41699
5.8305
5.24583
4.63837
4.05602
3.39596
2.86186
2.02865
1.75728
0.309317
1.21284
45.2327
43.0808
41.0798
39.214
37.4704
35.8367
34.3024
32.8581
31.4956
30.2074
28.9873
27.8293
26.7284
25.6799
24.6797
23.7236
22.8082
21.93
21.0861
20.2736
19.4899
18.7327
17.9997
17.2887
16.5976
15.9248
15.2684
14.6271
13.9992
13.3833
12.7778
12.1814
11.5924
11.0095
10.4314
9.85686
9.28454
8.71331
8.14183
7.56954
6.99389
6.41629
5.82991
5.24532
4.63792
4.05563
3.39568
2.86174
2.02872
1.75743
0.309482
1.21283
45.1178
42.9793
40.9901
39.1349
37.4004
35.7748
34.2476
32.8096
31.4526
30.1693
28.9535
27.7994
26.7018
25.6564
24.6588
23.7051
22.7917
21.9153
21.0731
20.262
19.4796
18.7235
17.9915
17.2814
16.5912
15.919
15.2633
14.6225
13.9952
13.3797
12.7747
12.1786
11.5899
11.0073
10.4295
9.85515
9.28304
8.71201
8.14071
7.56858
6.99308
6.41562
5.82935
5.24484
4.63748
4.05525
3.39541
2.86162
2.02878
1.75756
0.309643
1.21281
47.2982
45.0073
42.8817
40.904
39.0589
37.3332
35.7153
34.1949
32.7629
31.4112
30.1327
28.9211
27.7707
26.6764
25.6338
24.6387
23.6872
22.7758
21.9013
21.0606
20.2509
19.4697
18.7147
17.9837
17.2745
16.585
15.9135
15.2585
14.6182
13.9913
13.3763
12.7716
12.1759
11.5875
11.0052
10.4276
9.85352
9.28161
8.71076
8.13963
7.56766
6.99231
6.41498
5.82882
5.24438
4.63707
4.05489
3.39514
2.86149
2.02883
1.75769
0.309801
1.21279
47.1779
44.9011
42.7881
40.8214
38.9859
37.2687
35.6582
34.1443
32.7181
31.3716
30.0976
28.89
27.7431
26.652
25.6121
24.6194
23.6701
22.7606
21.8877
21.0485
20.2402
19.4602
18.7063
17.9762
17.2678
16.5791
15.9083
15.2538
14.614
13.9876
13.373
12.7687
12.1733
11.5852
11.0032
10.4258
9.85194
9.28023
8.70957
8.1386
7.56679
6.99158
6.41437
5.82831
5.24393
4.63667
4.05454
3.39487
2.86136
2.02888
1.75781
0.309956
1.21276
49.5069
47.0622
44.7992
42.6982
40.742
38.9157
37.2066
35.6033
34.0957
32.6751
31.3335
30.0639
28.8602
27.7166
26.6285
25.5913
24.6009
23.6537
22.746
21.8748
21.037
20.2299
19.4511
18.6982
17.969
17.2614
16.5734
15.9032
15.2493
14.6101
13.9841
13.3699
12.7659
12.1708
11.583
11.0012
10.4241
9.85043
9.27891
8.70842
8.13761
7.56594
6.99087
6.41378
5.82782
5.24351
4.63628
4.05418
3.39459
2.86121
2.02891
1.75792
0.31011
1.21273
49.3808
46.9511
44.7012
42.6118
40.6657
38.8483
37.1471
35.5506
34.0491
32.6339
31.297
30.0316
28.8315
27.6913
26.606
25.5713
24.5832
23.6379
22.732
21.8623
21.0259
20.2201
19.4424
18.6904
17.9621
17.2552
16.5679
15.8984
15.245
14.6062
13.9807
13.3669
12.7633
12.1684
11.5809
10.9994
10.4225
9.84898
9.27764
8.70731
8.13666
7.56514
6.9902
6.41323
5.82736
5.2431
4.63589
4.0538
3.3943
2.86105
2.02894
1.75802
0.310261
1.21269
49.2596
46.8443
44.6072
42.5288
40.5925
38.7837
37.0899
35.5001
34.0044
32.5943
31.2619
30.0005
28.804
27.6669
26.5844
25.5521
24.5662
23.6228
22.7186
21.8504
21.0153
20.2106
19.434
18.683
17.9554
17.2494
16.5627
15.8937
15.2408
14.6026
13.9774
13.364
12.7607
12.1661
11.5789
10.9976
10.4209
9.84759
9.27642
8.70626
8.13575
7.56437
6.98956
6.4127
5.82691
5.24268
4.63547
4.05341
3.39399
2.86088
2.02896
1.75812
0.310409
1.21265
49.1431
46.7418
44.5168
42.4491
40.5222
38.7216
37.035
35.4515
33.9615
32.5563
31.2283
29.9708
28.7776
27.6435
26.5636
25.5337
24.5498
23.6083
22.7057
21.8389
21.0051
20.2016
19.4259
18.6758
17.9491
17.2437
16.5576
15.8892
15.2369
14.599
13.9743
13.3612
12.7582
12.164
11.5769
10.9959
10.4194
9.84625
9.27525
8.70524
8.13488
7.56363
6.98894
6.41218
5.82645
5.24224
4.63504
4.053
3.39366
2.86069
2.02897
1.7582
0.310554
1.2126
51.6157
49.0312
46.6433
44.43
42.3726
40.4546
38.662
36.9824
35.405
33.9203
32.5198
31.196
29.9422
28.7523
27.621
26.5437
25.516
24.5341
23.5943
22.6933
21.8279
20.9953
20.1929
19.4182
18.6689
17.943
17.2383
16.5528
15.885
15.2331
14.5956
13.9713
13.3585
12.7558
12.1619
11.5751
10.9942
10.4179
9.84497
9.27413
8.70427
8.13404
7.56292
6.98834
6.41165
5.82597
5.24178
4.63459
4.05257
3.39333
2.8605
2.02897
1.75828
0.310697
1.21255
51.4936
48.9238
46.5487
44.3466
42.2991
40.3898
38.6047
36.9318
35.3603
33.8808
32.4849
31.1651
29.9147
28.728
27.5995
26.5246
25.4991
24.5191
23.581
22.6814
21.8173
20.9859
20.1845
19.4108
18.6623
17.9371
17.2331
16.5482
15.8809
15.2294
14.5924
13.9684
13.3559
12.7536
12.1598
11.5733
10.9926
10.4165
9.84374
9.27306
8.70334
8.13325
7.56223
6.98773
6.4111
5.82546
5.24129
4.63412
4.05213
3.39298
2.86029
2.02895
1.75835
0.310838
1.21249
54.1496
51.3762
48.8206
46.4579
44.2666
42.2286
40.3276
38.5498
36.8833
35.3174
33.8428
32.4513
31.1353
29.8884
28.7047
27.5788
26.5063
25.4828
24.5046
23.5681
22.67
21.8072
20.9769
20.1765
19.4037
18.656
17.9315
17.2281
16.5438
15.8769
15.2259
14.5893
13.9656
13.3535
12.7514
12.1579
11.5716
10.9911
10.4152
9.84256
9.27203
8.70245
8.13246
7.56153
6.98708
6.41051
5.82492
5.24079
4.63362
4.05167
3.39261
2.86007
2.02893
1.7584
0.310976
1.21243
54.0213
51.2635
48.7215
46.3706
44.1898
42.1609
40.2679
38.4971
36.8367
35.2762
33.8064
32.419
31.1068
29.8631
28.6823
27.559
26.4887
25.4672
24.4908
23.5558
22.659
21.7974
20.9683
20.1688
19.3968
18.65
17.9261
17.2233
16.5395
15.8731
15.2225
14.5863
13.963
13.3511
12.7493
12.156
11.5699
10.9896
10.4139
9.84143
9.27104
8.70157
8.13167
7.56079
6.98641
6.4099
5.82436
5.24025
4.63311
4.05119
3.39222
2.85983
2.0289
1.75845
0.311111
1.21236
53.8979
51.1552
48.6262
46.2868
44.116
42.0958
40.2105
38.4465
36.792
35.2367
33.7714
32.3881
31.0794
29.8389
28.6608
27.5399
26.4718
25.4522
24.4775
23.544
22.6485
21.7881
20.96
20.1615
19.3903
18.6441
17.921
17.2187
16.5354
15.8695
15.2193
14.5834
13.9604
13.3489
12.7473
12.1543
11.5683
10.9882
10.4126
9.84034
9.27007
8.70068
8.13083
7.56002
6.9857
6.40926
5.82377
5.2397
4.63257
4.05069
3.39182
2.85958
2.02885
1.75849
0.311243
1.21228
53.7795
51.0512
48.5348
46.2063
44.0452
42.0334
40.1555
38.3979
36.749
35.1987
33.7378
32.3584
31.0531
29.8156
28.6402
27.5217
26.4556
25.4378
24.4647
23.5327
22.6385
21.7792
20.952
20.1544
19.384
18.6386
17.916
17.2143
16.5315
15.866
15.2162
14.5807
13.958
13.3467
12.7454
12.1526
11.5668
10.9869
10.4115
9.83928
9.26908
8.69975
8.12996
7.55921
6.98497
6.40859
5.82316
5.23911
4.63201
4.05017
3.39141
2.85931
2.0288
1.75851
0.311372
1.2122
53.6657
50.9514
48.4469
46.129
43.9771
41.9735
40.1026
38.3512
36.7078
35.1623
33.7056
32.3299
31.0279
29.7932
28.6204
27.5041
26.44
25.4241
24.4525
23.5218
22.6288
21.7706
20.9444
20.1476
19.378
18.6332
17.9112
17.2101
16.5278
15.8627
15.2133
14.578
13.9557
13.3446
12.7435
12.1509
11.5654
10.9856
10.4103
9.83819
9.26805
8.69878
8.12905
7.55837
6.9842
6.40789
5.82251
5.2385
4.63143
4.04963
3.39097
2.85903
2.02873
1.75852
0.311498
1.21211
53.5564
50.8554
48.3626
46.0549
43.9119
41.916
40.0519
38.3064
36.6682
35.1273
33.6746
32.3025
31.0036
29.7718
28.6014
27.4873
26.4251
25.4108
24.4407
23.5113
22.6195
21.7623
20.9371
20.1411
19.3722
18.6281
17.9067
17.206
16.5241
15.8595
15.2104
14.5755
13.9534
13.3426
12.7417
12.1493
11.564
10.9843
10.4091
9.83706
9.26698
8.69777
8.12811
7.55749
6.98339
6.40716
5.82183
5.23787
4.63082
4.04906
3.39051
2.85873
2.02864
1.75853
0.311621
1.21201
53.4515
50.7632
48.2816
45.9837
43.8492
41.8607
40.0031
38.2633
36.6302
35.0937
33.6449
32.2762
30.9804
29.7512
28.5831
27.4711
26.4108
25.3981
24.4294
23.5013
22.6106
21.7544
20.93
20.1348
19.3666
18.6231
17.9023
17.2021
16.5207
15.8564
15.2077
14.5731
13.9512
13.3407
12.74
12.1478
11.5626
10.9831
10.4079
9.83588
9.26586
8.69671
8.12712
7.55658
6.98255
6.40639
5.82113
5.2372
4.63019
4.04847
3.39004
2.85841
2.02854
1.75851
0.311741
1.2119
53.3507
50.6747
48.2038
45.9153
43.789
41.8076
39.9563
38.222
36.5937
35.0614
33.6164
32.251
30.958
29.7314
28.5656
27.4556
26.3971
25.3859
24.4186
23.4917
22.6021
21.7468
20.9233
20.1289
19.3613
18.6184
17.8981
17.1984
16.5174
15.8534
15.2051
14.5708
13.9492
13.3389
12.7384
12.1463
11.5612
10.9817
10.4066
9.83465
9.26469
8.69561
8.12609
7.55562
6.98167
6.40558
5.82039
5.2365
4.62952
4.04786
3.38954
2.85807
2.02843
1.75849
0.311857
1.21179
53.2539
50.5897
48.1291
45.8497
43.7312
41.7567
39.9114
38.1824
36.5587
35.0305
33.589
32.2268
30.9366
29.7125
28.5489
27.4408
26.3839
25.3743
24.4083
23.4825
22.5939
21.7395
20.9168
20.1231
19.3562
18.6139
17.8941
17.1948
16.5142
15.8506
15.2025
14.5685
13.9472
13.3371
12.7368
12.1448
11.5598
10.9803
10.4052
9.83337
9.26348
8.69446
8.12501
7.55462
6.98075
6.40474
5.81961
5.23577
4.62883
4.04722
3.38902
2.85771
2.02831
1.75845
0.31197
1.21167
53.1609
50.5081
48.0575
45.7866
43.6757
41.7078
39.8683
38.1443
36.525
35.0007
33.5628
32.2035
30.916
29.6943
28.5327
27.4265
26.3712
25.363
24.3983
23.4737
22.586
21.7325
20.9106
20.1176
19.3513
18.6095
17.8902
17.1914
16.5111
15.8479
15.2001
14.5664
13.9453
13.3354
12.7352
12.1433
11.5582
10.9789
10.4038
9.83204
9.26221
8.69327
8.12389
7.55358
6.97979
6.40386
5.8188
5.23501
4.62811
4.04656
3.38848
2.85733
2.02816
1.75839
0.312079
1.21153
53.0716
50.4297
47.9886
45.7261
43.6224
41.6609
39.8268
38.1077
36.4928
34.9722
33.5375
32.1812
30.8963
29.6768
28.5173
27.4128
26.3591
25.3523
24.3887
23.4652
22.5785
21.7258
20.9046
20.1123
19.3466
18.6053
17.8865
17.1881
16.5082
15.8453
15.1978
14.5643
13.9434
13.3336
12.7335
12.1416
11.5567
10.9773
10.4024
9.83065
9.26089
8.69202
8.12272
7.55249
6.97879
6.40294
5.81795
5.23422
4.62736
4.04587
3.38791
2.85693
2.028
1.75832
0.312184
1.21139
52.9858
50.3544
47.9226
45.668
43.5713
41.6158
39.7871
38.0727
36.4618
34.9448
33.5133
32.1598
30.8774
29.66
28.5024
27.3997
26.3475
25.342
24.3796
23.457
22.5712
21.7194
20.8989
20.1072
19.3421
18.6013
17.8829
17.1849
16.5054
15.8428
15.1956
14.5623
13.9415
13.3318
12.7317
12.1399
11.555
10.9758
10.4009
9.8292
9.25951
8.69072
8.1215
7.55135
6.97774
6.40198
5.81707
5.23339
4.62658
4.04515
3.38732
2.85651
2.02783
1.75824
0.312285
1.21124
52.9035
50.2822
47.8591
45.6122
43.5222
41.5725
39.7489
38.039
36.432
34.9185
33.4901
32.1392
30.8592
29.6439
28.4882
27.3871
26.3363
25.3321
24.3708
23.4492
22.5643
21.7132
20.8934
20.1023
19.3377
18.5975
17.8795
17.1819
16.5027
15.8404
15.1934
14.5603
13.9395
13.3299
12.7299
12.1381
11.5533
10.9741
10.3993
9.82769
9.25808
8.68936
8.12022
7.55017
6.97665
6.40098
5.81614
5.23252
4.62577
4.0444
3.3867
2.85606
2.02763
1.75814
0.312382
1.21108
52.8244
50.2129
47.7982
45.5587
43.475
41.531
39.7123
38.0066
36.4035
34.8933
33.4677
32.1195
30.8417
29.6285
28.4745
27.375
26.3256
25.3225
24.3623
23.4417
22.5576
21.7073
20.8881
20.0976
19.3336
18.5938
17.8762
17.179
16.5001
15.8381
15.1912
14.5581
13.9375
13.3279
12.7279
12.1363
11.5515
10.9724
10.3976
9.82612
9.25658
8.68795
8.1189
7.54893
6.9755
6.39993
5.81517
5.23161
4.62491
4.04362
3.38606
2.85559
2.02742
1.75802
0.312475
1.21091
52.7485
50.1463
47.7398
45.5072
43.4297
41.4911
39.6771
37.9756
36.376
34.869
33.4463
32.1005
30.825
29.6137
28.4614
27.3634
26.3153
25.3134
24.3542
23.4345
22.5512
21.7016
20.8831
20.0931
19.3296
18.5903
17.8731
17.1762
16.4976
15.8357
15.1889
14.5559
13.9353
13.3258
12.7259
12.1343
11.5497
10.9706
10.3959
9.82448
9.25503
8.68648
8.11751
7.54764
6.97431
6.39883
5.81416
5.23066
4.62403
4.0428
3.38538
2.85509
2.02719
1.75788
0.312563
1.21073
52.6756
50.0823
47.6836
45.4579
43.3863
41.4528
39.6433
37.9458
36.3497
34.8458
33.4258
32.0824
30.8089
29.5994
28.4488
27.3522
26.3054
25.3047
24.3465
23.4276
22.5451
21.6961
20.8782
20.0888
19.3258
18.5869
17.8701
17.1734
16.495
15.8332
15.1865
14.5535
13.9331
13.3236
12.7238
12.1323
11.5477
10.9687
10.3941
9.82277
9.2534
8.68494
8.11607
7.54629
6.97306
6.39768
5.8131
5.22968
4.6231
4.04196
3.38468
2.85457
2.02694
1.75772
0.312647
1.21053
52.6056
50.021
47.6297
45.4105
43.3445
41.416
39.6109
37.9171
36.3244
34.8235
33.406
32.0649
30.7934
29.5858
28.4367
27.3415
26.296
25.2963
24.339
23.421
22.5392
21.6909
20.8736
20.0847
19.3221
18.5836
17.8671
17.1707
16.4923
15.8306
15.184
14.5511
13.9307
13.3214
12.7216
12.1302
11.5457
10.9668
10.3923
9.82099
9.25171
8.68334
8.11456
7.54489
6.97176
6.39648
5.81199
5.22864
4.62214
4.04107
3.38395
2.85402
2.02666
1.75755
0.312726
1.21032
52.5384
49.962
47.5779
45.365
43.3045
41.3807
39.5798
37.8897
36.3002
34.802
33.3871
32.0481
30.7786
29.5727
28.4251
27.3313
26.2869
25.2882
24.3319
23.4146
22.5335
21.6859
20.8691
20.0808
19.3186
18.5804
17.8641
17.1678
16.4895
15.8279
15.1813
14.5486
13.9283
13.319
12.7194
12.128
11.5436
10.9648
10.3903
9.81914
9.24995
8.68167
8.113
7.54342
6.97041
6.39523
5.81084
5.22757
4.62113
4.04015
3.38318
2.85345
2.02637
1.75735
0.3128
1.2101
52.4739
49.9054
47.5283
45.3213
43.266
41.3468
39.5499
37.8633
36.2769
34.7814
33.3689
32.0321
30.7644
29.5601
28.414
27.3214
26.2782
25.2805
24.325
23.4085
22.5281
21.6811
20.8648
20.077
19.3152
18.5772
17.861
17.1647
16.4866
15.825
15.1786
14.5459
13.9257
13.3165
12.717
12.1258
11.5414
10.9627
10.3883
9.8172
9.24811
8.67993
8.11136
7.54189
6.96899
6.39392
5.80963
5.22644
4.62009
4.0392
3.38239
2.85284
2.02605
1.75713
0.31287
1.20987
52.412
49.8511
47.4805
45.2793
43.2291
41.3143
39.5212
37.838
36.2545
34.7617
33.3514
32.0166
30.7507
29.548
28.4033
27.312
26.2698
25.2731
24.3184
23.4027
22.5229
21.6764
20.8607
20.0732
19.3116
18.5738
17.8577
17.1616
16.4835
15.8221
15.1758
14.5432
13.9231
13.314
12.7145
12.1234
11.5391
10.9605
10.3862
9.81519
9.24619
8.67812
8.10965
7.5403
6.96751
6.39256
5.80837
5.22527
4.61899
4.0382
3.38156
2.8522
2.02571
1.7569
0.312934
1.20962
52.3525
49.799
47.4347
45.239
43.1936
41.283
39.4936
37.8137
36.2331
34.7427
33.3347
32.0018
30.7376
29.5364
28.3931
27.3029
26.2618
25.266
24.3121
23.3971
22.5179
21.672
20.8567
20.0694
19.308
18.5703
17.8543
17.1583
16.4803
15.819
15.1728
14.5403
13.9203
13.3113
12.712
12.1209
11.5367
10.9582
10.384
9.81309
9.2442
8.67623
8.10787
7.53863
6.96596
6.39113
5.80705
5.22404
4.61785
4.03716
3.38069
2.85154
2.02535
1.75663
0.312993
1.20935
52.2954
49.7489
47.3908
45.2004
43.1596
41.253
39.4672
37.7903
36.2124
34.7245
33.3186
31.9876
30.725
29.5253
28.3833
27.2942
26.2541
25.2592
24.3061
23.3917
22.5132
21.6677
20.8526
20.0655
19.3042
18.5666
17.8507
17.1548
16.477
15.8158
15.1697
14.5373
13.9174
13.3085
12.7093
12.1183
11.5342
10.9558
10.3817
9.81091
9.24212
8.67426
8.10602
7.5369
6.96435
6.38964
5.80567
5.22276
4.61667
4.03608
3.37978
2.85083
2.02496
1.75635
0.313046
1.20907
52.2406
49.7008
47.3486
45.1633
43.1269
41.2242
39.4418
37.7679
36.1927
34.707
33.3031
31.9739
30.713
29.5146
28.3738
27.2859
26.2467
25.2526
24.3003
23.3866
22.5085
21.6633
20.8483
20.0614
19.3002
18.5627
17.847
17.1512
16.4736
15.8125
15.1665
14.5342
13.9144
13.3056
12.7065
12.1156
11.5316
10.9533
10.3793
9.80863
9.23995
8.67221
8.10409
7.53509
6.96267
6.38808
5.80424
5.22142
4.61543
4.03495
3.37884
2.8501
2.02454
1.75603
0.313094
1.20877
52.1879
49.6547
47.308
45.1276
43.0956
41.1966
39.4174
37.7464
36.1737
34.6903
33.2883
31.9608
30.7014
29.5044
28.3648
27.2779
26.2396
25.2464
24.2947
23.3815
22.5037
21.6586
20.8439
20.0571
19.296
18.5587
17.8432
17.1475
16.4699
15.809
15.1631
14.531
13.9113
13.3026
12.7036
12.1128
11.5289
10.9507
10.3768
9.80626
9.23769
8.67007
8.10207
7.5332
6.96091
6.38646
5.80273
5.22003
4.61414
4.03378
3.37786
2.84932
2.02409
1.75569
0.313137
1.20846
52.1374
49.6104
47.2691
45.0934
43.0654
41.1701
39.394
37.7258
36.1555
34.6742
33.2741
31.9482
30.6903
29.4946
28.3561
27.2702
26.2328
25.2403
24.2893
23.3764
22.4987
21.6538
20.8392
20.0526
19.2917
18.5545
17.8391
17.1436
16.4662
15.8053
15.1596
14.5276
13.908
13.2995
12.7005
12.1099
11.5261
10.948
10.3743
9.80378
9.23534
8.66784
8.09997
7.53123
6.95908
6.38476
5.80117
5.21857
4.61279
4.03256
3.37683
2.84851
2.02362
1.75533
0.313173
1.20812
52.0889
49.5678
47.2318
45.0606
43.0365
41.1446
39.3716
37.706
36.138
34.6587
33.2604
31.9362
30.6796
29.4852
28.3478
27.2629
26.2263
25.2345
24.2837
23.371
22.4935
21.6488
20.8344
20.0479
19.2872
18.5502
17.8349
17.1395
16.4623
15.8015
15.1559
14.5241
13.9046
13.2962
12.6974
12.1068
11.5232
10.9452
10.3716
9.80121
9.23289
8.66552
8.09778
7.52918
6.95717
6.38299
5.79953
5.21705
4.61139
4.03128
3.37576
2.84766
2.02312
1.75493
0.313204
1.20776
52.0423
49.527
47.1959
45.029
43.0088
41.1201
39.35
37.6869
36.1212
34.6439
33.2473
31.9246
30.6694
29.4761
28.3398
27.2558
26.22
25.2284
24.2779
23.3654
22.4881
21.6436
20.8293
20.043
19.2825
18.5456
17.8305
17.1353
16.4582
15.7976
15.1521
14.5204
13.9011
13.2927
12.6941
12.1037
11.5201
10.9422
10.3688
9.79852
9.23033
8.6631
8.09549
7.52704
6.95517
6.38114
5.79782
5.21546
4.60993
4.02995
3.37465
2.84677
2.02259
1.75451
0.313229
1.20739
51.9976
49.4878
47.1615
44.9988
42.9821
41.0967
39.3293
37.6687
36.105
34.6296
33.2347
31.9135
30.6596
29.4674
28.3321
27.2489
26.2135
25.2222
24.2719
23.3595
22.4825
21.6381
20.8241
20.0379
19.2776
18.5409
17.826
17.1309
16.4539
15.7935
15.1481
14.5165
13.8974
13.2892
12.6906
12.1004
11.517
10.9392
10.3658
9.79572
9.22767
8.66057
8.09311
7.5248
6.95309
6.37921
5.79603
5.21381
4.6084
4.02857
3.37348
2.84583
2.02202
1.75405
0.313247
1.20699
51.9547
49.4501
47.1284
44.9697
42.9566
41.0741
39.3094
37.6511
36.0896
34.616
33.2227
31.9028
30.6501
29.4591
28.3246
27.2418
26.2067
25.2156
24.2656
23.3535
22.4766
21.6324
20.8186
20.0326
19.2724
18.536
17.8212
17.1263
16.4495
15.7892
15.144
14.5126
13.8935
13.2855
12.6871
12.0969
11.5136