/*--------------------------------*- C++ -*----------------------------------*\
  =========                 |
  \\      /  F ield         | OpenFOAM: The Open Source CFD Toolbox
   \\    /   O peration     | Website:  https://openfoam.org
    \\  /    A nd           | Version:  7
     \\/     M anipulation  |
\*---------------------------------------------------------------------------*/
FoamFile
{
    version     2.0;
    format      ascii;
    class       surfaceScalarField;
    location    "2000";
    object      phi;
}
// * * * * * * * * * * * * * * * * * * * * * * * * * * * * * * * * * * * * * //

dimensions      [0 3 -1 0 0 0 0];

internalField   nonuniform List<scalar> 
45693
(
-0.0016445
0.0637587
-0.00164386
0.061826
-0.00157828
0.0637584
-0.00164342
0.0598535
-0.00157767
0.0618254
-0.00151482
0.063758
0.0579631
-0.00157725
0.0598531
-0.00151424
0.0618248
-0.00145378
0.0637577
-0.00157674
0.0579625
-0.00151383
0.0598527
-0.00145322
0.0618242
-0.00139525
0.0637573
-0.0015763
0.0561109
-0.00151335
0.0579621
-0.00145283
0.0598523
-0.00139471
0.0618237
-0.00133913
0.063757
-0.00157585
0.0543097
-0.00151292
0.0561105
-0.00145236
0.0579616
-0.00139434
0.0598519
-0.00133861
0.0618232
-0.00128522
0.0637567
-0.00157544
0.0525794
-0.0015125
0.0543093
-0.00145196
0.0561101
-0.00139389
0.0579611
-0.00133826
0.0598516
-0.00128473
0.0618227
-0.00123348
0.0637564
-0.00157504
0.0508975
-0.0015121
0.052579
-0.00145155
0.0543089
-0.0013935
0.0561097
-0.00133783
0.0579607
-0.00128438
0.0598512
-0.001233
0.0618222
-0.00118379
0.0637562
-0.00157467
0.0492509
-0.00151172
0.0508971
-0.00145117
0.0525787
-0.00139311
0.0543085
-0.00133746
0.0561094
-0.00128397
0.0579603
-0.00123267
0.0598509
-0.00118333
0.0618217
-0.00113616
0.0637559
0.0476653
-0.00151136
0.0492506
-0.00145081
0.0508968
-0.00139275
0.0525783
-0.00133708
0.0543081
-0.00128362
0.056109
-0.00123227
0.0579599
-0.00118302
0.0598506
-0.00113572
0.0618213
-0.00109044
0.0637557
-0.00151101
0.0476649
-0.00145046
0.0492502
-0.0013924
0.0508964
-0.00133673
0.0525779
-0.00128325
0.0543077
-0.00123193
0.0561087
-0.00118264
0.0579595
-0.00113542
0.0598503
-0.00109002
0.0618209
-0.00104653
0.0637554
-0.00151068
0.0461158
-0.00145013
0.0476646
-0.00139207
0.0492499
-0.00133639
0.0508961
-0.00128292
0.0525776
-0.00123159
0.0543074
-0.00118231
0.0561083
-0.00113505
0.0579592
-0.00108973
0.05985
-0.00104612
0.0618205
-0.00100443
0.0637552
-0.00151036
0.044616
-0.00144981
0.0461155
-0.00139174
0.0476643
-0.00133608
0.0492496
-0.0012826
0.0508957
-0.00123127
0.0525773
-0.00118198
0.0543071
-0.00113474
0.056108
-0.00108938
0.0579588
-0.00104585
0.0598497
-0.00100404
0.0618201
-0.000963988
0.063755
-0.00151005
0.0431655
-0.0014495
0.0446156
-0.00139144
0.0461152
-0.00133577
0.047664
-0.00128229
0.0492493
-0.00123096
0.0508954
-0.00118167
0.052577
-0.00113442
0.0543067
-0.00108908
0.0561077
-0.00104551
0.0579585
-0.00100378
0.0598494
-0.000963612
0.0618197
-0.000925152
0.0637548
0.0417523
-0.0014492
0.0431652
-0.00139114
0.0446154
-0.00133547
0.0461149
-0.001282
0.0476637
-0.00123066
0.049249
-0.00118137
0.0508951
-0.00113413
0.0525767
-0.00108877
0.0543064
-0.00104523
0.0561074
-0.00100345
0.0579581
-0.000963359
0.0598492
-0.000924791
0.0618193
-0.000887925
0.0637546
-0.00144891
0.041752
-0.00139086
0.0431649
-0.00133519
0.0446151
-0.00128172
0.0461146
-0.00123038
0.0476634
-0.00118109
0.0492487
-0.00113384
0.0508949
-0.00108849
0.0525764
-0.00104493
0.0543061
-0.00100318
0.0561072
-0.00096305
0.0579578
-0.000924549
0.0598489
-0.000887578
0.061819
-0.000852204
0.0637544
-0.00144864
0.0403956
-0.00139058
0.0417517
-0.00133492
0.0431646
-0.00128144
0.0446148
-0.00123011
0.0461143
-0.00118082
0.0476631
-0.00113357
0.0492484
-0.00108822
0.0508946
-0.00104466
0.0525761
-0.0010029
0.0543059
-0.000962785
0.0561069
-0.000924252
0.0579575
-0.000887346
0.0598487
-0.000851871
0.0618187
-0.00081789
0.0637542
0.0390634
-0.00139032
0.0403954
-0.00133466
0.0417514
-0.00128118
0.0431643
-0.00122985
0.0446145
-0.00118056
0.0461141
-0.00113331
0.0476629
-0.00108796
0.0492482
-0.0010444
0.0508943
-0.00100264
0.0525759
-0.000962514
0.0543056
-0.000923998
0.0561066
-0.000887061
0.0579573
-0.000851649
0.0598485
-0.000817571
0.0618183
-0.000784933
0.063754
-0.00139007
0.0390631
-0.0013344
0.0403951
-0.00128093
0.0417512
-0.0012296
0.0431641
-0.00118031
0.0446143
-0.00113307
0.0461138
-0.00108771
0.0476626
-0.00104415
0.0492479
-0.00100238
0.0508941
-0.000962265
0.0525756
-0.000923739
0.0543053
-0.000886817
0.0561064
-0.000851376
0.057957
-0.000817357
0.0598483
-0.000784626
0.061818
-0.000753383
0.0637538
-0.00138982
0.0377793
-0.00133416
0.0390629
-0.00128069
0.0403949
-0.00122936
0.0417509
-0.00118007
0.0431639
-0.00113283
0.044614
-0.00108747
0.0461136
-0.00104391
0.0476624
-0.00100215
0.0492477
-0.000962025
0.0508938
-0.0009235
0.0525754
-0.000886568
0.0543051
-0.000851142
0.0561062
-0.000817095
0.0579567
-0.000784422
0.0598481
-0.000753088
0.0618177
-0.000723038
0.0637537
-0.00138958
0.0365306
-0.00133393
0.0377791
-0.00128046
0.0390626
-0.00122913
0.0403947
-0.00117984
0.0417507
-0.0011326
0.0431636
-0.00108724
0.0446138
-0.00104368
0.0461134
-0.00100192
0.0476622
-0.000961797
0.0492475
-0.000923269
0.0508936
-0.000886339
0.0525752
-0.000850903
0.0543048
-0.000816871
0.0561059
-0.00078417
0.0579565
-0.000752892
0.0598479
-0.000722755
0.0618175
-0.000693949
0.0637535
-0.00138935
0.035322
-0.0013337
0.0365304
-0.00128023
0.0377788
-0.0012289
0.0390624
-0.00117962
0.0403944
-0.00113237
0.0417505
-0.00108702
0.0431634
-0.00104346
0.0446136
-0.0010017
0.0461132
-0.000961578
0.0476619
-0.000923051
0.0492473
-0.000886118
0.0508934
-0.000850683
0.0525749
-0.000816642
0.0543046
-0.000783955
0.0561057
-0.000752651
0.0579562
-0.000722567
0.0598477
-0.000693677
0.0618172
-0.000665966
0.0637534
0.0341485
-0.00133348
0.0353218
-0.00128001
0.0365302
-0.00122869
0.0377786
-0.0011794
0.0390622
-0.00113216
0.0403942
-0.00108681
0.0417503
-0.00104325
0.0431632
-0.00100149
0.0446134
-0.000961367
0.0461129
-0.00092284
0.0476617
-0.000885908
0.049247
-0.000850471
0.0508932
-0.000816431
0.0525747
-0.000783735
0.0543044
-0.000752445
0.0561055
-0.000722336
0.057956
-0.000693498
0.0598475
-0.000665705
0.0618169
-0.000639239
0.0637532
-0.00133326
0.0341483
-0.0012798
0.0353216
-0.00122848
0.03653
-0.0011792
0.0377784
-0.00113196
0.039062
-0.00108661
0.040394
-0.00104305
0.0417501
-0.00100128
0.043163
-0.000961165
0.0446132
-0.000922639
0.0461127
-0.000885707
0.0476615
-0.00085027
0.0492468
-0.000816227
0.050893
-0.000783533
0.0525745
-0.000752233
0.0543042
-0.000722138
0.0561053
-0.000693275
0.0579558
-0.000665532
0.0598473
-0.000638988
0.0618167
-0.000613416
0.0637531
-0.00133306
0.0330101
-0.0012796
0.0341481
-0.00122828
0.0353214
-0.001179
0.0365298
-0.00113176
0.0377782
-0.00108641
0.0390618
-0.00104285
0.0403938
-0.00100109
0.0417499
-0.00096097
0.0431628
-0.000922444
0.044613
-0.000885513
0.0461125
-0.000850076
0.0476613
-0.000816035
0.0492466
-0.000783338
0.0508928
-0.000752039
0.0525743
-0.000721935
0.054304
-0.000693086
0.0561051
-0.000665319
0.0579556
-0.000638823
0.0598472
-0.000613175
0.0618164
-0.000588799
0.063753
0.0319082
-0.0012794
0.0330099
-0.00122808
0.0341479
-0.0011788
0.0353212
-0.00113157
0.0365296
-0.00108622
0.037778
-0.00104266
0.0390616
-0.0010009
0.0403936
-0.000960783
0.0417497
-0.000922258
0.0431626
-0.000885327
0.0446128
-0.000849891
0.0461124
-0.000815849
0.0476611
-0.000783153
0.0492465
-0.000751852
0.0508926
-0.000721749
0.0525742
-0.000692891
0.0543038
-0.000665138
0.0561049
-0.000638618
0.0579554
-0.000613016
0.059847
-0.000588567
0.0618162
-0.000565035
0.0637528
-0.00127921
0.031908
-0.00122789
0.0330097
-0.00117862
0.0341477
-0.00113138
0.035321
-0.00108604
0.0365294
-0.00104248
0.0377779
-0.00100072
0.0390614
-0.000960603
0.0403934
-0.000922078
0.0417495
-0.000885148
0.0431624
-0.000849712
0.0446126
-0.000815671
0.0461122
-0.000782975
0.047661
-0.000751675
0.0492463
-0.000721569
0.0508924
-0.000692713
0.052574
-0.000664951
0.0543036
-0.000638444
0.0561048
-0.00061282
0.0579552
-0.000588415
0.0598469
-0.000564813
0.061816
-0.000542327
0.0637527
-0.00127902
0.0308376
-0.00122771
0.0319078
-0.00117843
0.0330095
-0.0011312
0.0341476
-0.00108586
0.0353208
-0.00104231
0.0365292
-0.00100055
0.0377777
-0.00096043
0.0390612
-0.000921906
0.0403933
-0.000884976
0.0417493
-0.000849541
0.0431623
-0.0008155
0.0446125
-0.000782804
0.046112
-0.000751504
0.0476608
-0.000721399
0.0492461
-0.00069254
0.0508922
-0.00066478
0.0525738
-0.000638265
0.0543034
-0.000612653
0.0561046
-0.000588227
0.057955
-0.000564668
0.0598467
-0.000542114
0.0618158
-0.000520523
0.0637526
0.0298
-0.00122753
0.0308375
-0.00117826
0.0319076
-0.00113103
0.0330093
-0.00108569
0.0341474
-0.00104214
0.0353206
-0.00100038
0.0365291
-0.000960263
0.0377775
-0.00092174
0.0390611
-0.00088481
0.0403931
-0.000849376
0.0417492
-0.000815335
0.0431621
-0.00078264
0.0446123
-0.00075134
0.0461118
-0.000721235
0.0476606
-0.000692377
0.049246
-0.000664614
0.0508921
-0.0006381
0.0525736
-0.000612481
0.0543033
-0.000588067
0.0561044
-0.000564487
0.0579548
-0.000541974
0.0598466
-0.000520319
0.0618156
-0.000499524
0.0637525
-0.00122735
0.0297998
-0.00117808
0.0308373
-0.00113086
0.0319074
-0.00108552
0.0330091
-0.00104197
0.0341472
-0.00100022
0.0353205
-0.000960101
0.0365289
-0.000921579
0.0377774
-0.000884651
0.0390609
-0.000849217
0.040393
-0.000815177
0.041749
-0.000782482
0.0431619
-0.000751183
0.0446121
-0.000721079
0.0461117
-0.00069222
0.0476605
-0.000664457
0.0492458
-0.000637941
0.0508919
-0.000612324
0.0525735
-0.000587902
0.0543031
-0.000564333
0.0561043
-0.000541801
0.0579546
-0.000520185
0.0598464
-0.000499327
0.0618154
-0.000479428
0.0637524
-0.00122717
0.0287925
-0.00117791
0.0297997
-0.00113069
0.0308371
-0.00108536
0.0319073
-0.00104181
0.033009
-0.00100006
0.0341471
-0.000959945
0.0353203
-0.000921425
0.0365288
-0.000884498
0.0377772
-0.000849064
0.0390608
-0.000815025
0.0403928
-0.000782331
0.0417489
-0.000751031
0.0431618
-0.000720928
0.044612
-0.000692069
0.0461115
-0.000664307
0.0476603
-0.000637791
0.0492456
-0.000612171
0.0508917
-0.00058775
0.0525733
-0.000564175
0.0543029
-0.000541653
0.0561041
-0.000520019
0.0579545
-0.000499199
0.0598463
-0.000479239
0.0618152
-0.000460136
0.0637523
0.0278178
-0.00117775
0.0287924
-0.00113053
0.0297995
-0.0010852
0.030837
-0.00104166
0.0319071
-0.000999905
0.0330088
-0.000959794
0.0341469
-0.000921275
0.0353202
-0.000884349
0.0365286
-0.000848917
0.0377771
-0.000814879
0.0390606
-0.000782185
0.0403927
-0.000750886
0.0417487
-0.000720783
0.0431616
-0.000691925
0.0446118
-0.000664163
0.0461114
-0.000637647
0.0476602
-0.000612027
0.0492455
-0.000587604
0.0508916
-0.00056403
0.0525732
-0.000541502
0.0543028
-0.000519877
0.056104
-0.000499039
0.0579543
-0.000479116
0.0598462
-0.000459955
0.061815
-0.000441598
0.0637522
-0.00117758
0.0278176
-0.00113037
0.0287922
-0.00108504
0.0297994
-0.0010415
0.0308368
-0.000999755
0.031907
-0.000959647
0.0330087
-0.00092113
0.0341468
-0.000884206
0.03532
-0.000848775
0.0365285
-0.000814737
0.0377769
-0.000782044
0.0390605
-0.000750746
0.0403925
-0.000720643
0.0417486
-0.000691786
0.0431615
-0.000664024
0.0446117
-0.000637508
0.0461113
-0.000611888
0.04766
-0.000587466
0.0492454
-0.000563889
0.0508915
-0.000541362
0.052573
-0.000519731
0.0543026
-0.000498903
0.0561039
-0.000478963
0.0579541
-0.000459837
0.0598461
-0.000441424
0.0618148
-0.000423864
0.0637521
-0.00117742
0.0268695
-0.00113021
0.0278175
-0.00108489
0.028792
-0.00104136
0.0297992
-0.00099961
0.0308367
-0.000959504
0.0319068
-0.00092099
0.0330085
-0.000884067
0.0341466
-0.000848638
0.0353199
-0.000814601
0.0365283
-0.000781909
0.0377768
-0.000750611
0.0390603
-0.000720509
0.0403924
-0.000691652
0.0417484
-0.00066389
0.0431614
-0.000637375
0.0446116
-0.000611756
0.0461111
-0.000587333
0.0476599
-0.000563757
0.0492452
-0.000541227
0.0508913
-0.000519598
0.0525729
-0.000498763
0.0543025
-0.000478833
0.0561037
-0.00045969
0.057954
-0.000441311
0.059846
-0.000423696
0.0618147
-0.000406732
0.063752
0.0259527
-0.00113006
0.0268694
-0.00108474
0.0278173
-0.00104121
0.0287919
-0.000999468
0.0297991
-0.000959365
0.0308365
-0.000920853
0.0319067
-0.000883933
0.0330084
-0.000848505
0.0341465
-0.00081447
0.0353198
-0.000781778
0.0365282
-0.000750482
0.0377766
-0.00072038
0.0390602
-0.000691523
0.0403923
-0.000663762
0.0417483
-0.000637247
0.0431612
-0.000611628
0.0446114
-0.000587205
0.046111
-0.000563629
0.0476598
-0.0005411
0.0492451
-0.000519468
0.0508912
-0.000498635
0.0525728
-0.000478699
0.0543024
-0.000459565
0.0561036
-0.00044117
0.0579539
-0.000423588
0.0598459
-0.000406572
0.0618145
-0.000390404
0.0637519
-0.00112991
0.0259526
-0.00108459
0.0268692
-0.00104107
0.0278172
-0.000999328
0.0287918
-0.000959229
0.0297989
-0.00092072
0.0308364
-0.000883801
0.0319066
-0.000848375
0.0330083
-0.000814342
0.0341464
-0.000781652
0.0353196
-0.000750356
0.0365281
-0.000720255
0.0377765
-0.000691399
0.0390601
-0.000663639
0.0403921
-0.000637124
0.0417482
-0.000611505
0.0431611
-0.000587083
0.0446113
-0.000563507
0.0461109
-0.000540978
0.0476597
-0.000519346
0.049245
-0.000498511
0.0508911
-0.000478575
0.0525727
-0.000459436
0.0543022
-0.00044105
0.0561035
-0.000423453
0.0579537
-0.000406468
0.0598458
-0.00039025
0.0618143
-0.00037468
0.0637519
-0.00112975
0.0250611
-0.00108445
0.0259524
-0.00104093
0.0268691
-0.000999191
0.0278171
-0.000959095
0.0287916
-0.000920589
0.0297988
-0.000883674
0.0308363
-0.00084825
0.0319064
-0.000814218
0.0330082
-0.00078153
0.0341462
-0.000750235
0.0353195
-0.000720135
0.036528
-0.00069128
0.0377764
-0.00066352
0.03906
-0.000637006
0.040392
-0.000611387
0.0417481
-0.000586965
0.043161
-0.00056339
0.0446112
-0.000540861
0.0461108
-0.000519229
0.0476595
-0.000498394
0.0492449
-0.000478456
0.050891
-0.000459318
0.0525725
-0.000440927
0.0543021
-0.000423338
0.0561034
-0.000406338
0.0579536
-0.00039015
0.0598457
-0.000374532
0.0618142
-0.000359618
0.0637518
-0.0011296
0.0241972
-0.0010843
0.0250609
-0.00104079
0.0259523
-0.000999056
0.026869
-0.000958964
0.0278169
-0.000920462
0.0287915
-0.000883549
0.0297987
-0.000848128
0.0308361
-0.000814098
0.0319063
-0.000781412
0.033008
-0.000750118
0.0341461
-0.000720019
0.0353194
-0.000691165
0.0365278
-0.000663406
0.0377763
-0.000636892
0.0390599
-0.000611274
0.0403919
-0.000586852
0.041748
-0.000563277
0.0431609
-0.000540748
0.0446111
-0.000519116
0.0461106
-0.000498281
0.0476594
-0.000478344
0.0492448
-0.000459204
0.0508908
-0.000440813
0.0525724
-0.000423219
0.054302
-0.000406228
0.0561033
-0.000390026
0.0579535
-0.000374436
0.0598456
-0.000359476
0.0618141
-0.000345124
0.0637517
-0.00112945
0.0233597
-0.00108416
0.0241971
-0.00104065
0.0250608
-0.000998923
0.0259521
-0.000958835
0.0268688
-0.000920336
0.0278168
-0.000883427
0.0287914
-0.000848008
0.0297986
-0.000813981
0.030836
-0.000781296
0.0319062
-0.000750005
0.0330079
-0.000719907
0.034146
-0.000691054
0.0353193
-0.000663295
0.0365277
-0.000636782
0.0377762
-0.000611165
0.0390598
-0.000586743
0.0403918
-0.000563168
0.0417479
-0.00054064
0.0431608
-0.000519008
0.044611
-0.000498173
0.0461105
-0.000478236
0.0476593
-0.000459096
0.0492446
-0.000440703
0.0508907
-0.00042311
0.0525723
-0.000406114
0.0543019
-0.00038992
0.0561032
-0.000374317
0.0579533
-0.000359384
0.0598455
-0.000344988
0.0618139
-0.000331233
0.0637516
-0.0011293
0.0225461
-0.00108401
0.0233595
-0.00104051
0.0241969
-0.00099879
0.0250607
-0.000958708
0.025952
-0.000920213
0.0268687
-0.000883307
0.0278167
-0.000847891
0.0287913
-0.000813867
0.0297984
-0.000781184
0.0308359
-0.000749894
0.0319061
-0.000719798
0.0330078
-0.000690946
0.0341459
-0.000663189
0.0353192
-0.000636676
0.0365276
-0.000611059
0.0377761
-0.000586639
0.0390596
-0.000563064
0.0403917
-0.000540536
0.0417477
-0.000518904
0.0431607
-0.00049807
0.0446109
-0.000478132
0.0461104
-0.000458992
0.0476592
-0.0004406
0.0492445
-0.000423005
0.0508906
-0.00040601
0.0525722
-0.000389811
0.0543018
-0.000374215
0.0561031
-0.00035927
0.0579532
-0.0003449
0.0598454
-0.000331102
0.0618138
-0.0003179
0.0637516
-0.00112914
0.0217575
-0.00108387
0.0225459
-0.00104037
0.0233594
-0.000998658
0.0241968
-0.000958581
0.0250605
-0.000920091
0.0259519
-0.000883189
0.0268686
-0.000847777
0.0278166
-0.000813755
0.0287911
-0.000781075
0.0297983
-0.000749787
0.0308358
-0.000719692
0.031906
-0.000690842
0.0330077
-0.000663085
0.0341458
-0.000636574
0.0353191
-0.000610958
0.0365275
-0.000586538
0.037776
-0.000562963
0.0390595
-0.000540436
0.0403916
-0.000518805
0.0417477
-0.00049797
0.0431606
-0.000478033
0.0446108
-0.000458893
0.0461103
-0.0004405
0.0476591
-0.000422906
0.0492444
-0.000405908
0.0508905
-0.000389711
0.0525721
-0.000374111
0.0543017
-0.000359172
0.056103
-0.00034479
0.0579531
-0.000331018
0.0598453
-0.000317774
0.0618137
-0.000305104
0.0637515
0.0209916
-0.00108372
0.0217574
-0.00104023
0.0225458
-0.000998526
0.0233593
-0.000958455
0.0241967
-0.00091997
0.0250604
-0.000883072
0.0259518
-0.000847664
0.0268685
-0.000813645
0.0278165
-0.000780967
0.028791
-0.000749682
0.0297982
-0.000719589
0.0308357
-0.00069074
0.0319059
-0.000662985
0.0330076
-0.000636475
0.0341457
-0.00061086
0.035319
-0.00058644
0.0365274
-0.000562867
0.0377759
-0.000540339
0.0390595
-0.000518709
0.0403915
-0.000497874
0.0417476
-0.000477937
0.0431605
-0.000458798
0.0446107
-0.000440405
0.0461102
-0.00042281
0.047659
-0.000405813
0.0492443
-0.000389614
0.0508904
-0.000374014
0.052572
-0.000359072
0.0543016
-0.000344697
0.0561029
-0.000330912
0.057953
-0.000317693
0.0598452
-0.000304983
0.0618135
-0.000292821
0.0637514
-0.00108357
0.0209914
-0.00104009
0.0217572
-0.000998393
0.0225457
-0.000958329
0.0233591
-0.000919849
0.0241965
-0.000882956
0.0250603
-0.000847552
0.0259517
-0.000813537
0.0268684
-0.000780862
0.0278163
-0.000749579
0.0287909
-0.000719489
0.0297981
-0.000690642
0.0308356
-0.000662888
0.0319058
-0.000636379
0.0330075
-0.000610765
0.0341456
-0.000586346
0.0353189
-0.000562773
0.0365273
-0.000540247
0.0377758
-0.000518616
0.0390594
-0.000497782
0.0403914
-0.000477846
0.0417475
-0.000458706
0.0431604
-0.000440314
0.0446106
-0.000422719
0.0461101
-0.000405722
0.0476589
-0.000389523
0.0492443
-0.000373921
0.0508903
-0.00035898
0.0525719
-0.0003446
0.0543015
-0.000330823
0.0561028
-0.000317592
0.0579529
-0.000304905
0.0598451
-0.000292705
0.0618134
-0.000281035
0.0637514
-0.00108342
0.020248
-0.00103995
0.0209913
-0.00099826
0.0217571
-0.000958202
0.0225455
-0.000919729
0.023359
-0.000882841
0.0241964
-0.000847441
0.0250602
-0.00081343
0.0259516
-0.000780759
0.0268683
-0.000749479
0.0278162
-0.000719391
0.0287908
-0.000690545
0.029798
-0.000662794
0.0308355
-0.000636286
0.0319057
-0.000610673
0.0330074
-0.000586255
0.0341455
-0.000562683
0.0353188
-0.000540157
0.0365272
-0.000518527
0.0377757
-0.000497694
0.0390593
-0.000477757
0.0403913
-0.000458618
0.0417474
-0.000440226
0.0431603
-0.000422631
0.0446105
-0.000405634
0.0461101
-0.000389435
0.0476588
-0.000373834
0.0492442
-0.00035889
0.0508902
-0.000344512
0.0525718
-0.00033073
0.0543014
-0.000317506
0.0561027
-0.000304808
0.0579528
-0.00029263
0.0598451
-0.000280923
0.0618133
-0.000269726
0.0637513
0.0195281
-0.00103981
0.0202478
-0.000998124
0.0209911
-0.000958074
0.021757
-0.000919608
0.0225454
-0.000882726
0.0233589
-0.000847331
0.0241963
-0.000813324
0.0250601
-0.000780657
0.0259515
-0.00074938
0.0268682
-0.000719294
0.0278161
-0.000690451
0.0287907
-0.000662702
0.0297979
-0.000636196
0.0308354
-0.000610584
0.0319056
-0.000586167
0.0330073
-0.000562596
0.0341454
-0.000540071
0.0353187
-0.000518441
0.0365272
-0.000497609
0.0377756
-0.000477673
0.0390592
-0.000458533
0.0403912
-0.000440141
0.0417473
-0.000422547
0.0431602
-0.00040555
0.0446104
-0.000389351
0.04611
-0.000373749
0.0476588
-0.000358806
0.0492441
-0.000344426
0.0508902
-0.000330645
0.0525718
-0.000317417
0.0543013
-0.000304726
0.0561026
-0.000292537
0.0579527
-0.000280852
0.059845
-0.000269619
0.0618132
-0.000258864
0.0637513
-0.00103966
0.019528
-0.000997987
0.0202477
-0.000957945
0.020991
-0.000919486
0.0217569
-0.00088261
0.0225453
-0.000847221
0.0233588
-0.000813219
0.0241962
-0.000780556
0.02506
-0.000749282
0.0259514
-0.0007192
0.0268681
-0.000690359
0.0278161
-0.000662612
0.0287907
-0.000636107
0.0297979
-0.000610497
0.0308353
-0.000586082
0.0319055
-0.000562512
0.0330072
-0.000539987
0.0341453
-0.000518359
0.0353186
-0.000497526
0.0365271
-0.000477591
0.0377755
-0.000458452
0.0390591
-0.00044006
0.0403911
-0.000422466
0.0417472
-0.000405469
0.0431601
-0.00038927
0.0446103
-0.000373669
0.0461099
-0.000358725
0.0476587
-0.000344345
0.049244
-0.000330563
0.0508901
-0.000317336
0.0525717
-0.000304641
0.0543012
-0.000292458
0.0561025
-0.000280762
0.0579526
-0.00026955
0.0598449
-0.000258762
0.0618131
-0.000248445
0.0637512
-0.00103951
0.0188281
-0.000997847
0.0195278
-0.000957814
0.0202476
-0.000919363
0.0209909
-0.000882494
0.0217567
-0.000847111
0.0225452
-0.000813114
0.0233587
-0.000780455
0.0241961
-0.000749185
0.0250599
-0.000719106
0.0259513
-0.000690269
0.026868
-0.000662523
0.027816
-0.000636021
0.0287906
-0.000610413
0.0297978
-0.000585999
0.0308353
-0.00056243
0.0319054
-0.000539906
0.0330072
-0.000518278
0.0341453
-0.000497447
0.0353185
-0.000477512
0.036527
-0.000458373
0.0377754
-0.000439982
0.039059
-0.000422388
0.0403911
-0.000405391
0.0417471
-0.000389192
0.0431601
-0.000373591
0.0446103
-0.000358648
0.0461098
-0.000344267
0.0476586
-0.000330485
0.0492439
-0.000317257
0.05089
-0.000304563
0.0525716
-0.000292376
0.0543011
-0.000280687
0.0561025
-0.000269465
0.0579525
-0.000258696
0.0598449
-0.000248346
0.061813
-0.000238442
0.0637512
-0.00103935
0.0181481
-0.000997703
0.0188279
-0.000957681
0.0195277
-0.000919238
0.0202474
-0.000882377
0.0209908
-0.000847
0.0217566
-0.000813008
0.0225451
-0.000780355
0.0233586
-0.000749089
0.024196
-0.000719014
0.0250598
-0.000690179
0.0259512
-0.000662436
0.0268679
-0.000635936
0.0278159
-0.00061033
0.0287905
-0.000585918
0.0297977
-0.00056235
0.0308352
-0.000539828
0.0319054
-0.000518201
0.0330071
-0.00049737
0.0341452
-0.000477436
0.0353185
-0.000458298
0.0365269
-0.000439907
0.0377754
-0.000422313
0.039059
-0.000405317
0.040391
-0.000389118
0.0417471
-0.000373517
0.04316
-0.000358573
0.0446102
-0.000344193
0.0461097
-0.000330411
0.0476585
-0.000317182
0.0492439
-0.000304487
0.0508899
-0.000292301
0.0525715
-0.000280608
0.054301
-0.000269392
0.0561024
-0.000258614
0.0579525
-0.000248283
0.0598448
-0.000238348
0.0618129
-0.000228847
0.0637511
-0.00103919
0.017489
-0.000997554
0.0181479
-0.000957543
0.0188278
-0.00091911
0.0195276
-0.000882258
0.0202473
-0.000846888
0.0209907
-0.000812902
0.0217565
-0.000780254
0.022545
-0.000748993
0.0233585
-0.000718922
0.0241959
-0.000690091
0.0250597
-0.000662351
0.0259511
-0.000635853
0.0268678
-0.000610249
0.0278158
-0.000585838
0.0287904
-0.000562272
0.0297976
-0.000539751
0.0308351
-0.000518125
0.0319053
-0.000497296
0.033007
-0.000477362
0.0341451
-0.000458225
0.0353184
-0.000439834
0.0365268
-0.000422241
0.0377753
-0.000405245
0.0390589
-0.000389046
0.0403909
-0.000373445
0.041747
-0.000358502
0.0431599
-0.000344122
0.0446101
-0.00033034
0.0461097
-0.000317111
0.0476585
-0.000304415
0.0492438
-0.000292228
0.0508898
-0.000280536
0.0525714
-0.000269317
0.054301
-0.000258544
0.0561023
-0.000248204
0.0579524
-0.000238287
0.0598447
-0.000228756
0.0618128
-0.000219633
0.0637511
-0.00103902
0.0168485
-0.0009974
0.0174889
-0.000957402
0.0181478
-0.00091898
0.0188277
-0.000882136
0.0195274
-0.000846774
0.0202472
-0.000812795
0.0209906
-0.000780153
0.0217564
-0.000748897
0.0225449
-0.00071883
0.0233584
-0.000690003
0.0241958
-0.000662266
0.0250596
-0.000635771
0.025951
-0.00061017
0.0268677
-0.000585761
0.0278157
-0.000562196
0.0287903
-0.000539677
0.0297975
-0.000518052
0.030835
-0.000497223
0.0319052
-0.00047729
0.0330069
-0.000458154
0.034145
-0.000439764
0.0353183
-0.000422171
0.0365268
-0.000405176
0.0377752
-0.000388977
0.0390588
-0.000373376
0.0403908
-0.000358433
0.0417469
-0.000344053
0.0431598
-0.000330271
0.04461
-0.000317043
0.0461096
-0.000304347
0.0476584
-0.00029216
0.0492437
-0.000280466
0.0508898
-0.000269248
0.0525714
-0.000258472
0.0543009
-0.000248137
0.0561022
-0.000238211
0.0579523
-0.000228698
0.0598447
-0.000219546
0.0618127
-0.000210796
0.063751
-0.00103884
0.0162265
-0.00099724
0.0168484
-0.000957256
0.0174887
-0.000918845
0.0181477
-0.000882012
0.0188275
-0.000846658
0.0195273
-0.000812687
0.0202471
-0.00078005
0.0209905
-0.0007488
0.0217563
-0.000718738
0.0225448
-0.000689915
0.0233583
-0.000662182
0.0241957
-0.00063569
0.0250595
-0.000610091
0.0259509
-0.000585685
0.0268677
-0.000562122
0.0278157
-0.000539604
0.0287903
-0.000517981
0.0297975
-0.000497153
0.030835
-0.000477221
0.0319051
-0.000458086
0.0330069
-0.000439696
0.034145
-0.000422104
0.0353183
-0.000405109
0.0365267
-0.000388911
0.0377752
-0.00037331
0.0390587
-0.000358367
0.0403908
-0.000343987
0.0417469
-0.000330206
0.0431598
-0.000316977
0.04461
-0.000304281
0.0461095
-0.000292094
0.0476583
-0.000280401
0.0492436
-0.000269181
0.0508897
-0.000258405
0.0525713
-0.000248068
0.0543008
-0.000238147
0.0561022
-0.000228625
0.0579522
-0.00021949
0.0598446
-0.000210712
0.0618126
-0.000202305
0.063751
-0.00103866
0.0156217
-0.000997072
0.0162263
-0.000957103
0.0168482
-0.000918706
0.0174886
-0.000881883
0.0181475
-0.000846539
0.0188274
-0.000812576
0.0195272
-0.000779947
0.020247
-0.000748702
0.0209904
-0.000718645
0.0217562
-0.000689827
0.0225447
-0.000662098
0.0233582
-0.00063561
0.0241957
-0.000610014
0.0250595
-0.00058561
0.0259509
-0.000562049
0.0268676
-0.000539533
0.0278156
-0.000517911
0.0287902
-0.000497085
0.0297974
-0.000477154
0.0308349
-0.000458019
0.0319051
-0.000439631
0.0330068
-0.000422039
0.0341449
-0.000405044
0.0353182
-0.000388847
0.0365266
-0.000373247
0.0377751
-0.000358304
0.0390587
-0.000343924
0.0403907
-0.000330142
0.0417468
-0.000316914
0.0431597
-0.000304218
0.0446099
-0.000292031
0.0461095
-0.000280337
0.0476583
-0.000269117
0.0492436
-0.000258341
0.0508896
-0.000248004
0.0525712
-0.000238081
0.0543008
-0.000228564
0.0561021
-0.00021942
0.0579522
-0.000210659
0.0598446
-0.000202225
0.0618126
-0.000194167
0.0637509
-0.00103846
0.015035
-0.000996896
0.0156215
-0.000956944
0.0162262
-0.00091856
0.0168481
-0.00088175
0.0174885
-0.000846417
0.0181474
-0.000812463
0.0188273
-0.000779841
0.0195271
-0.000748604
0.0202469
-0.000718552
0.0209903
-0.000689738
0.0217561
-0.000662014
0.0225446
-0.000635529
0.0233581
-0.000609936
0.0241956
-0.000585535
0.0250594
-0.000561977
0.0259508
-0.000539463
0.0268675
-0.000517843
0.0278155
-0.000497018
0.0287901
-0.000477088
0.0297973
-0.000457955
0.0308348
-0.000439567
0.031905
-0.000421976
0.0330067
-0.000404982
0.0341448
-0.000388785
0.0353181
-0.000373185
0.0365266
-0.000358243
0.037775
-0.000343863
0.0390586
-0.000330082
0.0403907
-0.000316853
0.0417467
-0.000304158
0.0431597
-0.000291971
0.0446098
-0.000280277
0.0461094
-0.000269057
0.0476582
-0.00025828
0.0492435
-0.000247943
0.0508896
-0.00023802
0.0525712
-0.0002285
0.0543007
-0.000219361
0.0561021
-0.000210592
0.0579521
-0.000202174
0.0598445
-0.00019409
0.0618125
-0.00018635
0.0637509
-0.00103826
0.0144653
-0.00099671
0.0150348
-0.000956776
0.0156213
-0.000918409
0.016226
-0.000881612
0.0168479
-0.00084629
0.0174883
-0.000812347
0.0181473
-0.000779733
0.0188272
-0.000748503
0.019527
-0.000718458
0.0202468
-0.000689649
0.0209902
-0.000661929
0.0217561
-0.000635449
0.0225445
-0.00060986
0.0233581
-0.000585462
0.0241955
-0.000561906
0.0250593
-0.000539394
0.0259507
-0.000517776
0.0268674
-0.000496953
0.0278154
-0.000477024
0.0287901
-0.000457892
0.0297973
-0.000439505
0.0308348
-0.000421915
0.031905
-0.000404922
0.0330067
-0.000388725
0.0341448
-0.000373126
0.0353181
-0.000358184
0.0365265
-0.000343805
0.037775
-0.000330023
0.0390586
-0.000316795
0.0403906
-0.0003041
0.0417467
-0.000291913
0.0431596
-0.000280219
0.0446098
-0.000268999
0.0461094
-0.000258222
0.0476581
-0.000247885
0.0492435
-0.00023796
0.0508895
-0.000228441
0.0525711
-0.0002193
0.0543006
-0.000210535
0.056102
-0.00020211
0.057952
-0.00019404
0.0598445
-0.000186276
0.0618124
-0.000178844
0.0637509
-0.00103803
0.0139103
-0.000996512
0.0144651
-0.000956599
0.0150347
-0.000918249
0.0156212
-0.000881468
0.0162259
-0.000846159
0.0168478
-0.000812226
0.0174882
-0.000779622
0.0181472
-0.0007484
0.0188271
-0.000718362
0.0195269
-0.000689559
0.0202467
-0.000661844
0.0209901
-0.000635368
0.021756
-0.000609783
0.0225445
-0.000585388
0.023358
-0.000561836
0.0241954
-0.000539326
0.0250592
-0.00051771
0.0259507
-0.000496889
0.0268674
-0.000476962
0.0278154
-0.00045783
0.02879
-0.000439445
0.0297972
-0.000421856
0.0308347
-0.000404863
0.0319049
-0.000388667
0.0330066
-0.000373069
0.0341447
-0.000358127
0.035318
-0.000343748
0.0365265
-0.000329967
0.0377749
-0.000316739
0.0390585
-0.000304044
0.0403905
-0.000291857
0.0417466
-0.000280163
0.0431595
-0.000268943
0.0446097
-0.000258167
0.0461093
-0.000247829
0.0476581
-0.000237905
0.0492434
-0.000228384
0.0508895
-0.000219244
0.0525711
-0.000210477
0.0543006
-0.000202055
0.0561019
-0.000193979
0.057952
-0.000186228
0.0598444
-0.000178773
0.0618123
-0.000171649
0.0637508
-0.0010378
0.0133708
-0.000996301
0.0139101
-0.000956411
0.014465
-0.000918081
0.0150345
-0.000881316
0.015621
-0.000846021
0.0162257
-0.0008121
0.0168477
-0.000779507
0.0174881
-0.000748294
0.0181471
-0.000718263
0.018827
-0.000689467
0.0195268
-0.000661758
0.0202466
-0.000635287
0.02099
-0.000609706
0.0217559
-0.000585315
0.0225444
-0.000561765
0.0233579
-0.000539259
0.0241954
-0.000517645
0.0250592
-0.000496825
0.0259506
-0.0004769
0.0268673
-0.000457771
0.0278153
-0.000439386
0.0287899
-0.000421798
0.0297972
-0.000404806
0.0308346
-0.000388611
0.0319048
-0.000373013
0.0330066
-0.000358072
0.0341447
-0.000343694
0.035318
-0.000329913
0.0365264
-0.000316685
0.0377749
-0.00030399
0.0390585
-0.000291803
0.0403905
-0.00028011
0.0417466
-0.00026889
0.0431595
-0.000258113
0.0446097
-0.000247775
0.0461092
-0.000237851
0.047658
-0.000228331