/*--------------------------------*- C++ -*----------------------------------*\
  =========                 |
  \\      /  F ield         | OpenFOAM: The Open Source CFD Toolbox
   \\    /   O peration     | Website:  https://openfoam.org
    \\  /    A nd           | Version:  7
     \\/     M anipulation  |
\*---------------------------------------------------------------------------*/
FoamFile
{
    version     2.0;
    format      ascii;
    class       volVectorField;
    location    "2000";
    object      U;
}
// * * * * * * * * * * * * * * * * * * * * * * * * * * * * * * * * * * * * * //

dimensions      [0 1 -1 0 0 0 0];

internalField   nonuniform List<vector> 
23023
(
(50.2586 12.3636 0)
(50.2225 12.3727 0)
(50.2585 12.3635 0)
(50.2176 12.3614 0)
(50.2224 12.3726 0)
(50.2584 12.3634 0)
(50.1966 12.3537 0)
(50.2176 12.3613 0)
(50.2223 12.3725 0)
(50.2583 12.3634 0)
(50.1966 12.3535 0)
(50.2175 12.3612 0)
(50.2223 12.3723 0)
(50.2582 12.3633 0)
(50.1846 12.343 0)
(50.1965 12.3534 0)
(50.2175 12.3611 0)
(50.2222 12.3722 0)
(50.2582 12.3632 0)
(50.1689 12.332 0)
(50.1846 12.3429 0)
(50.1965 12.3533 0)
(50.2174 12.361 0)
(50.2221 12.3721 0)
(50.2581 12.3632 0)
(50.1561 12.3195 0)
(50.1689 12.3318 0)
(50.1846 12.3428 0)
(50.1965 12.3532 0)
(50.2174 12.3609 0)
(50.2221 12.372 0)
(50.258 12.3631 0)
(50.1429 12.306 0)
(50.1561 12.3194 0)
(50.1689 12.3317 0)
(50.1845 12.3427 0)
(50.1964 12.3531 0)
(50.2173 12.3609 0)
(50.222 12.3719 0)
(50.258 12.3631 0)
(50.1307 12.2913 0)
(50.1429 12.3059 0)
(50.1561 12.3193 0)
(50.1689 12.3316 0)
(50.1845 12.3426 0)
(50.1964 12.3531 0)
(50.2173 12.3608 0)
(50.2219 12.3718 0)
(50.2579 12.363 0)
(50.1189 12.2754 0)
(50.1308 12.2912 0)
(50.1429 12.3058 0)
(50.1561 12.3192 0)
(50.1689 12.3316 0)
(50.1845 12.3425 0)
(50.1964 12.353 0)
(50.2172 12.3607 0)
(50.2219 12.3717 0)
(50.2578 12.363 0)
(50.1189 12.2753 0)
(50.1308 12.2911 0)
(50.1429 12.3057 0)
(50.1561 12.3191 0)
(50.1689 12.3315 0)
(50.1845 12.3425 0)
(50.1963 12.3529 0)
(50.2172 12.3607 0)
(50.2218 12.3716 0)
(50.2578 12.3629 0)
(50.1076 12.2584 0)
(50.1189 12.2752 0)
(50.1308 12.291 0)
(50.1429 12.3057 0)
(50.1561 12.3191 0)
(50.1688 12.3314 0)
(50.1844 12.3424 0)
(50.1963 12.3528 0)
(50.2171 12.3606 0)
(50.2218 12.3716 0)
(50.2577 12.3629 0)
(50.0967 12.2404 0)
(50.1077 12.2583 0)
(50.119 12.2751 0)
(50.1308 12.2909 0)
(50.1429 12.3056 0)
(50.156 12.319 0)
(50.1688 12.3314 0)
(50.1844 12.3423 0)
(50.1963 12.3527 0)
(50.2171 12.3606 0)
(50.2217 12.3715 0)
(50.2577 12.3628 0)
(50.0862 12.2213 0)
(50.0968 12.2403 0)
(50.1077 12.2582 0)
(50.119 12.2751 0)
(50.1308 12.2908 0)
(50.1429 12.3055 0)
(50.156 12.3189 0)
(50.1688 12.3313 0)
(50.1844 12.3423 0)
(50.1962 12.3527 0)
(50.2171 12.3605 0)
(50.2217 12.3714 0)
(50.2576 12.3628 0)
(50.0762 12.2012 0)
(50.0863 12.2212 0)
(50.0968 12.2402 0)
(50.1077 12.2581 0)
(50.119 12.275 0)
(50.1308 12.2908 0)
(50.1429 12.3054 0)
(50.156 12.3189 0)
(50.1688 12.3312 0)
(50.1844 12.3422 0)
(50.1962 12.3526 0)
(50.217 12.3605 0)
(50.2216 12.3713 0)
(50.2576 12.3627 0)
(50.0762 12.2011 0)
(50.0864 12.2211 0)
(50.0969 12.2401 0)
(50.1078 12.258 0)
(50.119 12.2749 0)
(50.1308 12.2907 0)
(50.1429 12.3054 0)
(50.156 12.3188 0)
(50.1688 12.3311 0)
(50.1844 12.3421 0)
(50.1962 12.3525 0)
(50.217 12.3604 0)
(50.2216 12.3713 0)
(50.2575 12.3627 0)
(50.0666 12.1799 0)
(50.0763 12.201 0)
(50.0864 12.221 0)
(50.0969 12.24 0)
(50.1078 12.258 0)
(50.1191 12.2749 0)
(50.1308 12.2906 0)
(50.1429 12.3053 0)
(50.156 12.3187 0)
(50.1688 12.3311 0)
(50.1843 12.3421 0)
(50.1962 12.3524 0)
(50.2169 12.3604 0)
(50.2216 12.3712 0)
(50.2575 12.3627 0)
(50.0573 12.1576 0)
(50.0667 12.1798 0)
(50.0764 12.2009 0)
(50.0865 12.221 0)
(50.097 12.24 0)
(50.1079 12.2579 0)
(50.1191 12.2748 0)
(50.1309 12.2906 0)
(50.1429 12.3052 0)
(50.156 12.3187 0)
(50.1688 12.331 0)
(50.1843 12.342 0)
(50.1961 12.3524 0)
(50.2169 12.3603 0)
(50.2215 12.3711 0)
(50.2575 12.3626 0)
(50.0574 12.1575 0)
(50.0668 12.1797 0)
(50.0765 12.2008 0)
(50.0866 12.2209 0)
(50.097 12.2399 0)
(50.1079 12.2578 0)
(50.1191 12.2747 0)
(50.1309 12.2905 0)
(50.1429 12.3052 0)
(50.156 12.3186 0)
(50.1688 12.3309 0)
(50.1843 12.3419 0)
(50.1961 12.3523 0)
(50.2169 12.3603 0)
(50.2215 12.3711 0)
(50.2574 12.3626 0)
(50.0484 12.1341 0)
(50.0575 12.1574 0)
(50.0668 12.1796 0)
(50.0765 12.2008 0)
(50.0866 12.2208 0)
(50.0971 12.2398 0)
(50.1079 12.2578 0)
(50.1191 12.2747 0)
(50.1309 12.2904 0)
(50.1429 12.3051 0)
(50.156 12.3185 0)
(50.1688 12.3309 0)
(50.1843 12.3419 0)
(50.1961 12.3523 0)
(50.2168 12.3602 0)
(50.2214 12.371 0)
(50.2574 12.3626 0)
(50.0397 12.1095 0)
(50.0485 12.134 0)
(50.0576 12.1573 0)
(50.0669 12.1796 0)
(50.0766 12.2007 0)
(50.0867 12.2208 0)
(50.0971 12.2398 0)
(50.108 12.2577 0)
(50.1191 12.2746 0)
(50.1309 12.2904 0)
(50.1429 12.3051 0)
(50.156 12.3185 0)
(50.1687 12.3308 0)
(50.1843 12.3418 0)
(50.1961 12.3522 0)
(50.2168 12.3602 0)
(50.2214 12.3709 0)
(50.2574 12.3625 0)
(50.0313 12.0838 0)
(50.0398 12.1094 0)
(50.0486 12.1339 0)
(50.0577 12.1573 0)
(50.067 12.1795 0)
(50.0767 12.2006 0)
(50.0867 12.2207 0)
(50.0971 12.2397 0)
(50.108 12.2576 0)
(50.1192 12.2745 0)
(50.1309 12.2903 0)
(50.1429 12.305 0)
(50.156 12.3184 0)
(50.1687 12.3308 0)
(50.1843 12.3418 0)
(50.196 12.3522 0)
(50.2168 12.3601 0)
(50.2214 12.3709 0)
(50.2573 12.3625 0)
(50.0232 12.0569 0)
(50.0315 12.0837 0)
(50.04 12.1094 0)
(50.0487 12.1338 0)
(50.0577 12.1572 0)
(50.0671 12.1794 0)
(50.0767 12.2006 0)
(50.0868 12.2206 0)
(50.0972 12.2396 0)
(50.108 12.2576 0)
(50.1192 12.2745 0)
(50.1309 12.2903 0)
(50.1429 12.3049 0)
(50.156 12.3184 0)
(50.1687 12.3307 0)
(50.1843 12.3417 0)
(50.196 12.3521 0)
(50.2168 12.3601 0)
(50.2213 12.3708 0)
(50.2573 12.3625 0)
(50.0233 12.0568 0)
(50.0316 12.0836 0)
(50.0401 12.1093 0)
(50.0488 12.1338 0)
(50.0578 12.1571 0)
(50.0672 12.1794 0)
(50.0768 12.2005 0)
(50.0868 12.2206 0)
(50.0972 12.2396 0)
(50.108 12.2575 0)
(50.1192 12.2744 0)
(50.1309 12.2902 0)
(50.1429 12.3049 0)
(50.156 12.3183 0)
(50.1687 12.3307 0)
(50.1843 12.3417 0)
(50.196 12.3521 0)
(50.2167 12.3601 0)
(50.2213 12.3708 0)
(50.2573 12.3625 0)
(50.0154 12.0286 0)
(50.0235 12.0567 0)
(50.0317 12.0836 0)
(50.0402 12.1092 0)
(50.0489 12.1337 0)
(50.0579 12.1571 0)
(50.0672 12.1793 0)
(50.0769 12.2005 0)
(50.0869 12.2205 0)
(50.0973 12.2395 0)
(50.1081 12.2575 0)
(50.1192 12.2744 0)
(50.1309 12.2902 0)
(50.1429 12.3048 0)
(50.156 12.3183 0)
(50.1687 12.3306 0)
(50.1842 12.3417 0)
(50.196 12.352 0)
(50.2167 12.36 0)
(50.2213 12.3707 0)
(50.2572 12.3624 0)
(50.0077 11.9992 0)
(50.0156 12.0285 0)
(50.0237 12.0566 0)
(50.0319 12.0835 0)
(50.0403 12.1091 0)
(50.049 12.1336 0)
(50.058 12.157 0)
(50.0673 12.1793 0)
(50.0769 12.2004 0)
(50.0869 12.2205 0)
(50.0973 12.2395 0)
(50.1081 12.2574 0)
(50.1192 12.2743 0)
(50.1309 12.2901 0)
(50.1429 12.3048 0)
(50.156 12.3182 0)
(50.1687 12.3306 0)
(50.1842 12.3416 0)
(50.196 12.352 0)
(50.2167 12.36 0)
(50.2213 12.3707 0)
(50.2572 12.3624 0)
(50.0079 11.9991 0)
(50.0158 12.0285 0)
(50.0238 12.0566 0)
(50.032 12.0834 0)
(50.0404 12.1091 0)
(50.0491 12.1336 0)
(50.0581 12.157 0)
(50.0674 12.1792 0)
(50.077 12.2003 0)
(50.087 12.2204 0)
(50.0973 12.2394 0)
(50.1081 12.2574 0)
(50.1192 12.2743 0)
(50.1309 12.2901 0)
(50.1429 12.3048 0)
(50.156 12.3182 0)
(50.1687 12.3305 0)
(50.1842 12.3416 0)
(50.196 12.3519 0)
(50.2167 12.36 0)
(50.2212 12.3706 0)
(50.2572 12.3624 0)
(50.0004 11.9684 0)
(50.0081 11.999 0)
(50.016 12.0284 0)
(50.0239 12.0565 0)
(50.0321 12.0834 0)
(50.0405 12.109 0)
(50.0492 12.1335 0)
(50.0582 12.1569 0)
(50.0674 12.1791 0)
(50.077 12.2003 0)
(50.087 12.2204 0)
(50.0974 12.2394 0)
(50.1081 12.2573 0)
(50.1193 12.2742 0)
(50.1309 12.29 0)
(50.1429 12.3047 0)
(50.156 12.3181 0)
(50.1687 12.3305 0)
(50.1842 12.3415 0)
(50.1959 12.3519 0)
(50.2166 12.3599 0)
(50.2212 12.3706 0)
(50.2572 12.3624 0)
(49.9931 11.9363 0)
(50.0007 11.9683 0)
(50.0083 11.999 0)
(50.0161 12.0283 0)
(50.0241 12.0564 0)
(50.0323 12.0833 0)
(50.0406 12.109 0)
(50.0493 12.1335 0)
(50.0582 12.1568 0)
(50.0675 12.1791 0)
(50.0771 12.2002 0)
(50.0871 12.2203 0)
(50.0974 12.2393 0)
(50.1082 12.2573 0)
(50.1193 12.2742 0)
(50.131 12.29 0)
(50.1429 12.3047 0)
(50.156 12.3181 0)
(50.1687 12.3305 0)
(50.1842 12.3415 0)
(50.1959 12.3518 0)
(50.2166 12.3599 0)
(50.2212 12.3706 0)
(50.2571 12.3623 0)
(49.9934 11.9362 0)
(50.0009 11.9682 0)
(50.0085 11.9989 0)
(50.0163 12.0283 0)
(50.0242 12.0564 0)
(50.0324 12.0833 0)
(50.0407 12.1089 0)
(50.0494 12.1334 0)
(50.0583 12.1568 0)
(50.0676 12.179 0)
(50.0772 12.2002 0)
(50.0871 12.2203 0)
(50.0974 12.2393 0)
(50.1082 12.2572 0)
(50.1193 12.2742 0)
(50.131 12.29 0)
(50.1429 12.3046 0)
(50.156 12.3181 0)
(50.1687 12.3304 0)
(50.1842 12.3415 0)
(50.1959 12.3518 0)
(50.2166 12.3599 0)
(50.2212 12.3705 0)
(50.2571 12.3623 0)
(49.9862 11.9027 0)
(49.9936 11.9361 0)
(50.0011 11.9682 0)
(50.0087 11.9989 0)
(50.0164 12.0282 0)
(50.0244 12.0563 0)
(50.0325 12.0832 0)
(50.0408 12.1089 0)
(50.0495 12.1334 0)
(50.0584 12.1567 0)
(50.0676 12.179 0)
(50.0772 12.2002 0)
(50.0871 12.2202 0)
(50.0975 12.2392 0)
(50.1082 12.2572 0)
(50.1193 12.2741 0)
(50.131 12.2899 0)
(50.1429 12.3046 0)
(50.156 12.318 0)
(50.1687 12.3304 0)
(50.1842 12.3414 0)
(50.1959 12.3518 0)
(50.2166 12.3598 0)
(50.2211 12.3705 0)
(50.2571 12.3623 0)
(49.9792 11.8677 0)
(49.9865 11.9026 0)
(49.9938 11.9361 0)
(50.0013 11.9681 0)
(50.0088 11.9988 0)
(50.0166 12.0282 0)
(50.0245 12.0563 0)
(50.0326 12.0832 0)
(50.0409 12.1088 0)
(50.0495 12.1333 0)
(50.0585 12.1567 0)
(50.0677 12.179 0)
(50.0773 12.2001 0)
(50.0872 12.2202 0)
(50.0975 12.2392 0)
(50.1082 12.2572 0)
(50.1193 12.2741 0)
(50.131 12.2899 0)
(50.1429 12.3046 0)
(50.156 12.318 0)
(50.1687 12.3303 0)
(50.1842 12.3414 0)
(50.1959 12.3517 0)
(50.2166 12.3598 0)
(50.2211 12.3704 0)
(50.2571 12.3623 0)
(49.9795 11.8676 0)
(49.9867 11.9026 0)
(49.994 11.936 0)
(50.0015 11.9681 0)
(50.009 11.9987 0)
(50.0167 12.0281 0)
(50.0246 12.0562 0)
(50.0327 12.0831 0)
(50.041 12.1088 0)
(50.0496 12.1333 0)
(50.0585 12.1567 0)
(50.0677 12.1789 0)
(50.0773 12.2001 0)
(50.0872 12.2201 0)
(50.0975 12.2392 0)
(50.1082 12.2571 0)
(50.1193 12.274 0)
(50.131 12.2898 0)
(50.1429 12.3045 0)
(50.156 12.318 0)
(50.1687 12.3303 0)
(50.1842 12.3414 0)
(50.1959 12.3517 0)
(50.2165 12.3598 0)
(50.2211 12.3704 0)
(50.2571 12.3623 0)
(49.9726 11.8311 0)
(49.9798 11.8676 0)
(49.987 11.9025 0)
(49.9942 11.9359 0)
(50.0016 11.968 0)
(50.0092 11.9987 0)
(50.0168 12.0281 0)
(50.0247 12.0562 0)
(50.0328 12.0831 0)
(50.0411 12.1087 0)
(50.0497 12.1332 0)
(50.0586 12.1566 0)
(50.0678 12.1789 0)
(50.0773 12.2 0)
(50.0873 12.2201 0)
(50.0975 12.2391 0)
(50.1083 12.2571 0)
(50.1193 12.274 0)
(50.131 12.2898 0)
(50.1429 12.3045 0)
(50.156 12.3179 0)
(50.1687 12.3303 0)
(50.1842 12.3413 0)
(50.1959 12.3517 0)
(50.2165 12.3598 0)
(50.2211 12.3704 0)
(50.257 12.3622 0)
(49.9658 11.793 0)
(49.9729 11.831 0)
(49.98 11.8675 0)
(49.9872 11.9024 0)
(49.9944 11.9359 0)
(50.0018 11.9679 0)
(50.0093 11.9986 0)
(50.017 12.028 0)
(50.0248 12.0561 0)
(50.0329 12.083 0)
(50.0412 12.1087 0)
(50.0498 12.1332 0)
(50.0587 12.1566 0)
(50.0679 12.1788 0)
(50.0774 12.2 0)
(50.0873 12.2201 0)
(50.0976 12.2391 0)
(50.1083 12.2571 0)
(50.1193 12.274 0)
(50.131 12.2898 0)
(50.1429 12.3045 0)
(50.156 12.3179 0)
(50.1687 12.3302 0)
(50.1842 12.3413 0)
(50.1959 12.3516 0)
(50.2165 12.3597 0)
(50.2211 12.3703 0)
(50.257 12.3622 0)
(49.9661 11.7929 0)
(49.9732 11.831 0)
(49.9803 11.8674 0)
(49.9874 11.9024 0)
(49.9946 11.9358 0)
(50.002 11.9679 0)
(50.0095 11.9986 0)
(50.0171 12.028 0)
(50.0249 12.0561 0)
(50.033 12.083 0)
(50.0413 12.1086 0)
(50.0498 12.1332 0)
(50.0587 12.1565 0)
(50.0679 12.1788 0)
(50.0774 12.2 0)
(50.0873 12.22 0)
(50.0976 12.2391 0)
(50.1083 12.257 0)
(50.1194 12.2739 0)
(50.131 12.2897 0)
(50.1429 12.3044 0)
(50.156 12.3179 0)
(50.1687 12.3302 0)
(50.1842 12.3413 0)
(50.1959 12.3516 0)
(50.2165 12.3597 0)
(50.221 12.3703 0)
(50.257 12.3622 0)
(49.9593 11.7531 0)
(49.9664 11.7928 0)
(49.9734 11.8309 0)
(49.9805 11.8674 0)
(49.9876 11.9023 0)
(49.9948 11.9358 0)
(50.0021 11.9678 0)
(50.0096 11.9985 0)
(50.0172 12.0279 0)
(50.025 12.056 0)
(50.0331 12.0829 0)
(50.0414 12.1086 0)
(50.0499 12.1331 0)
(50.0588 12.1565 0)
(50.068 12.1788 0)
(50.0775 12.1999 0)
(50.0874 12.22 0)
(50.0976 12.239 0)
(50.1083 12.257 0)
(50.1194 12.2739 0)
(50.131 12.2897 0)
(50.1429 12.3044 0)
(50.156 12.3178 0)
(50.1687 12.3302 0)
(50.1842 12.3413 0)
(50.1959 12.3516 0)
(50.2165 12.3597 0)
(50.221 12.3703 0)
(50.257 12.3622 0)
(49.9526 11.7116 0)
(49.9597 11.753 0)
(49.9667 11.7928 0)
(49.9737 11.8308 0)
(49.9807 11.8673 0)
(49.9878 11.9023 0)
(49.995 11.9357 0)
(50.0023 11.9678 0)
(50.0097 11.9985 0)
(50.0173 12.0279 0)
(50.0251 12.056 0)
(50.0332 12.0829 0)
(50.0414 12.1086 0)
(50.05 12.1331 0)
(50.0588 12.1565 0)
(50.068 12.1787 0)
(50.0775 12.1999 0)
(50.0874 12.22 0)
(50.0976 12.239 0)
(50.1083 12.257 0)
(50.1194 12.2739 0)
(50.131 12.2897 0)
(50.1429 12.3044 0)
(50.156 12.3178 0)
(50.1687 12.3302 0)
(50.1842 12.3412 0)
(50.1958 12.3516 0)
(50.2165 12.3597 0)
(50.221 12.3702 0)
(50.257 12.3622 0)
(49.9459 11.6682 0)
(49.953 11.7115 0)
(49.96 11.753 0)
(49.967 11.7927 0)
(49.974 11.8308 0)
(49.981 11.8673 0)
(49.988 11.9022 0)
(49.9952 11.9357 0)
(50.0024 11.9677 0)
(50.0099 11.9984 0)
(50.0174 12.0278 0)
(50.0252 12.0559 0)
(50.0332 12.0828 0)
(50.0415 12.1085 0)
(50.0501 12.133 0)
(50.0589 12.1564 0)
(50.068 12.1787 0)
(50.0775 12.1999 0)
(50.0874 12.2199 0)
(50.0977 12.239 0)
(50.1083 12.2569 0)
(50.1194 12.2738 0)
(50.131 12.2897 0)
(50.1429 12.3043 0)
(50.156 12.3178 0)
(50.1687 12.3301 0)
(50.1842 12.3412 0)
(50.1958 12.3515 0)
(50.2164 12.3597 0)
(50.221 12.3702 0)
(50.257 12.3622 0)
(49.9392 11.6229 0)
(49.9463 11.6681 0)
(49.9534 11.7114 0)
(49.9604 11.7529 0)
(49.9673 11.7927 0)
(49.9742 11.8307 0)
(49.9812 11.8672 0)
(49.9882 11.9022 0)
(49.9953 11.9356 0)
(50.0026 11.9677 0)
(50.01 11.9984 0)
(50.0176 12.0278 0)
(50.0253 12.0559 0)
(50.0333 12.0828 0)
(50.0416 12.1085 0)
(50.0501 12.133 0)
(50.0589 12.1564 0)
(50.0681 12.1787 0)
(50.0776 12.1998 0)
(50.0875 12.2199 0)
(50.0977 12.2389 0)
(50.1084 12.2569 0)
(50.1194 12.2738 0)
(50.131 12.2896 0)
(50.143 12.3043 0)
(50.156 12.3178 0)
(50.1687 12.3301 0)
(50.1842 12.3412 0)
(50.1958 12.3515 0)
(50.2164 12.3596 0)
(50.221 12.3702 0)
(50.257 12.3621 0)
(49.9324 11.5757 0)
(49.9397 11.6229 0)
(49.9467 11.6681 0)
(49.9537 11.7114 0)
(49.9607 11.7528 0)
(49.9676 11.7926 0)
(49.9745 11.8307 0)
(49.9814 11.8672 0)
(49.9884 11.9021 0)
(49.9955 11.9356 0)
(50.0027 11.9677 0)
(50.0101 11.9984 0)
(50.0177 12.0278 0)
(50.0254 12.0559 0)
(50.0334 12.0828 0)
(50.0417 12.1084 0)
(50.0502 12.133 0)
(50.059 12.1564 0)
(50.0681 12.1786 0)
(50.0776 12.1998 0)
(50.0875 12.2199 0)
(50.0977 12.2389 0)
(50.1084 12.2569 0)
(50.1194 12.2738 0)
(50.131 12.2896 0)
(50.143 12.3043 0)
(50.1561 12.3177 0)
(50.1688 12.3301 0)
(50.1842 12.3412 0)
(50.1958 12.3515 0)
(50.2164 12.3596 0)
(50.221 12.3702 0)
(50.257 12.3621 0)
(49.9256 11.5263 0)
(49.9329 11.5756 0)
(49.9401 11.6228 0)
(49.9471 11.668 0)
(49.9541 11.7113 0)
(49.961 11.7528 0)
(49.9678 11.7925 0)
(49.9747 11.8306 0)
(49.9816 11.8671 0)
(49.9886 11.9021 0)
(49.9956 11.9355 0)
(50.0029 11.9676 0)
(50.0102 11.9983 0)
(50.0178 12.0277 0)
(50.0255 12.0558 0)
(50.0335 12.0827 0)
(50.0417 12.1084 0)
(50.0502 12.1329 0)
(50.059 12.1563 0)
(50.0682 12.1786 0)
(50.0777 12.1998 0)
(50.0875 12.2199 0)
(50.0977 12.2389 0)
(50.1084 12.2568 0)
(50.1194 12.2738 0)
(50.131 12.2896 0)
(50.143 12.3043 0)
(50.1561 12.3177 0)
(50.1688 12.3301 0)
(50.1842 12.3412 0)
(50.1958 12.3515 0)
(50.2164 12.3596 0)
(50.221 12.3701 0)
(50.2569 12.3621 0)
(49.9261 11.5262 0)
(49.9334 11.5755 0)
(49.9405 11.6227 0)
(49.9475 11.6679 0)
(49.9544 11.7112 0)
(49.9612 11.7527 0)
(49.9681 11.7925 0)
(49.9749 11.8306 0)
(49.9818 11.8671 0)
(49.9887 11.902 0)
(49.9958 11.9355 0)
(50.003 11.9676 0)
(50.0103 11.9983 0)
(50.0179 12.0277 0)
(50.0256 12.0558 0)
(50.0336 12.0827 0)
(50.0418 12.1084 0)
(50.0503 12.1329 0)
(50.0591 12.1563 0)
(50.0682 12.1786 0)
(50.0777 12.1997 0)
(50.0875 12.2198 0)
(50.0978 12.2389 0)
(50.1084 12.2568 0)
(50.1194 12.2737 0)
(50.1311 12.2896 0)
(50.143 12.3042 0)
(50.1561 12.3177 0)
(50.1688 12.33 0)
(50.1842 12.3411 0)
(50.1958 12.3514 0)
(50.2164 12.3596 0)
(50.2209 12.3701 0)
(50.2569 12.3621 0)
(49.9192 11.4746 0)
(49.9266 11.5261 0)
(49.9339 11.5754 0)
(49.9409 11.6226 0)
(49.9479 11.6679 0)
(49.9547 11.7112 0)
(49.9615 11.7527 0)
(49.9683 11.7924 0)
(49.9751 11.8305 0)
(49.982 11.867 0)
(49.9889 11.902 0)
(49.9959 11.9355 0)
(50.0031 11.9675 0)
(50.0104 11.9982 0)
(50.018 12.0276 0)
(50.0257 12.0558 0)
(50.0336 12.0827 0)
(50.0419 12.1084 0)
(50.0504 12.1329 0)
(50.0591 12.1563 0)
(50.0683 12.1785 0)
(50.0777 12.1997 0)
(50.0876 12.2198 0)
(50.0978 12.2388 0)
(50.1084 12.2568 0)
(50.1194 12.2737 0)
(50.1311 12.2895 0)
(50.143 12.3042 0)
(50.1561 12.3177 0)
(50.1688 12.33 0)
(50.1842 12.3411 0)
(50.1958 12.3514 0)
(50.2164 12.3596 0)
(50.2209 12.3701 0)
(50.2569 12.3621 0)
(49.9122 11.4207 0)
(49.9198 11.4745 0)
(49.9271 11.526 0)
(49.9343 11.5753 0)
(49.9413 11.6226 0)
(49.9482 11.6678 0)
(49.955 11.7111 0)
(49.9618 11.7526 0)
(49.9685 11.7924 0)
(49.9753 11.8305 0)
(49.9821 11.867 0)
(49.989 11.9019 0)
(49.9961 11.9354 0)
(50.0032 11.9675 0)
(50.0105 11.9982 0)
(50.018 12.0276 0)
(50.0258 12.0557 0)
(50.0337 12.0826 0)
(50.0419 12.1083 0)
(50.0504 12.1329 0)
(50.0592 12.1562 0)
(50.0683 12.1785 0)
(50.0777 12.1997 0)
(50.0876 12.2198 0)
(50.0978 12.2388 0)
(50.1084 12.2568 0)
(50.1195 12.2737 0)
(50.1311 12.2895 0)
(50.143 12.3042 0)
(50.1561 12.3177 0)
(50.1688 12.33 0)
(50.1842 12.3411 0)
(50.1958 12.3514 0)
(50.2164 12.3596 0)
(50.2209 12.3701 0)
(50.2569 12.3621 0)
(49.9128 11.4206 0)
(49.9203 11.4744 0)
(49.9276 11.526 0)
(49.9347 11.5753 0)
(49.9417 11.6225 0)
(49.9485 11.6678 0)
(49.9553 11.7111 0)
(49.962 11.7526 0)
(49.9688 11.7924 0)
(49.9755 11.8304 0)
(49.9823 11.8669 0)
(49.9892 11.9019 0)
(49.9962 11.9354 0)
(50.0033 11.9675 0)
(50.0106 11.9982 0)
(50.0181 12.0276 0)
(50.0258 12.0557 0)
(50.0338 12.0826 0)
(50.042 12.1083 0)
(50.0505 12.1328 0)
(50.0592 12.1562 0)
(50.0683 12.1785 0)
(50.0778 12.1997 0)
(50.0876 12.2198 0)
(50.0978 12.2388 0)
(50.1085 12.2568 0)
(50.1195 12.2737 0)
(50.1311 12.2895 0)
(50.143 12.3042 0)
(50.1561 12.3176 0)
(50.1688 12.33 0)
(50.1842 12.3411 0)
(50.1958 12.3514 0)
(50.2163 12.3595 0)
(50.2209 12.3701 0)
(50.2569 12.3621 0)
(49.9057 11.3642 0)
(49.9134 11.4205 0)
(49.9209 11.4744 0)
(49.9281 11.5259 0)
(49.9351 11.5752 0)
(49.942 11.6225 0)
(49.9488 11.6677 0)
(49.9556 11.711 0)
(49.9623 11.7525 0)
(49.969 11.7923 0)
(49.9757 11.8304 0)
(49.9825 11.8669 0)
(49.9893 11.9019 0)
(49.9963 11.9354 0)
(50.0034 11.9674 0)
(50.0107 11.9981 0)
(50.0182 12.0275 0)
(50.0259 12.0557 0)
(50.0338 12.0826 0)
(50.042 12.1083 0)
(50.0505 12.1328 0)
(50.0593 12.1562 0)
(50.0684 12.1785 0)
(50.0778 12.1996 0)
(50.0876 12.2197 0)
(50.0978 12.2388 0)
(50.1085 12.2567 0)
(50.1195 12.2737 0)
(50.1311 12.2895 0)
(50.143 12.3042 0)
(50.1561 12.3176 0)
(50.1688 12.33 0)
(50.1842 12.3411 0)
(50.1958 12.3514 0)
(50.2163 12.3595 0)
(50.2209 12.37 0)
(50.2569 12.3621 0)
(49.8983 11.3052 0)
(49.9063 11.3641 0)
(49.914 11.4204 0)
(49.9214 11.4743 0)
(49.9285 11.5258 0)
(49.9355 11.5752 0)
(49.9424 11.6224 0)
(49.9492 11.6677 0)
(49.9559 11.711 0)
(49.9625 11.7525 0)
(49.9692 11.7923 0)
(49.9759 11.8304 0)
(49.9826 11.8669 0)
(49.9895 11.9018 0)
(49.9964 11.9353 0)
(50.0035 11.9674 0)
(50.0108 11.9981 0)
(50.0183 12.0275 0)
(50.026 12.0557 0)
(50.0339 12.0825 0)
(50.0421 12.1082 0)
(50.0506 12.1328 0)
(50.0593 12.1562 0)
(50.0684 12.1784 0)
(50.0778 12.1996 0)
(50.0876 12.2197 0)
(50.0978 12.2387 0)
(50.1085 12.2567 0)
(50.1195 12.2736 0)
(50.1311 12.2895 0)
(50.143 12.3041 0)
(50.1561 12.3176 0)
(50.1688 12.3299 0)
(50.1842 12.341 0)
(50.1958 12.3513 0)
(50.2163 12.3595 0)
(50.2209 12.37 0)
(50.2569 12.3621 0)
(49.8907 11.2434 0)
(49.899 11.3051 0)
(49.9069 11.364 0)
(49.9145 11.4203 0)
(49.9218 11.4742 0)
(49.929 11.5258 0)
(49.9359 11.5751 0)
(49.9427 11.6224 0)
(49.9494 11.6676 0)
(49.9561 11.7109 0)
(49.9627 11.7525 0)
(49.9694 11.7922 0)
(49.976 11.8303 0)
(49.9828 11.8668 0)
(49.9896 11.9018 0)
(49.9966 11.9353 0)
(50.0037 11.9674 0)
(50.0109 11.9981 0)
(50.0184 12.0275 0)
(50.0261 12.0556 0)
(50.034 12.0825 0)
(50.0422 12.1082 0)
(50.0506 12.1328 0)
(50.0594 12.1561 0)
(50.0684 12.1784 0)
(50.0779 12.1996 0)
(50.0877 12.2197 0)
(50.0979 12.2387 0)
(50.1085 12.2567 0)
(50.1195 12.2736 0)
(50.1311 12.2894 0)
(50.143 12.3041 0)
(50.1561 12.3176 0)
(50.1688 12.3299 0)
(50.1842 12.341 0)
(50.1958 12.3513 0)
(50.2163 12.3595 0)
(50.2209 12.37 0)
(50.2569 12.362 0)
(49.8828 11.1788 0)
(49.8915 11.2433 0)
(49.8997 11.305 0)
(49.9075 11.3639 0)
(49.9151 11.4202 0)
(49.9223 11.4741 0)
(49.9294 11.5257 0)
(49.9363 11.575 0)
(49.943 11.6223 0)
(49.9497 11.6676 0)
(49.9564 11.7109 0)
(49.963 11.7524 0)
(49.9696 11.7922 0)
(49.9762 11.8303 0)
(49.9829 11.8668 0)
(49.9897 11.9018 0)
(49.9967 11.9353 0)
(50.0038 11.9673 0)
(50.011 11.9981 0)
(50.0185 12.0275 0)
(50.0261 12.0556 0)
(50.034 12.0825 0)
(50.0422 12.1082 0)
(50.0506 12.1327 0)
(50.0594 12.1561 0)
(50.0685 12.1784 0)
(50.0779 12.1996 0)
(50.0877 12.2197 0)
(50.0979 12.2387 0)
(50.1085 12.2567 0)
(50.1195 12.2736 0)
(50.1311 12.2894 0)
(50.143 12.3041 0)
(50.1561 12.3176 0)
(50.1688 12.3299 0)
(50.1842 12.341 0)
(50.1958 12.3513 0)
(50.2163 12.3595 0)
(50.2209 12.37 0)
(50.2569 12.362 0)
(49.8745 11.1111 0)
(49.8836 11.1786 0)
(49.8922 11.2432 0)
(49.9003 11.3049 0)
(49.9081 11.3638 0)
(49.9156 11.4202 0)
(49.9228 11.4741 0)
(49.9298 11.5256 0)
(49.9366 11.575 0)
(49.9433 11.6223 0)
(49.95 11.6675 0)
(49.9566 11.7109 0)
(49.9632 11.7524 0)
(49.9698 11.7921 0)
(49.9764 11.8303 0)
(49.9831 11.8668 0)
(49.9899 11.9017 0)
(49.9968 11.9352 0)
(50.0038 11.9673 0)
(50.0111 11.998 0)
(50.0185 12.0274 0)
(50.0262 12.0556 0)
(50.0341 12.0825 0)
(50.0423 12.1082 0)
(50.0507 12.1327 0)
(50.0594 12.1561 0)
(50.0685 12.1784 0)
(50.0779 12.1996 0)
(50.0877 12.2196 0)
(50.0979 12.2387 0)
(50.1085 12.2567 0)
(50.1195 12.2736 0)
(50.1311 12.2894 0)
(50.1431 12.3041 0)
(50.1562 12.3176 0)
(50.1688 12.3299 0)
(50.1842 12.341 0)
(50.1958 12.3513 0)
(50.2163 12.3595 0)
(50.2208 12.37 0)
(50.2569 12.362 0)
(49.8659 11.0401 0)
(49.8754 11.1109 0)
(49.8844 11.1785 0)
(49.8929 11.2431 0)
(49.901 11.3048 0)
(49.9086 11.3637 0)
(49.916 11.4201 0)
(49.9232 11.474 0)
(49.9301 11.5256 0)
(49.9369 11.5749 0)
(49.9436 11.6222 0)
(49.9503 11.6675 0)
(49.9568 11.7108 0)
(49.9634 11.7523 0)
(49.9699 11.7921 0)
(49.9765 11.8302 0)
(49.9832 11.8667 0)
(49.99 11.9017 0)
(49.9969 11.9352 0)
(50.0039 11.9673 0)
(50.0112 11.998 0)
(50.0186 12.0274 0)
(50.0263 12.0556 0)
(50.0342 12.0825 0)
(50.0423 12.1082 0)
(50.0507 12.1327 0)
(50.0595 12.1561 0)
(50.0685 12.1784 0)
(50.0779 12.1995 0)
(50.0877 12.2196 0)
(50.0979 12.2387 0)
(50.1085 12.2566 0)
(50.1195 12.2736 0)
(50.1311 12.2894 0)
(50.1431 12.3041 0)
(50.1562 12.3175 0)
(50.1688 12.3299 0)
(50.1842 12.341 0)
(50.1958 12.3513 0)
(50.2163 12.3595 0)
(50.2208 12.3699 0)
(50.2569 12.362 0)
(49.8567 10.9658 0)
(49.8669 11.04 0)
(49.8763 11.1108 0)
(49.8852 11.1784 0)
(49.8936 11.243 0)
(49.9016 11.3047 0)
(49.9092 11.3637 0)
(49.9165 11.42 0)
(49.9236 11.474 0)
(49.9305 11.5255 0)
(49.9373 11.5749 0)
(49.9439 11.6222 0)
(49.9505 11.6674 0)
(49.957 11.7108 0)
(49.9636 11.7523 0)
(49.9701 11.7921 0)
(49.9767 11.8302 0)
(49.9833 11.8667 0)
(49.9901 11.9017 0)
(49.997 11.9352 0)
(50.004 11.9673 0)
(50.0113 11.998 0)
(50.0187 12.0274 0)
(50.0263 12.0555 0)
(50.0342 12.0824 0)
(50.0424 12.1081 0)
(50.0508 12.1327 0)
(50.0595 12.1561 0)
(50.0686 12.1783 0)
(50.078 12.1995 0)
(50.0878 12.2196 0)
(50.0979 12.2386 0)
(50.1086 12.2566 0)
(50.1196 12.2736 0)
(50.1312 12.2894 0)
(50.1431 12.3041 0)
(50.1562 12.3175 0)
(50.1689 12.3299 0)
(50.1842 12.341 0)
(50.1958 12.3513 0)
(50.2163 12.3595 0)
(50.2208 12.3699 0)
(50.2569 12.362 0)
(49.8471 10.8878 0)
(49.8578 10.9656 0)
(49.8678 11.0399 0)
(49.8771 11.1107 0)
(49.8859 11.1783 0)
(49.8942 11.2429 0)
(49.9021 11.3046 0)
(49.9097 11.3636 0)
(49.917 11.42 0)
(49.924 11.4739 0)
(49.9308 11.5255 0)
(49.9376 11.5749 0)
(49.9442 11.6221 0)
(49.9507 11.6674 0)
(49.9573 11.7107 0)
(49.9637 11.7523 0)
(49.9703 11.792 0)
(49.9768 11.8302 0)
(49.9835 11.8667 0)
(49.9902 11.9016 0)
(49.9971 11.9352 0)
(50.0041 11.9672 0)
(50.0113 11.998 0)
(50.0188 12.0274 0)
(50.0264 12.0555 0)
(50.0343 12.0824 0)
(50.0424 12.1081 0)
(50.0508 12.1326 0)
(50.0595 12.156 0)
(50.0686 12.1783 0)
(50.078 12.1995 0)
(50.0878 12.2196 0)
(50.098 12.2386 0)
(50.1086 12.2566 0)
(50.1196 12.2735 0)
(50.1312 12.2894 0)
(50.1431 12.304 0)
(50.1562 12.3175 0)
(50.1689 12.3298 0)
(50.1842 12.341 0)
(50.1958 12.3512 0)
(50.2162 12.3595 0)
(50.2208 12.3699 0)
(50.2569 12.362 0)
(49.8368 10.8059 0)
(49.8482 10.8876 0)
(49.8588 10.9655 0)
(49.8687 11.0397 0)
(49.8779 11.1106 0)
(49.8866 11.1783 0)
(49.8949 11.2429 0)
(49.9027 11.3046 0)
(49.9102 11.3636 0)
(49.9174 11.4199 0)
(49.9244 11.4739 0)
(49.9312 11.5254 0)
(49.9379 11.5748 0)
(49.9445 11.6221 0)
(49.951 11.6673 0)
(49.9575 11.7107 0)
(49.9639 11.7522 0)
(49.9704 11.792 0)
(49.977 11.8301 0)
(49.9836 11.8666 0)
(49.9903 11.9016 0)
(49.9972 11.9351 0)
(50.0042 11.9672 0)
(50.0114 11.9979 0)
(50.0188 12.0273 0)
(50.0264 12.0555 0)
(50.0343 12.0824 0)
(50.0424 12.1081 0)
(50.0509 12.1326 0)
(50.0596 12.156 0)
(50.0686 12.1783 0)
(50.078 12.1995 0)
(50.0878 12.2196 0)
(50.098 12.2386 0)
(50.1086 12.2566 0)
(50.1196 12.2735 0)
(50.1312 12.2893 0)
(50.1431 12.304 0)
(50.1562 12.3175 0)
(50.1689 12.3298 0)
(50.1842 12.3409 0)
(50.1958 12.3512 0)
(50.2162 12.3594 0)
(50.2208 12.3699 0)
(50.2569 12.362 0)
(49.8258 10.7199 0)
(49.838 10.8057 0)
(49.8493 10.8874 0)
(49.8598 10.9653 0)
(49.8696 11.0396 0)
(49.8787 11.1105 0)
(49.8873 11.1782 0)
(49.8955 11.2428 0)
(49.9032 11.3045 0)
(49.9106 11.3635 0)
(49.9178 11.4199 0)
(49.9247 11.4738 0)
(49.9315 11.5254 0)
(49.9382 11.5748 0)
(49.9447 11.622 0)
(49.9512 11.6673 0)
(49.9577 11.7107 0)
(49.9641 11.7522 0)
(49.9706 11.792 0)
(49.9771 11.8301 0)
(49.9837 11.8666 0)
(49.9904 11.9016 0)
(49.9973 11.9351 0)
(50.0043 11.9672 0)
(50.0115 11.9979 0)
(50.0189 12.0273 0)
(50.0265 12.0555 0)
(50.0344 12.0824 0)
(50.0425 12.1081 0)
(50.0509 12.1326 0)
(50.0596 12.156 0)
(50.0686 12.1783 0)
(50.078 12.1995 0)
(50.0878 12.2196 0)
(50.098 12.2386 0)
(50.1086 12.2566 0)
(50.1196 12.2735 0)
(50.1312 12.2893 0)
(50.1431 12.304 0)
(50.1562 12.3175 0)
(50.1689 12.3298 0)
(50.1842 12.3409 0)
(50.1957 12.3512 0)
(50.2162 12.3594 0)
(50.2208 12.3699 0)
(50.2569 12.362 0)
(49.814 10.6295 0)
(49.8271 10.7197 0)
(49.8393 10.8055 0)
(49.8504 10.8873 0)
(49.8608 10.9652 0)
(49.8704 11.0395 0)
(49.8794 11.1104 0)
(49.888 11.1781 0)
(49.896 11.2427 0)
(49.9037 11.3044 0)
(49.9111 11.3634 0)
(49.9182 11.4198 0)
(49.9251 11.4738 0)
(49.9318 11.5253 0)
(49.9384 11.5747 0)
(49.945 11.622 0)
(49.9514 11.6673 0)
(49.9578 11.7106 0)
(49.9643 11.7522 0)
(49.9707 11.792 0)
(49.9772 11.8301 0)
(49.9838 11.8666 0)
(49.9905 11.9016 0)
(49.9974 11.9351 0)
(50.0044 11.9672 0)
(50.0116 11.9979 0)
(50.0189 12.0273 0)
(50.0266 12.0554 0)
(50.0344 12.0824 0)
(50.0425 12.1081 0)
(50.0509 12.1326 0)
(50.0596 12.156 0)
(50.0687 12.1783 0)
(50.0781 12.1995 0)
(50.0878 12.2195 0)
(50.098 12.2386 0)
(50.1086 12.2566 0)
(50.1196 12.2735 0)
(50.1312 12.2893 0)
(50.1431 12.304 0)
(50.1562 12.3175 0)
(50.1689 12.3298 0)
(50.1843 12.3409 0)
(50.1957 12.3512 0)
(50.2162 12.3594 0)
(50.2208 12.3699 0)
(50.2569 12.362 0)
(49.8012 10.5344 0)
(49.8155 10.6293 0)
(49.8285 10.7195 0)
(49.8404 10.8054 0)
(49.8515 10.8872 0)
(49.8617 10.9651 0)
(49.8712 11.0394 0)
(49.8802 11.1103 0)
(49.8886 11.178 0)
(49.8966 11.2426 0)
(49.9042 11.3044 0)
(49.9115 11.3634 0)
(49.9186 11.4198 0)
(49.9254 11.4737 0)
(49.9321 11.5253 0)
(49.9387 11.5747 0)
(49.9452 11.622 0)
(49.9516 11.6672 0)
(49.958 11.7106 0)
(49.9644 11.7521 0)
(49.9708 11.7919 0)
(49.9773 11.8301 0)
(49.9839 11.8666 0)
(49.9906 11.9016 0)
(49.9974 11.9351 0)
(50.0044 11.9672 0)
(50.0116 11.9979 0)
(50.019 12.0273 0)
(50.0266 12.0554 0)
(50.0345 12.0823 0)
(50.0426 12.108 0)
(50.051 12.1326 0)
(50.0597 12.156 0)
(50.0687 12.1783 0)
(50.0781 12.1994 0)
(50.0879 12.2195 0)
(50.098 12.2386 0)
(50.1086 12.2566 0)
(50.1196 12.2735 0)
(50.1312 12.2893 0)
(50.1431 12.304 0)
(50.1562 12.3175 0)
(50.1689 12.3298 0)
(50.1843 12.3409 0)
(50.1957 12.3512 0)
(50.2162 12.3594 0)
(50.2208 12.3699 0)
(50.2569 12.362 0)
(49.7875 10.4343 0)
(49.8029 10.5342 0)
(49.8169 10.6291 0)
(49.8298 10.7193 0)
(49.8416 10.8052 0)
(49.8524 10.887 0)
(49.8626 10.965 0)
(49.872 11.0393 0)
(49.8808 11.1102 0)
(49.8892 11.1779 0)
(49.8971 11.2426 0)
(49.9047 11.3043 0)
(49.9119 11.3633 0)
(49.9189 11.4197 0)
(49.9257 11.4737 0)
(49.9324 11.5253 0)
(49.9389 11.5747 0)
(49.9454 11.6219 0)
(49.9518 11.6672 0)
(49.9582 11.7106 0)
(49.9646 11.7521 0)
(49.971 11.7919 0)
(49.9775 11.83 0)
(49.984 11.8665 0)
(49.9907 11.9015 0)
(49.9975 11.935 0)
(50.0045 11.9671 0)
(50.0117 11.9979 0)
(50.0191 12.0273 0)
(50.0267 12.0554 0)
(50.0345 12.0823 0)
(50.0426 12.108 0)
(50.051 12.1326 0)
(50.0597 12.156 0)
(50.0687 12.1782 0)
(50.0781 12.1994 0)
(50.0879 12.2195 0)
(50.098 12.2386 0)
(50.1086 12.2565 0)
(50.1196 12.2735 0)
(50.1312 12.2893 0)
(50.1432 12.304 0)
(50.1563 12.3174 0)
(50.1689 12.3298 0)
(50.1843 12.3409 0)
(50.1957 12.3512 0)
(50.2162 12.3594 0)
(50.2208 12.3698 0)
(50.2569 12.362 0)
(49.7725 10.3289 0)
(49.7893 10.4341 0)
(49.8045 10.534 0)
(49.8183 10.6289 0)
(49.831 10.7192 0)
(49.8426 10.8051 0)
(49.8534 10.8869 0)
(49.8634 10.9649 0)
(49.8727 11.0392 0)
(49.8815 11.1102 0)
(49.8898 11.1779 0)
(49.8976 11.2425 0)
(49.9051 11.3043 0)
(49.9123 11.3633 0)
(49.9193 11.4197 0)
(49.9261 11.4736 0)
(49.9327 11.5252 0)
(49.9392 11.5746 0)
(49.9456 11.6219 0)
(49.952 11.6672 0)
(49.9584 11.7105 0)
(49.9647 11.7521 0)
(49.9711 11.7919 0)
(49.9776 11.83 0)
(49.9841 11.8665 0)