/*--------------------------------*- C++ -*----------------------------------*\
  =========                 |
  \\      /  F ield         | OpenFOAM: The Open Source CFD Toolbox
   \\    /   O peration     | Website:  https://openfoam.org
    \\  /    A nd           | Version:  7
     \\/     M anipulation  |
\*---------------------------------------------------------------------------*/
FoamFile
{
    version     2.0;
    format      ascii;
    class       volScalarField;
    location    "1200";
    object      nut;
}
// * * * * * * * * * * * * * * * * * * * * * * * * * * * * * * * * * * * * * //

dimensions      [0 2 -1 0 0 0 0];

internalField   nonuniform List<scalar> 
23064
(
5.20722e-06
5.20848e-06
5.20722e-06
5.20969e-06
5.20847e-06
5.20721e-06
5.21085e-06
5.20968e-06
5.20847e-06
5.20721e-06
5.21198e-06
5.21084e-06
5.20967e-06
5.20846e-06
5.20721e-06
5.21308e-06
5.21197e-06
5.21083e-06
5.20966e-06
5.20845e-06
5.20721e-06
5.21413e-06
5.21306e-06
5.21196e-06
5.21082e-06
5.20964e-06
5.20844e-06
5.20721e-06
5.21515e-06
5.21412e-06
5.21305e-06
5.21194e-06
5.2108e-06
5.20963e-06
5.20844e-06
5.2072e-06
5.21612e-06
5.21514e-06
5.21411e-06
5.21303e-06
5.21193e-06
5.21079e-06
5.20962e-06
5.20843e-06
5.2072e-06
5.21706e-06
5.21611e-06
5.21512e-06
5.21409e-06
5.21302e-06
5.21191e-06
5.21077e-06
5.20961e-06
5.20842e-06
5.2072e-06
5.21796e-06
5.21705e-06
5.2161e-06
5.21511e-06
5.21407e-06
5.213e-06
5.21189e-06
5.21075e-06
5.20959e-06
5.20841e-06
5.2072e-06
5.21881e-06
5.21795e-06
5.21704e-06
5.21609e-06
5.2151e-06
5.21406e-06
5.21298e-06
5.21187e-06
5.21074e-06
5.20958e-06
5.2084e-06
5.20719e-06
5.21963e-06
5.21881e-06
5.21794e-06
5.21703e-06
5.21608e-06
5.21508e-06
5.21404e-06
5.21297e-06
5.21185e-06
5.21072e-06
5.20956e-06
5.20839e-06
5.20719e-06
5.22041e-06
5.21963e-06
5.2188e-06
5.21793e-06
5.21702e-06
5.21606e-06
5.21506e-06
5.21402e-06
5.21295e-06
5.21184e-06
5.2107e-06
5.20954e-06
5.20838e-06
5.20718e-06
5.22116e-06
5.22041e-06
5.21963e-06
5.2188e-06
5.21792e-06
5.21701e-06
5.21605e-06
5.21505e-06
5.21401e-06
5.21293e-06
5.21181e-06
5.21068e-06
5.20953e-06
5.20836e-06
5.20718e-06
5.22187e-06
5.22116e-06
5.22041e-06
5.21962e-06
5.21879e-06
5.21792e-06
5.217e-06
5.21604e-06
5.21503e-06
5.21399e-06
5.21291e-06
5.21179e-06
5.21066e-06
5.20951e-06
5.20835e-06
5.20718e-06
5.22254e-06
5.22187e-06
5.22116e-06
5.22041e-06
5.21962e-06
5.21878e-06
5.21791e-06
5.21699e-06
5.21602e-06
5.21501e-06
5.21397e-06
5.21288e-06
5.21177e-06
5.21064e-06
5.20949e-06
5.20834e-06
5.20717e-06
5.22318e-06
5.22255e-06
5.22187e-06
5.22116e-06
5.22041e-06
5.21961e-06
5.21878e-06
5.2179e-06
5.21697e-06
5.21601e-06
5.215e-06
5.21395e-06
5.21286e-06
5.21175e-06
5.21061e-06
5.20947e-06
5.20832e-06
5.20717e-06
5.2238e-06
5.22319e-06
5.22255e-06
5.22187e-06
5.22116e-06
5.2204e-06
5.21961e-06
5.21877e-06
5.21789e-06
5.21696e-06
5.21599e-06
5.21498e-06
5.21392e-06
5.21284e-06
5.21172e-06
5.21059e-06
5.20945e-06
5.20831e-06
5.20716e-06
5.22438e-06
5.2238e-06
5.22319e-06
5.22255e-06
5.22187e-06
5.22116e-06
5.2204e-06
5.2196e-06
5.21876e-06
5.21788e-06
5.21695e-06
5.21597e-06
5.21496e-06
5.2139e-06
5.21281e-06
5.21169e-06
5.21056e-06
5.20942e-06
5.20829e-06
5.20716e-06
5.22493e-06
5.22438e-06
5.22381e-06
5.2232e-06
5.22256e-06
5.22188e-06
5.22116e-06
5.2204e-06
5.2196e-06
5.21875e-06
5.21787e-06
5.21693e-06
5.21596e-06
5.21494e-06
5.21388e-06
5.21279e-06
5.21167e-06
5.21053e-06
5.2094e-06
5.20827e-06
5.20715e-06
5.22545e-06
5.22494e-06
5.22439e-06
5.22381e-06
5.2232e-06
5.22256e-06
5.22188e-06
5.22116e-06
5.2204e-06
5.21959e-06
5.21874e-06
5.21785e-06
5.21692e-06
5.21594e-06
5.21491e-06
5.21385e-06
5.21276e-06
5.21164e-06
5.21051e-06
5.20937e-06
5.20826e-06
5.20714e-06
5.22595e-06
5.22546e-06
5.22494e-06
5.2244e-06
5.22382e-06
5.22321e-06
5.22256e-06
5.22188e-06
5.22116e-06
5.22039e-06
5.21959e-06
5.21874e-06
5.21784e-06
5.2169e-06
5.21592e-06
5.21489e-06
5.21383e-06
5.21273e-06
5.21161e-06
5.21047e-06
5.20935e-06
5.20824e-06
5.20714e-06
5.22642e-06
5.22596e-06
5.22547e-06
5.22495e-06
5.22441e-06
5.22383e-06
5.22322e-06
5.22257e-06
5.22188e-06
5.22116e-06
5.22039e-06
5.21958e-06
5.21873e-06
5.21783e-06
5.21689e-06
5.2159e-06
5.21487e-06
5.2138e-06
5.2127e-06
5.21158e-06
5.21044e-06
5.20932e-06
5.20822e-06
5.20713e-06
5.22687e-06
5.22643e-06
5.22597e-06
5.22548e-06
5.22496e-06
5.22441e-06
5.22383e-06
5.22322e-06
5.22257e-06
5.22188e-06
5.22115e-06
5.22039e-06
5.21957e-06
5.21872e-06
5.21782e-06
5.21687e-06
5.21588e-06
5.21485e-06
5.21377e-06
5.21267e-06
5.21154e-06
5.21041e-06
5.20929e-06
5.20819e-06
5.20712e-06
5.22729e-06
5.22688e-06
5.22644e-06
5.22598e-06
5.22549e-06
5.22497e-06
5.22442e-06
5.22384e-06
5.22323e-06
5.22257e-06
5.22188e-06
5.22115e-06
5.22038e-06
5.21957e-06
5.21871e-06
5.2178e-06
5.21685e-06
5.21586e-06
5.21482e-06
5.21374e-06
5.21264e-06
5.21151e-06
5.21037e-06
5.20926e-06
5.20817e-06
5.20711e-06
5.22769e-06
5.2273e-06
5.22689e-06
5.22645e-06
5.22599e-06
5.2255e-06
5.22498e-06
5.22443e-06
5.22385e-06
5.22323e-06
5.22258e-06
5.22189e-06
5.22115e-06
5.22038e-06
5.21956e-06
5.2187e-06
5.21779e-06
5.21684e-06
5.21584e-06
5.21479e-06
5.21371e-06
5.2126e-06
5.21147e-06
5.21034e-06
5.20922e-06
5.20814e-06
5.2071e-06
5.22807e-06
5.22771e-06
5.22732e-06
5.2269e-06
5.22647e-06
5.226e-06
5.22551e-06
5.22499e-06
5.22444e-06
5.22386e-06
5.22324e-06
5.22258e-06
5.22189e-06
5.22115e-06
5.22038e-06
5.21955e-06
5.21869e-06
5.21778e-06
5.21682e-06
5.21581e-06
5.21477e-06
5.21368e-06
5.21257e-06
5.21143e-06
5.2103e-06
5.20919e-06
5.20812e-06
5.20709e-06
5.22844e-06
5.22809e-06
5.22772e-06
5.22733e-06
5.22692e-06
5.22648e-06
5.22601e-06
5.22552e-06
5.225e-06
5.22445e-06
5.22386e-06
5.22324e-06
5.22259e-06
5.22189e-06
5.22115e-06
5.22037e-06
5.21955e-06
5.21868e-06
5.21776e-06
5.2168e-06
5.21579e-06
5.21474e-06
5.21365e-06
5.21253e-06
5.21139e-06
5.21026e-06
5.20915e-06
5.20809e-06
5.20708e-06
5.22878e-06
5.22845e-06
5.2281e-06
5.22773e-06
5.22734e-06
5.22693e-06
5.22649e-06
5.22603e-06
5.22553e-06
5.22501e-06
5.22446e-06
5.22387e-06
5.22325e-06
5.22259e-06
5.22189e-06
5.22115e-06
5.22037e-06
5.21954e-06
5.21867e-06
5.21775e-06
5.21678e-06
5.21577e-06
5.21471e-06
5.21361e-06
5.21249e-06
5.21135e-06
5.21021e-06
5.20911e-06
5.20806e-06
5.20707e-06
5.2291e-06
5.22879e-06
5.22846e-06
5.22811e-06
5.22775e-06
5.22736e-06
5.22694e-06
5.2265e-06
5.22604e-06
5.22554e-06
5.22502e-06
5.22447e-06
5.22388e-06
5.22326e-06
5.22259e-06
5.22189e-06
5.22115e-06
5.22036e-06
5.21953e-06
5.21865e-06
5.21773e-06
5.21676e-06
5.21574e-06
5.21468e-06
5.21358e-06
5.21245e-06
5.21131e-06
5.21017e-06
5.20907e-06
5.20803e-06
5.20706e-06
0.000270454
5.22941e-06
5.22911e-06
5.2288e-06
5.22848e-06
5.22813e-06
5.22776e-06
5.22737e-06
5.22696e-06
5.22652e-06
5.22605e-06
5.22556e-06
5.22503e-06
5.22448e-06
5.22389e-06
5.22326e-06
5.2226e-06
5.22189e-06
5.22115e-06
5.22036e-06
5.21952e-06
5.21864e-06
5.21771e-06
5.21674e-06
5.21571e-06
5.21465e-06
5.21354e-06
5.21241e-06
5.21126e-06
5.21012e-06
5.20902e-06
5.20799e-06
5.20704e-06
0.000288439
0.000273985
5.22969e-06
5.22942e-06
5.22913e-06
5.22882e-06
5.22849e-06
5.22814e-06
5.22777e-06
5.22738e-06
5.22697e-06
5.22653e-06
5.22606e-06
5.22557e-06
5.22504e-06
5.22449e-06
5.2239e-06
5.22327e-06
5.2226e-06
5.2219e-06
5.22115e-06
5.22036e-06
5.21952e-06
5.21863e-06
5.2177e-06
5.21672e-06
5.21569e-06
5.21461e-06
5.2135e-06
5.21236e-06
5.21121e-06
5.21007e-06
5.20898e-06
5.20796e-06
5.20703e-06
0.000532238
0.00029024
0.00027748
5.22997e-06
5.22971e-06
5.22943e-06
5.22914e-06
5.22883e-06
5.2285e-06
5.22816e-06
5.22779e-06
5.2274e-06
5.22698e-06
5.22654e-06
5.22608e-06
5.22558e-06
5.22506e-06
5.2245e-06
5.2239e-06
5.22328e-06
5.22261e-06
5.2219e-06
5.22115e-06
5.22035e-06
5.21951e-06
5.21862e-06
5.21768e-06
5.21669e-06
5.21566e-06
5.21458e-06
5.21346e-06
5.21232e-06
5.21116e-06
5.21002e-06
5.20893e-06
5.20792e-06
5.20701e-06
0.000772841
0.000535224
0.000292073
0.00028104
5.23023e-06
5.22998e-06
5.22972e-06
5.22945e-06
5.22916e-06
5.22885e-06
5.22852e-06
5.22817e-06
5.2278e-06
5.22741e-06
5.227e-06
5.22656e-06
5.22609e-06
5.22559e-06
5.22507e-06
5.22451e-06
5.22391e-06
5.22328e-06
5.22261e-06
5.2219e-06
5.22115e-06
5.22035e-06
5.2195e-06
5.21861e-06
5.21766e-06
5.21667e-06
5.21563e-06
5.21454e-06
5.21342e-06
5.21227e-06
5.21111e-06
5.20996e-06
5.20887e-06
5.20787e-06
5.20699e-06
0.00101301
0.000776282
0.000538259
0.000293874
0.000284616
5.23047e-06
5.23024e-06
5.22999e-06
5.22974e-06
5.22946e-06
5.22917e-06
5.22886e-06
5.22853e-06
5.22819e-06
5.22782e-06
5.22743e-06
5.22701e-06
5.22657e-06
5.2261e-06
5.22561e-06
5.22508e-06
5.22452e-06
5.22392e-06
5.22329e-06
5.22262e-06
5.2219e-06
5.22115e-06
5.22034e-06
5.21949e-06
5.21859e-06
5.21765e-06
5.21665e-06
5.2156e-06
5.21451e-06
5.21338e-06
5.21222e-06
5.21105e-06
5.2099e-06
5.20882e-06
5.20783e-06
5.20697e-06
0.00124473
0.0010161
0.000779736
0.000541216
0.000295781
0.000288191
5.2307e-06
5.23048e-06
5.23025e-06
5.23001e-06
5.22975e-06
5.22948e-06
5.22919e-06
5.22888e-06
5.22855e-06
5.2282e-06
5.22783e-06
5.22744e-06
5.22703e-06
5.22659e-06
5.22612e-06
5.22562e-06
5.22509e-06
5.22453e-06
5.22393e-06
5.2233e-06
5.22262e-06
5.22191e-06
5.22115e-06
5.22034e-06
5.21948e-06
5.21858e-06
5.21763e-06
5.21662e-06
5.21557e-06
5.21447e-06
5.21333e-06
5.21216e-06
5.21099e-06
5.20984e-06
5.20876e-06
5.20778e-06
5.20695e-06
0.0014637
0.00124673
0.0010192
0.000783234
0.000544381
0.000297709
0.000291839
5.23092e-06
5.23071e-06
5.2305e-06
5.23027e-06
5.23002e-06
5.22977e-06
5.22949e-06
5.2292e-06
5.22889e-06
5.22857e-06
5.22822e-06
5.22785e-06
5.22746e-06
5.22704e-06
5.2266e-06
5.22613e-06
5.22564e-06
5.22511e-06
5.22454e-06
5.22394e-06
5.22331e-06
5.22263e-06
5.22191e-06
5.22114e-06
5.22033e-06
5.21948e-06
5.21857e-06
5.21761e-06
5.2166e-06
5.21554e-06
5.21443e-06
5.21328e-06
5.21211e-06
5.21093e-06
5.20977e-06
5.20869e-06
5.20773e-06
5.20693e-06
0.00166793
0.00146401
0.00124871
0.00102231
0.000786819
0.000547397
0.000299663
0.000295493
5.23112e-06
5.23093e-06
5.23073e-06
5.23051e-06
5.23028e-06
5.23004e-06
5.22978e-06
5.22951e-06
5.22922e-06
5.22891e-06
5.22858e-06
5.22824e-06
5.22787e-06
5.22748e-06
5.22706e-06
5.22662e-06
5.22615e-06
5.22565e-06
5.22512e-06
5.22455e-06
5.22395e-06
5.22331e-06
5.22263e-06
5.22191e-06
5.22114e-06
5.22033e-06
5.21947e-06
5.21855e-06
5.21759e-06
5.21657e-06
5.2155e-06
5.21439e-06
5.21323e-06
5.21205e-06
5.21086e-06
5.20971e-06
5.20862e-06
5.20767e-06
5.2069e-06
0.00185644
0.00166605
0.00146425
0.00125066
0.00102545
0.000790281
0.000550613
0.000301683
0.000299243
5.23132e-06
5.23113e-06
5.23094e-06
5.23074e-06
5.23052e-06
5.23029e-06
5.23005e-06
5.2298e-06
5.22952e-06
5.22923e-06
5.22893e-06
5.2286e-06
5.22825e-06
5.22788e-06
5.22749e-06
5.22708e-06
5.22663e-06
5.22616e-06
5.22566e-06
5.22513e-06
5.22457e-06
5.22396e-06
5.22332e-06
5.22264e-06
5.22192e-06
5.22114e-06
5.22033e-06
5.21946e-06
5.21854e-06
5.21757e-06
5.21655e-06
5.21547e-06
5.21435e-06
5.21318e-06
5.21199e-06
5.21079e-06
5.20963e-06
5.20855e-06
5.20761e-06
5.20688e-06
0.00202856
0.00185192
0.00166405
0.00146442
0.00125257
0.00102849
0.000793878
0.000553806
0.000303632
0.000303017
5.2315e-06
5.23133e-06
5.23115e-06
5.23095e-06
5.23075e-06
5.23054e-06
5.23031e-06
5.23007e-06
5.22981e-06
5.22954e-06
5.22925e-06
5.22894e-06
5.22862e-06
5.22827e-06
5.2279e-06
5.22751e-06
5.22709e-06
5.22665e-06
5.22618e-06
5.22568e-06
5.22515e-06
5.22458e-06
5.22398e-06
5.22333e-06
5.22265e-06
5.22192e-06
5.22114e-06
5.22032e-06
5.21945e-06
5.21853e-06
5.21755e-06
5.21652e-06
5.21543e-06
5.2143e-06
5.21313e-06
5.21193e-06
5.21072e-06
5.20956e-06
5.20848e-06
5.20755e-06
5.20685e-06
0.00218364
0.002021
0.00184725
0.00166193
0.0014645
0.00125437
0.00103158
0.000797459
0.000557015
0.000305795
0.000306838
5.23167e-06
5.23151e-06
5.23134e-06
5.23116e-06
5.23097e-06
5.23077e-06
5.23055e-06
5.23032e-06
5.23008e-06
5.22983e-06
5.22955e-06
5.22927e-06
5.22896e-06
5.22863e-06
5.22829e-06
5.22792e-06
5.22753e-06
5.22711e-06
5.22667e-06
5.2262e-06
5.2257e-06
5.22516e-06
5.22459e-06
5.22399e-06
5.22334e-06
5.22265e-06
5.22192e-06
5.22115e-06
5.22032e-06
5.21944e-06
5.21851e-06
5.21753e-06
5.21649e-06
5.2154e-06
5.21426e-06
5.21307e-06
5.21186e-06
5.21065e-06
5.20947e-06
5.2084e-06
5.20748e-06
5.20682e-06
0.00232097
0.00217267
0.00201326
0.00184241
0.00165966
0.00146442
0.00125614
0.00103459
0.000801112
0.000560458
0.000307924
0.000310778
5.23183e-06
5.23168e-06
5.23152e-06
5.23135e-06
5.23117e-06
5.23098e-06
5.23078e-06
5.23057e-06
5.23034e-06
5.2301e-06
5.22984e-06
5.22957e-06
5.22928e-06
5.22898e-06
5.22865e-06
5.22831e-06
5.22794e-06
5.22755e-06
5.22713e-06
5.22669e-06
5.22622e-06
5.22571e-06
5.22518e-06
5.22461e-06
5.224e-06
5.22335e-06
5.22266e-06
5.22193e-06
5.22115e-06
5.22032e-06
5.21943e-06
5.2185e-06
5.21751e-06
5.21646e-06
5.21536e-06
5.21421e-06
5.21301e-06
5.21179e-06
5.21057e-06
5.20939e-06
5.20831e-06
5.20741e-06
5.20678e-06
0.00243971
0.00230619
0.00216144
0.00200528
0.00183734
0.00165718
0.00146423
0.00125777
0.00103764
0.000804858
0.00056374
0.000310159
0.000314801
5.23198e-06
5.23184e-06
5.23169e-06
5.23153e-06
5.23136e-06
5.23118e-06
5.23099e-06
5.23079e-06
5.23058e-06
5.23035e-06
5.23011e-06
5.22986e-06
5.22959e-06
5.2293e-06
5.22899e-06
5.22867e-06
5.22832e-06
5.22796e-06
5.22756e-06
5.22715e-06
5.22671e-06
5.22623e-06
5.22573e-06
5.22519e-06
5.22462e-06
5.22401e-06
5.22336e-06
5.22267e-06
5.22193e-06
5.22115e-06
5.22031e-06
5.21943e-06
5.21848e-06
5.21749e-06
5.21643e-06
5.21532e-06
5.21416e-06
5.21295e-06
5.21172e-06
5.21049e-06
5.2093e-06
5.20822e-06
5.20733e-06
5.20675e-06
0.00253887
0.00242072
0.00229108
0.0021499
0.00199699
0.001832
0.00165453
0.00146382
0.00125935
0.00104066
0.000808474
0.000567212
0.000312482
0.00031887
5.23212e-06
5.23199e-06
5.23185e-06
5.2317e-06
5.23154e-06
5.23137e-06
5.2312e-06
5.23101e-06
5.23081e-06
5.2306e-06
5.23037e-06
5.23013e-06
5.22988e-06
5.22961e-06
5.22932e-06
5.22901e-06
5.22869e-06
5.22834e-06
5.22798e-06
5.22758e-06
5.22717e-06
5.22672e-06
5.22625e-06
5.22575e-06
5.22521e-06
5.22464e-06
5.22403e-06
5.22337e-06
5.22268e-06
5.22194e-06
5.22115e-06
5.22031e-06
5.21942e-06
5.21847e-06
5.21746e-06
5.2164e-06
5.21528e-06
5.21411e-06
5.21289e-06
5.21165e-06
5.2104e-06
5.2092e-06
5.20812e-06
5.20725e-06
5.20671e-06
0.00261734
0.00251525
0.0024013
0.00227555
0.00213797
0.00198834
0.00182641
0.00165156
0.00146331
0.00126082
0.00104356
0.000812245
0.000570788
0.000314895
0.000323098
5.23226e-06
5.23213e-06
5.232e-06
5.23186e-06
5.23171e-06
5.23155e-06
5.23139e-06
5.23121e-06
5.23102e-06
5.23082e-06
5.23061e-06
5.23039e-06
5.23015e-06
5.22989e-06
5.22962e-06
5.22934e-06
5.22903e-06
5.22871e-06
5.22836e-06
5.228e-06
5.2276e-06
5.22719e-06
5.22674e-06
5.22627e-06
5.22577e-06
5.22523e-06
5.22465e-06
5.22404e-06
5.22339e-06
5.22269e-06
5.22194e-06
5.22115e-06
5.22031e-06
5.21941e-06
5.21846e-06
5.21744e-06
5.21637e-06
5.21524e-06
5.21406e-06
5.21283e-06
5.21157e-06
5.21031e-06
5.2091e-06
5.20802e-06
5.20716e-06
5.20666e-06
0.00267388
0.00258864
0.00249107
0.00238134
0.00225953
0.00212557
0.00197933
0.0018204
0.00164838
0.00146255
0.0012621
0.00104647
0.000816037
0.000574408
0.000317369
0.000327472
5.23238e-06
5.23226e-06
5.23214e-06
5.23201e-06
5.23187e-06
5.23172e-06
5.23156e-06
5.2314e-06
5.23122e-06
5.23104e-06
5.23084e-06
5.23063e-06
5.2304e-06
5.23017e-06
5.22991e-06
5.22964e-06
5.22936e-06
5.22905e-06
5.22873e-06
5.22838e-06
5.22802e-06
5.22763e-06
5.22721e-06
5.22676e-06
5.22629e-06
5.22579e-06
5.22525e-06
5.22467e-06
5.22405e-06
5.2234e-06
5.2227e-06
5.22195e-06
5.22115e-06
5.2203e-06
5.2194e-06
5.21844e-06
5.21742e-06
5.21634e-06
5.2152e-06
5.214e-06
5.21276e-06
5.21149e-06
5.21021e-06
5.209e-06
5.20791e-06
5.20707e-06
5.20663e-06
0.0027071
0.00263963
0.00255925
0.00246624
0.00236077
0.00224291
0.00211267
0.00196979
0.00181403
0.00164486
0.00146151
0.00126327
0.00104931
0.000819793
0.000578038
0.000319952
0.000331875
5.2325e-06
5.23239e-06
5.23227e-06
5.23215e-06
5.23202e-06
5.23188e-06
5.23173e-06
5.23158e-06
5.23141e-06
5.23124e-06
5.23105e-06
5.23085e-06
5.23064e-06
5.23042e-06
5.23018e-06
5.22993e-06
5.22966e-06
5.22938e-06
5.22907e-06
5.22875e-06
5.2284e-06
5.22804e-06
5.22765e-06
5.22723e-06
5.22679e-06
5.22631e-06
5.2258e-06
5.22526e-06
5.22469e-06
5.22407e-06
5.22341e-06
5.22271e-06
5.22196e-06
5.22116e-06
5.2203e-06
5.21939e-06
5.21843e-06
5.2174e-06
5.21631e-06
5.21515e-06
5.21395e-06
5.21269e-06
5.2114e-06
5.21011e-06
5.20888e-06
5.2078e-06
5.20696e-06
5.20663e-06
0.00271547
0.0026668
0.00260454
0.00252905
0.00244062
0.00233945
0.00222564
0.00209911
0.00195976
0.0018072
0.00164092
0.00146024
0.00126424
0.00105203
0.000823603
0.000582037
0.000322665
0.000336425
5.23261e-06
5.2325e-06
5.23239e-06
5.23228e-06
5.23216e-06
5.23203e-06
5.23189e-06
5.23174e-06
5.23159e-06
5.23142e-06
5.23125e-06
5.23107e-06
5.23087e-06
5.23066e-06
5.23044e-06
5.2302e-06
5.22995e-06
5.22968e-06
5.2294e-06
5.22909e-06
5.22877e-06
5.22843e-06
5.22806e-06
5.22767e-06
5.22725e-06
5.22681e-06
5.22633e-06
5.22583e-06
5.22528e-06
5.2247e-06
5.22409e-06
5.22342e-06
5.22272e-06
5.22196e-06
5.22116e-06
5.2203e-06
5.21939e-06
5.21841e-06
5.21737e-06
5.21627e-06
5.21511e-06
5.21389e-06
5.21262e-06
5.21131e-06
5.21001e-06
5.20877e-06
5.20767e-06
5.20689e-06
5.20665e-06
0.00269736
0.00266862
0.00262549
0.00256845
0.00249789
0.0024141
0.00231731
0.00220756
0.0020849
0.0019491
0.00179983
0.00163659
0.00145862
0.00126496
0.0010547
0.000827575
0.000585961
0.000325491
0.000341174
5.23271e-06
5.23261e-06
5.23251e-06
5.2324e-06
5.23229e-06
5.23217e-06
5.23204e-06
5.2319e-06
5.23176e-06
5.2316e-06
5.23144e-06
5.23126e-06
5.23108e-06
5.23088e-06
5.23068e-06
5.23045e-06
5.23022e-06
5.22997e-06
5.2297e-06
5.22942e-06
5.22911e-06
5.22879e-06
5.22845e-06
5.22808e-06
5.22769e-06
5.22727e-06
5.22683e-06
5.22635e-06
5.22585e-06
5.2253e-06
5.22472e-06
5.2241e-06
5.22344e-06
5.22273e-06
5.22197e-06
5.22116e-06
5.2203e-06
5.21938e-06
5.2184e-06
5.21735e-06
5.21624e-06
5.21506e-06
5.21383e-06
5.21254e-06
5.21122e-06
5.2099e-06
5.20864e-06
5.20755e-06
5.20685e-06
5.20669e-06
0.00265099
0.00264338
0.00262052
0.00258296
0.0025312
0.00246562
0.00238655
0.00229418
0.00218864
0.00206989
0.00193773
0.00179188
0.00163176
0.00145661
0.00126549
0.0010573
0.000831405
0.000589904
0.000328477
0.000346092
5.2328e-06
5.23271e-06
5.23262e-06
5.23251e-06
5.23241e-06
5.23229e-06
5.23217e-06
5.23205e-06
5.23191e-06
5.23177e-06
5.23161e-06
5.23145e-06
5.23128e-06
5.2311e-06
5.2309e-06
5.23069e-06
5.23047e-06
5.23024e-06
5.22999e-06
5.22972e-06
5.22944e-06
5.22914e-06
5.22881e-06
5.22847e-06
5.22811e-06
5.22771e-06
5.2273e-06
5.22685e-06
5.22638e-06
5.22587e-06
5.22532e-06
5.22474e-06
5.22412e-06
5.22345e-06
5.22274e-06
5.22198e-06
5.22117e-06
5.2203e-06
5.21937e-06
5.21838e-06
5.21733e-06
5.2162e-06
5.21502e-06
5.21377e-06
5.21247e-06
5.21113e-06
5.20979e-06
5.20851e-06
5.20742e-06
5.20685e-06
5.20675e-06
0.00257451
0.00258931
0.00258792
0.00257099
0.00253906
0.00249264
0.00243212
0.00235783
0.00227
0.00216872
0.00205397
0.0019256
0.00178325
0.00162637
0.00145422
0.00126575
0.00105966
0.000835217
0.000594106
0.000331608
0.000351198
5.23289e-06
5.2328e-06
5.23272e-06
5.23262e-06
5.23252e-06
5.23242e-06
5.2323e-06
5.23218e-06
5.23206e-06
5.23192e-06
5.23178e-06
5.23163e-06
5.23147e-06
5.23129e-06
5.23111e-06
5.23092e-06
5.23071e-06
5.23049e-06
5.23026e-06
5.23001e-06
5.22974e-06
5.22946e-06
5.22916e-06
5.22884e-06
5.22849e-06
5.22813e-06
5.22774e-06
5.22732e-06
5.22688e-06
5.2264e-06
5.22589e-06
5.22535e-06
5.22476e-06
5.22414e-06
5.22347e-06
5.22276e-06
5.22199e-06
5.22117e-06
5.2203e-06
5.21937e-06
5.21837e-06
5.2173e-06
5.21617e-06
5.21497e-06
5.21371e-06
5.21239e-06
5.21103e-06
5.20967e-06
5.20837e-06
5.2073e-06
5.20688e-06
5.20682e-06
0.00246597
0.00250451
0.00252588
0.00253078
0.00251983
0.00249359
0.00245258
0.0023972
0.00232779
0.00224458
0.00214766
0.00203705
0.00191257
0.00177385
0.00162038
0.00145134
0.00126559
0.00106184
0.000839118
0.000598405
0.000334914
0.000356507
5.23297e-06
5.23289e-06
5.23281e-06
5.23272e-06
5.23263e-06
5.23253e-06
5.23242e-06
5.23231e-06
5.23219e-06
5.23207e-06
5.23193e-06
5.23179e-06
5.23164e-06
5.23148e-06
5.23131e-06
5.23113e-06
5.23094e-06
5.23073e-06
5.23051e-06
5.23028e-06
5.23003e-06
5.22976e-06
5.22948e-06
5.22918e-06
5.22886e-06
5.22852e-06
5.22815e-06
5.22776e-06
5.22735e-06
5.2269e-06
5.22643e-06
5.22592e-06
5.22537e-06
5.22478e-06
5.22416e-06
5.22349e-06
5.22277e-06
5.222e-06
5.22118e-06
5.2203e-06
5.21936e-06
5.21835e-06
5.21728e-06
5.21613e-06
5.21492e-06
5.21364e-06
5.2123e-06
5.21092e-06
5.20954e-06
5.20823e-06
5.2072e-06
5.20695e-06
5.2069e-06
0.00232344
0.00238706
0.0024325
0.00246049
0.00247173
0.00246682
0.00244636
0.00241084
0.00236069
0.00229626
0.00221778
0.00212535
0.002019
0.00189852
0.00176361
0.00161369
0.00144787
0.00126508
0.0010639
0.000842968
0.000602827
0.000338407
0.00036199
5.23304e-06
5.23297e-06
5.23289e-06
5.23281e-06
5.23272e-06
5.23263e-06
5.23253e-06
5.23243e-06
5.23232e-06
5.2322e-06
5.23208e-06
5.23194e-06
5.2318e-06
5.23165e-06
5.23149e-06
5.23133e-06
5.23114e-06
5.23095e-06
5.23075e-06
5.23053e-06
5.2303e-06
5.23005e-06
5.22979e-06
5.22951e-06
5.22921e-06
5.22889e-06
5.22854e-06
5.22818e-06
5.22779e-06
5.22737e-06
5.22693e-06
5.22645e-06
5.22594e-06
5.22539e-06
5.22481e-06
5.22418e-06
5.22351e-06
5.22279e-06
5.22201e-06
5.22119e-06
5.2203e-06
5.21935e-06
5.21834e-06
5.21725e-06
5.2161e-06
5.21487e-06
5.21358e-06
5.21222e-06
5.21082e-06
5.20941e-06
5.20808e-06
5.20714e-06
5.20705e-06
5.207e-06
0.00214502
0.00223501
0.00230582
0.00235822
0.00239289
0.00241052
0.00241174
0.00239713
0.0023672
0.0023224
0.00226306
0.00218942
0.00210163
0.00199966
0.00188337
0.0017524
0.00160615
0.0014438
0.0012642
0.0010657
0.000846803
0.000607391
0.000342133
0.000367796
5.23311e-06
5.23304e-06
5.23297e-06
5.2329e-06
5.23281e-06
5.23273e-06
5.23264e-06
5.23254e-06
5.23244e-06
5.23233e-06
5.23221e-06
5.23209e-06
5.23196e-06
5.23182e-06
5.23167e-06
5.23151e-06
5.23134e-06
5.23116e-06
5.23097e-06
5.23077e-06
5.23055e-06
5.23032e-06
5.23007e-06
5.22981e-06
5.22953e-06
5.22923e-06
5.22891e-06
5.22857e-06
5.22821e-06
5.22782e-06
5.2274e-06
5.22695e-06
5.22648e-06
5.22597e-06
5.22542e-06
5.22483e-06
5.2242e-06
5.22352e-06
5.2228e-06
5.22203e-06
5.2212e-06
5.2203e-06
5.21935e-06
5.21833e-06
5.21723e-06
5.21606e-06
5.21482e-06
5.21351e-06
5.21213e-06
5.21071e-06
5.20927e-06
5.20793e-06
5.20711e-06
5.20718e-06
5.2071e-06
0.00192899
0.00204651
0.00214393
0.00222201
0.0022814
0.00232281
0.00234691
0.00235434
0.00234568
0.00232145
0.00228211
0.00222799
0.00215934
0.00207632
0.00197891
0.00186695
0.00174008
0.00159774
0.0014391
0.0012628
0.00106724
0.000850542
0.000612049
0.000346055
0.000373926
5.23317e-06
5.23311e-06
5.23304e-06
5.23297e-06
5.2329e-06
5.23282e-06
5.23273e-06
5.23264e-06
5.23255e-06
5.23245e-06
5.23234e-06
5.23222e-06
5.2321e-06
5.23197e-06
5.23183e-06
5.23168e-06
5.23152e-06
5.23136e-06
5.23118e-06
5.23099e-06
5.23079e-06
5.23057e-06
5.23034e-06
5.23009e-06
5.22983e-06
5.22955e-06
5.22925e-06
5.22894e-06
5.2286e-06
5.22823e-06
5.22784e-06
5.22743e-06
5.22698e-06
5.2265e-06
5.22599e-06
5.22544e-06
5.22485e-06
5.22422e-06
5.22355e-06
5.22282e-06
5.22204e-06
5.2212e-06
5.22031e-06
5.21934e-06
5.21831e-06
5.21721e-06
5.21603e-06
5.21477e-06
5.21344e-06
5.21204e-06
5.21059e-06
5.20913e-06
5.20778e-06
5.20714e-06
5.20733e-06
5.20722e-06
0.00167394
0.00181992
0.00194507
0.00204999
0.00213531
0.00220174
0.00224996
0.00228061
0.00229435
0.00229176
0.00227335
0.00223959
0.00219083
0.00212733
0.00204924
0.00195656
0.00184911
0.00172657
0.00158839
0.00143356
0.00126085
0.00106842
0.000854169
0.000616731
0.000350276
0.000380318
5.23323e-06
5.23317e-06
5.23311e-06
5.23304e-06
5.23297e-06
5.2329e-06
5.23282e-06
5.23274e-06
5.23265e-06
5.23255e-06
5.23245e-06
5.23235e-06
5.23223e-06
5.23211e-06
5.23198e-06
5.23184e-06
5.2317e-06
5.23154e-06
5.23137e-06
5.2312e-06
5.23101e-06
5.23081e-06
5.23059e-06
5.23036e-06
5.23012e-06
5.22986e-06
5.22958e-06
5.22928e-06
5.22896e-06
5.22862e-06
5.22826e-06
5.22787e-06
5.22746e-06
5.22701e-06
5.22653e-06
5.22602e-06
5.22547e-06
5.22488e-06
5.22425e-06
5.22357e-06
5.22284e-06
5.22205e-06
5.22121e-06
5.22031e-06
5.21934e-06
5.2183e-06
5.21719e-06
5.21599e-06
5.21472e-06
5.21337e-06
5.21195e-06
5.21047e-06
5.20897e-06
5.20765e-06
5.2072e-06
5.20751e-06
5.20735e-06
0.00137885
0.00155398
0.00170766
0.00184045
0.00195281
0.00204543
0.00211896
0.00217404
0.00221134
0.0022315
0.00223508
0.00222263
0.0021946
0.00215136
0.00209317
0.00202018
0.00193241
0.0018297
0.00171175
0.00157786
0.00142716
0.00125823
0.00106921
0.000857688
0.000621811
0.000354788
0.000386999
5.23328e-06
5.23323e-06
5.23317e-06
5.23311e-06
5.23304e-06
5.23298e-06
5.2329e-06
5.23283e-06
5.23274e-06
5.23265e-06
5.23256e-06
5.23246e-06
5.23236e-06
5.23224e-06
5.23212e-06
5.23199e-06
5.23186e-06
5.23171e-06
5.23156e-06
5.23139e-06
5.23122e-06
5.23103e-06
5.23083e-06
5.23061e-06
5.23038e-06
5.23014e-06
5.22988e-06
5.2296e-06
5.22931e-06
5.22899e-06
5.22865e-06
5.22829e-06
5.2279e-06
5.22749e-06
5.22704e-06
5.22656e-06
5.22605e-06
5.2255e-06
5.22491e-06
5.22427e-06
5.22359e-06
5.22286e-06
5.22207e-06
5.22123e-06
5.22032e-06
5.21934e-06
5.21829e-06
5.21716e-06
5.21596e-06
5.21467e-06
5.2133e-06
5.21185e-06
5.21035e-06
5.20881e-06
5.20754e-06
5.2073e-06
5.20771e-06
5.20749e-06
0.00104292
0.00124781
0.00143062
0.00159197
0.00173226
0.0018521
0.00195205
0.00203271
0.00209474
0.00213879
0.00216546
0.00217536
0.00216901
0.00214686
0.0021093
0.0020566
0.00198892
0.00190628
0.00180856
0.00169535
0.00156608
0.00141973
0.00125489
0.00106958
0.000861188
0.000626942
0.000359667
0.000394106
5.23333e-06
5.23328e-06
5.23322e-06
5.23317e-06
5.23311e-06
5.23304e-06
5.23298e-06
5.23291e-06
5.23283e-06
5.23275e-06
5.23266e-06
5.23257e-06
5.23247e-06
5.23236e-06
5.23225e-06
5.23213e-06
5.23201e-06
5.23187e-06
5.23173e-06
5.23157e-06
5.23141e-06
5.23123e-06
5.23105e-06
5.23085e-06
5.23063e-06
5.23041e-06
5.23017e-06
5.22991e-06
5.22963e-06
5.22934e-06
5.22902e-06
5.22868e-06
5.22832e-06
5.22793e-06
5.22752e-06
5.22707e-06
5.22659e-06
5.22608e-06
5.22553e-06
5.22493e-06
5.2243e-06
5.22361e-06
5.22288e-06
5.22209e-06
5.22124e-06
5.22032e-06
5.21934e-06
5.21828e-06
5.21714e-06
5.21592e-06
5.21462e-06
5.21322e-06
5.21176e-06
5.21021e-06
5.20865e-06
5.20746e-06
5.20743e-06
5.20793e-06
5.20764e-06
0.000661427
0.000900094
0.00111312
0.00130357
0.00147241
0.00162026
0.00174754
0.0018548
0.00194266
0.00201171
0.00206259
0.00209592
0.00211226
0.00211216
0.00209607
0.00206438
0.00201737
0.00195522
0.00187796
0.00178542
0.00167728
0.00155285
0.00141116
0.00125073
0.00106949
0.000864414
0.000632173
0.000364973
0.000401781
5.23337e-06
5.23332e-06
5.23327e-06
5.23322e-06
5.23317e-06
5.23311e-06
5.23305e-06
5.23298e-06
5.23291e-06
5.23283e-06
5.23275e-06
5.23267e-06
5.23258e-06
5.23248e-06
5.23237e-06
5.23226e-06
5.23214e-06
5.23202e-06
5.23188e-06
5.23174e-06
5.23159e-06
5.23143e-06
5.23125e-06
5.23107e-06
5.23087e-06
5.23066e-06
5.23043e-06
5.23019e-06
5.22993e-06
5.22966e-06
5.22936e-06
5.22905e-06
5.22871e-06
5.22835e-06
5.22796e-06
5.22755e-06
5.2271e-06
5.22662e-06
5.22611e-06
5.22556e-06
5.22496e-06
5.22433e-06
5.22364e-06
5.2229e-06
5.22211e-06
5.22125e-06
5.22033e-06
5.21934e-06
5.21827e-06
5.21712e-06
5.21589e-06
5.21456e-06
5.21315e-06
5.21165e-06
5.21008e-06
5.2085e-06
5.20741e-06
5.2076e-06
5.20817e-06
5.20782e-06
0.00026588
0.000506372
0.000752278
0.000974358
0.00117242
0.00134878
0.00150405
0.00163873
0.00175335
0.00184845
0.00192458
0.00198241
0.00202251
0.00204545
0.00205176
0.0020419
0.00201628
0.00197518
0.00191879
0.00184713
0.00176009
0.00165726
0.00153802
0.00140132
0.00124566
0.00106874
0.000867376
0.000637428
0.000370729
0.000409939
5.2334e-06
5.23336e-06
5.23332e-06
5.23327e-06
5.23322e-06
5.23316e-06
5.23311e-06
5.23305e-06
5.23298e-06
5.23291e-06
5.23284e-06
5.23276e-06
5.23267e-06
5.23258e-06
5.23249e-06
5.23238e-06
5.23227e-06
5.23216e-06
5.23203e-06
5.2319e-06
5.23176e-06
5.23161e-06
5.23144e-06
5.23127e-06
5.23109e-06
5.23089e-06
5.23068e-06
5.23046e-06
5.23022e-06
5.22996e-06
5.22969e-06
5.22939e-06
5.22908e-06
5.22874e-06
5.22838e-06
5.228e-06
5.22758e-06
5.22714e-06
5.22666e-06
5.22614e-06
5.22559e-06
5.22499e-06
5.22435e-06
5.22367e-06
5.22292e-06
5.22213e-06
5.22127e-06
5.22034e-06
5.21934e-06
5.21826e-06
5.2171e-06
5.21585e-06
5.21451e-06
5.21308e-06
5.21155e-06
5.20994e-06
5.20834e-06
5.20741e-06
5.20779e-06
5.20843e-06
5.20801e-06
1.4158e-05
0.000148462
0.000356063
0.000599311
0.000830644
0.00103686
0.00122063
0.00138329
0.00152534
0.00164731
0.00174966
0.00183298
0.00189785
0.00194485
0.00197452
0.00198741
0.00198398
0.00196464
0.00192969
0.00187931
0.00181355
0.00173227
0.00163509
0.00152137
0.00139003
0.00123945
0.00106727
0.000869978
0.000642969
0.000377074
0.000418551
5.23343e-06
5.23339e-06
5.23335e-06
5.23331e-06
5.23326e-06
5.23322e-06
5.23316e-06
5.23311e-06
5.23305e-06
5.23298e-06
5.23291e-06
5.23284e-06
5.23276e-06
5.23268e-06
5.23259e-06
5.23249e-06
5.23239e-06
5.23228e-06
5.23217e-06
5.23205e-06
5.23191e-06
5.23177e-06
5.23162e-06
5.23146e-06
5.23129e-06
5.23111e-06
5.23091e-06
5.2307e-06
5.23048e-06
5.23024e-06
5.22999e-06
5.22971e-06
5.22942e-06
5.22911e-06
5.22877e-06
5.22842e-06
5.22803e-06
5.22761e-06
5.22717e-06
5.22669e-06
5.22618e-06
5.22562e-06
5.22503e-06
5.22438e-06
5.22369e-06
5.22295e-06
5.22215e-06
5.22128e-06
5.22035e-06
5.21934e-06
5.21825e-06
5.21708e-06
5.21582e-06
5.21446e-06
5.213e-06
5.21145e-06
5.20979e-06
5.2082e-06
5.20745e-06
5.20801e-06
5.20871e-06
5.20822e-06
3.13012e-07
1.00076e-06
5.51404e-05
0.000221926
0.000444813
0.000680971
0.000896249
0.00108763
0.0012576
0.001407
0.00153628
0.00164593
0.00173648
0.00180849
0.00186249
0.00189905
0.00191871
0.00192192
0.00190908
0.00188052
0.00183642
0.00177685
0.00170166
0.00161047
0.00150264
0.00137702
0.00123196
0.00106494
0.000872366
0.000648768
0.000384107
0.000427873
5.23345e-06
5.23342e-06
5.23339e-06
5.23335e-06
5.2333e-06
5.23326e-06
5.23321e-06
5.23316e-06
5.23311e-06
5.23305e-06
5.23298e-06
5.23292e-06
5.23284e-06
5.23277e-06
5.23269e-06