/*--------------------------------*- C++ -*----------------------------------*\
  =========                 |
  \\      /  F ield         | OpenFOAM: The Open Source CFD Toolbox
   \\    /   O peration     | Website:  https://openfoam.org
    \\  /    A nd           | Version:  7
     \\/     M anipulation  |
\*---------------------------------------------------------------------------*/
FoamFile
{
    version     2.0;
    format      ascii;
    class       volScalarField;
    location    "1200";
    object      nuTilda;
}
// * * * * * * * * * * * * * * * * * * * * * * * * * * * * * * * * * * * * * //

dimensions      [0 2 -1 0 0 0 0];

internalField   nonuniform List<scalar> 
23064
(
3.43222e-05
3.43246e-05
3.43222e-05
3.43268e-05
3.43245e-05
3.43222e-05
3.4329e-05
3.43268e-05
3.43245e-05
3.43222e-05
3.43311e-05
3.4329e-05
3.43268e-05
3.43245e-05
3.43222e-05
3.43331e-05
3.43311e-05
3.43289e-05
3.43267e-05
3.43245e-05
3.43222e-05
3.43351e-05
3.43331e-05
3.4331e-05
3.43289e-05
3.43267e-05
3.43245e-05
3.43222e-05
3.4337e-05
3.4335e-05
3.43331e-05
3.4331e-05
3.43289e-05
3.43267e-05
3.43245e-05
3.43222e-05
3.43388e-05
3.43369e-05
3.4335e-05
3.4333e-05
3.4331e-05
3.43288e-05
3.43267e-05
3.43245e-05
3.43222e-05
3.43405e-05
3.43387e-05
3.43369e-05
3.4335e-05
3.4333e-05
3.43309e-05
3.43288e-05
3.43267e-05
3.43244e-05
3.43222e-05
3.43422e-05
3.43405e-05
3.43387e-05
3.43369e-05
3.4335e-05
3.4333e-05
3.43309e-05
3.43288e-05
3.43266e-05
3.43244e-05
3.43222e-05
3.43438e-05
3.43422e-05
3.43405e-05
3.43387e-05
3.43369e-05
3.43349e-05
3.43329e-05
3.43309e-05
3.43288e-05
3.43266e-05
3.43244e-05
3.43222e-05
3.43453e-05
3.43438e-05
3.43421e-05
3.43405e-05
3.43387e-05
3.43368e-05
3.43349e-05
3.43329e-05
3.43308e-05
3.43287e-05
3.43266e-05
3.43244e-05
3.43222e-05
3.43467e-05
3.43453e-05
3.43437e-05
3.43421e-05
3.43404e-05
3.43387e-05
3.43368e-05
3.43349e-05
3.43329e-05
3.43308e-05
3.43287e-05
3.43265e-05
3.43244e-05
3.43222e-05
3.43481e-05
3.43467e-05
3.43453e-05
3.43437e-05
3.43421e-05
3.43404e-05
3.43386e-05
3.43368e-05
3.43348e-05
3.43328e-05
3.43308e-05
3.43286e-05
3.43265e-05
3.43243e-05
3.43221e-05
3.43494e-05
3.43481e-05
3.43467e-05
3.43453e-05
3.43437e-05
3.43421e-05
3.43404e-05
3.43386e-05
3.43367e-05
3.43348e-05
3.43328e-05
3.43307e-05
3.43286e-05
3.43265e-05
3.43243e-05
3.43221e-05
3.43507e-05
3.43494e-05
3.43481e-05
3.43467e-05
3.43453e-05
3.43437e-05
3.43421e-05
3.43404e-05
3.43386e-05
3.43367e-05
3.43348e-05
3.43327e-05
3.43307e-05
3.43286e-05
3.43264e-05
3.43243e-05
3.43221e-05
3.43519e-05
3.43507e-05
3.43494e-05
3.43481e-05
3.43467e-05
3.43452e-05
3.43437e-05
3.43421e-05
3.43403e-05
3.43385e-05
3.43367e-05
3.43347e-05
3.43327e-05
3.43306e-05
3.43285e-05
3.43264e-05
3.43243e-05
3.43221e-05
3.4353e-05
3.43519e-05
3.43507e-05
3.43494e-05
3.43481e-05
3.43467e-05
3.43452e-05
3.43437e-05
3.4342e-05
3.43403e-05
3.43385e-05
3.43366e-05
3.43347e-05
3.43327e-05
3.43306e-05
3.43285e-05
3.43264e-05
3.43242e-05
3.43221e-05
3.43541e-05
3.4353e-05
3.43519e-05
3.43507e-05
3.43494e-05
3.43481e-05
3.43467e-05
3.43452e-05
3.43437e-05
3.4342e-05
3.43403e-05
3.43385e-05
3.43366e-05
3.43346e-05
3.43326e-05
3.43305e-05
3.43284e-05
3.43263e-05
3.43242e-05
3.43221e-05
3.43551e-05
3.43541e-05
3.4353e-05
3.43519e-05
3.43507e-05
3.43494e-05
3.43481e-05
3.43467e-05
3.43452e-05
3.43436e-05
3.4342e-05
3.43403e-05
3.43385e-05
3.43366e-05
3.43346e-05
3.43326e-05
3.43305e-05
3.43284e-05
3.43263e-05
3.43242e-05
3.43221e-05
3.43561e-05
3.43551e-05
3.43541e-05
3.4353e-05
3.43519e-05
3.43507e-05
3.43495e-05
3.43481e-05
3.43467e-05
3.43452e-05
3.43436e-05
3.4342e-05
3.43402e-05
3.43384e-05
3.43365e-05
3.43345e-05
3.43325e-05
3.43304e-05
3.43283e-05
3.43262e-05
3.43241e-05
3.43221e-05
3.4357e-05
3.43561e-05
3.43551e-05
3.43541e-05
3.43531e-05
3.43519e-05
3.43507e-05
3.43495e-05
3.43481e-05
3.43467e-05
3.43452e-05
3.43436e-05
3.4342e-05
3.43402e-05
3.43384e-05
3.43365e-05
3.43345e-05
3.43325e-05
3.43304e-05
3.43283e-05
3.43262e-05
3.43241e-05
3.43221e-05
3.43579e-05
3.4357e-05
3.43561e-05
3.43552e-05
3.43541e-05
3.43531e-05
3.43519e-05
3.43507e-05
3.43495e-05
3.43481e-05
3.43467e-05
3.43452e-05
3.43436e-05
3.43419e-05
3.43402e-05
3.43383e-05
3.43364e-05
3.43345e-05
3.43324e-05
3.43303e-05
3.43282e-05
3.43261e-05
3.43241e-05
3.4322e-05
3.43587e-05
3.43579e-05
3.4357e-05
3.43561e-05
3.43552e-05
3.43542e-05
3.43531e-05
3.43519e-05
3.43507e-05
3.43495e-05
3.43481e-05
3.43467e-05
3.43452e-05
3.43436e-05
3.43419e-05
3.43402e-05
3.43383e-05
3.43364e-05
3.43344e-05
3.43323e-05
3.43303e-05
3.43281e-05
3.43261e-05
3.4324e-05
3.4322e-05
3.43595e-05
3.43587e-05
3.43579e-05
3.43571e-05
3.43562e-05
3.43552e-05
3.43542e-05
3.43531e-05
3.4352e-05
3.43507e-05
3.43495e-05
3.43481e-05
3.43467e-05
3.43452e-05
3.43436e-05
3.43419e-05
3.43401e-05
3.43383e-05
3.43363e-05
3.43343e-05
3.43323e-05
3.43302e-05
3.43281e-05
3.4326e-05
3.4324e-05
3.4322e-05
3.43602e-05
3.43595e-05
3.43588e-05
3.43579e-05
3.43571e-05
3.43562e-05
3.43552e-05
3.43542e-05
3.43531e-05
3.4352e-05
3.43508e-05
3.43495e-05
3.43481e-05
3.43467e-05
3.43451e-05
3.43435e-05
3.43419e-05
3.43401e-05
3.43382e-05
3.43363e-05
3.43343e-05
3.43322e-05
3.43301e-05
3.4328e-05
3.43259e-05
3.43239e-05
3.4322e-05
3.4361e-05
3.43603e-05
3.43595e-05
3.43588e-05
3.4358e-05
3.43571e-05
3.43562e-05
3.43552e-05
3.43542e-05
3.43531e-05
3.4352e-05
3.43508e-05
3.43495e-05
3.43481e-05
3.43467e-05
3.43451e-05
3.43435e-05
3.43418e-05
3.43401e-05
3.43382e-05
3.43362e-05
3.43342e-05
3.43322e-05
3.433e-05
3.43279e-05
3.43259e-05
3.43239e-05
3.4322e-05
3.43616e-05
3.4361e-05
3.43603e-05
3.43596e-05
3.43588e-05
3.4358e-05
3.43571e-05
3.43562e-05
3.43553e-05
3.43542e-05
3.43531e-05
3.4352e-05
3.43508e-05
3.43495e-05
3.43481e-05
3.43467e-05
3.43451e-05
3.43435e-05
3.43418e-05
3.434e-05
3.43381e-05
3.43362e-05
3.43342e-05
3.43321e-05
3.433e-05
3.43279e-05
3.43258e-05
3.43238e-05
3.4322e-05
3.43623e-05
3.43617e-05
3.4361e-05
3.43603e-05
3.43596e-05
3.43588e-05
3.4358e-05
3.43572e-05
3.43562e-05
3.43553e-05
3.43542e-05
3.43532e-05
3.4352e-05
3.43508e-05
3.43495e-05
3.43481e-05
3.43466e-05
3.43451e-05
3.43435e-05
3.43418e-05
3.434e-05
3.43381e-05
3.43361e-05
3.43341e-05
3.4332e-05
3.43299e-05
3.43278e-05
3.43257e-05
3.43238e-05
3.43219e-05
3.43629e-05
3.43623e-05
3.43617e-05
3.4361e-05
3.43603e-05
3.43596e-05
3.43589e-05
3.4358e-05
3.43572e-05
3.43563e-05
3.43553e-05
3.43543e-05
3.43532e-05
3.4352e-05
3.43508e-05
3.43495e-05
3.43481e-05
3.43466e-05
3.43451e-05
3.43435e-05
3.43417e-05
3.43399e-05
3.43381e-05
3.43361e-05
3.4334e-05
3.43319e-05
3.43298e-05
3.43277e-05
3.43257e-05
3.43237e-05
3.43219e-05
0.00027344
3.43634e-05
3.43629e-05
3.43623e-05
3.43617e-05
3.43611e-05
3.43604e-05
3.43596e-05
3.43589e-05
3.43581e-05
3.43572e-05
3.43563e-05
3.43553e-05
3.43543e-05
3.43532e-05
3.4352e-05
3.43508e-05
3.43495e-05
3.43481e-05
3.43466e-05
3.43451e-05
3.43434e-05
3.43417e-05
3.43399e-05
3.4338e-05
3.4336e-05
3.4334e-05
3.43319e-05
3.43297e-05
3.43276e-05
3.43256e-05
3.43237e-05
3.43219e-05
0.000291082
0.000276898
3.4364e-05
3.43635e-05
3.43629e-05
3.43623e-05
3.43617e-05
3.43611e-05
3.43604e-05
3.43597e-05
3.43589e-05
3.43581e-05
3.43572e-05
3.43563e-05
3.43553e-05
3.43543e-05
3.43532e-05
3.4352e-05
3.43508e-05
3.43495e-05
3.43481e-05
3.43466e-05
3.43451e-05
3.43434e-05
3.43417e-05
3.43399e-05
3.4338e-05
3.4336e-05
3.43339e-05
3.43318e-05
3.43296e-05
3.43275e-05
3.43255e-05
3.43236e-05
3.43219e-05
0.000533033
0.000292852
0.000280324
3.43645e-05
3.4364e-05
3.43635e-05
3.43629e-05
3.43624e-05
3.43618e-05
3.43611e-05
3.43604e-05
3.43597e-05
3.43589e-05
3.43581e-05
3.43572e-05
3.43563e-05
3.43554e-05
3.43543e-05
3.43532e-05
3.4352e-05
3.43508e-05
3.43495e-05
3.43481e-05
3.43466e-05
3.43451e-05
3.43434e-05
3.43417e-05
3.43398e-05
3.43379e-05
3.43359e-05
3.43338e-05
3.43317e-05
3.43295e-05
3.43274e-05
3.43254e-05
3.43235e-05
3.43218e-05
0.000773219
0.00053601
0.000294654
0.000283815
3.43649e-05
3.43645e-05
3.4364e-05
3.43635e-05
3.4363e-05
3.43624e-05
3.43618e-05
3.43611e-05
3.43605e-05
3.43597e-05
3.4359e-05
3.43581e-05
3.43573e-05
3.43564e-05
3.43554e-05
3.43543e-05
3.43532e-05
3.43521e-05
3.43508e-05
3.43495e-05
3.43481e-05
3.43466e-05
3.4345e-05
3.43434e-05
3.43416e-05
3.43398e-05
3.43378e-05
3.43358e-05
3.43337e-05
3.43316e-05
3.43294e-05
3.43273e-05
3.43253e-05
3.43234e-05
3.43218e-05
0.00101323
0.000776657
0.000539036
0.000296424
0.000287325
3.43654e-05
3.4365e-05
3.43645e-05
3.4364e-05
3.43635e-05
3.4363e-05
3.43624e-05
3.43618e-05
3.43612e-05
3.43605e-05
3.43598e-05
3.4359e-05
3.43582e-05
3.43573e-05
3.43564e-05
3.43554e-05
3.43544e-05
3.43532e-05
3.43521e-05
3.43508e-05
3.43495e-05
3.43481e-05
3.43466e-05
3.4345e-05
3.43434e-05
3.43416e-05
3.43397e-05
3.43378e-05
3.43358e-05
3.43337e-05
3.43315e-05
3.43293e-05
3.43272e-05
3.43252e-05
3.43233e-05
3.43218e-05
0.00124487
0.00101632
0.000780107
0.000541984
0.0002983
0.000290836
3.43658e-05
3.43654e-05
3.4365e-05
3.43645e-05
3.43641e-05
3.43636e-05
3.4363e-05
3.43624e-05
3.43618e-05
3.43612e-05
3.43605e-05
3.43598e-05
3.4359e-05
3.43582e-05
3.43573e-05
3.43564e-05
3.43554e-05
3.43544e-05
3.43533e-05
3.43521e-05
3.43508e-05
3.43495e-05
3.43481e-05
3.43466e-05
3.4345e-05
3.43433e-05
3.43416e-05
3.43397e-05
3.43377e-05
3.43357e-05
3.43336e-05
3.43314e-05
3.43292e-05
3.43271e-05
3.43251e-05
3.43233e-05
3.43217e-05
0.00146381
0.00124688
0.00101942
0.000783602
0.00054514
0.000300196
0.00029442
3.43662e-05
3.43659e-05
3.43655e-05
3.4365e-05
3.43646e-05
3.43641e-05
3.43636e-05
3.4363e-05
3.43625e-05
3.43619e-05
3.43612e-05
3.43605e-05
3.43598e-05
3.4359e-05
3.43582e-05
3.43574e-05
3.43564e-05
3.43554e-05
3.43544e-05
3.43533e-05
3.43521e-05
3.43508e-05
3.43495e-05
3.43481e-05
3.43466e-05
3.4345e-05
3.43433e-05
3.43415e-05
3.43396e-05
3.43377e-05
3.43356e-05
3.43335e-05
3.43313e-05
3.43291e-05
3.4327e-05
3.4325e-05
3.43232e-05
3.43217e-05
0.00166802
0.00146412
0.00124886
0.00102252
0.000787184
0.000548148
0.000302119
0.000298013
3.43666e-05
3.43663e-05
3.43659e-05
3.43655e-05
3.43651e-05
3.43646e-05
3.43641e-05
3.43636e-05
3.43631e-05
3.43625e-05
3.43619e-05
3.43613e-05
3.43606e-05
3.43598e-05
3.43591e-05
3.43583e-05
3.43574e-05
3.43565e-05
3.43555e-05
3.43544e-05
3.43533e-05
3.43521e-05
3.43509e-05
3.43495e-05
3.43481e-05
3.43466e-05
3.4345e-05
3.43433e-05
3.43415e-05
3.43396e-05
3.43376e-05
3.43355e-05
3.43334e-05
3.43312e-05
3.4329e-05
3.43268e-05
3.43248e-05
3.43231e-05
3.43216e-05
0.00185651
0.00166613
0.00146436
0.0012508
0.00102566
0.000790642
0.000551356
0.000304107
0.000301703
3.4367e-05
3.43666e-05
3.43663e-05
3.43659e-05
3.43655e-05
3.43651e-05
3.43646e-05
3.43642e-05
3.43636e-05
3.43631e-05
3.43625e-05
3.43619e-05
3.43613e-05
3.43606e-05
3.43599e-05
3.43591e-05
3.43583e-05
3.43574e-05
3.43565e-05
3.43555e-05
3.43544e-05
3.43533e-05
3.43521e-05
3.43509e-05
3.43495e-05
3.43481e-05
3.43466e-05
3.4345e-05
3.43433e-05
3.43415e-05
3.43395e-05
3.43375e-05
3.43355e-05
3.43333e-05
3.43311e-05
3.43289e-05
3.43267e-05
3.43247e-05
3.4323e-05
3.43216e-05
0.00202862
0.00185198
0.00166413
0.00146452
0.00125272
0.00102871
0.000794237
0.00055454
0.000306026
0.000305419
3.43673e-05
3.4367e-05
3.43667e-05
3.43663e-05
3.43659e-05
3.43655e-05
3.43651e-05
3.43647e-05
3.43642e-05
3.43637e-05
3.43631e-05
3.43626e-05
3.4362e-05
3.43613e-05
3.43606e-05
3.43599e-05
3.43591e-05
3.43583e-05
3.43574e-05
3.43565e-05
3.43555e-05
3.43545e-05
3.43533e-05
3.43522e-05
3.43509e-05
3.43495e-05
3.43481e-05
3.43466e-05
3.43449e-05
3.43432e-05
3.43414e-05
3.43395e-05
3.43375e-05
3.43354e-05
3.43332e-05
3.4331e-05
3.43287e-05
3.43266e-05
3.43246e-05
3.43228e-05
3.43215e-05
0.00218369
0.00202106
0.00184731
0.00166201
0.0014646
0.00125452
0.00103179
0.000797814
0.00055774
0.000308157
0.000309182
3.43676e-05
3.43673e-05
3.4367e-05
3.43667e-05
3.43663e-05
3.4366e-05
3.43656e-05
3.43651e-05
3.43647e-05
3.43642e-05
3.43637e-05
3.43632e-05
3.43626e-05
3.4362e-05
3.43614e-05
3.43607e-05
3.43599e-05
3.43592e-05
3.43583e-05
3.43575e-05
3.43565e-05
3.43555e-05
3.43545e-05
3.43534e-05
3.43522e-05
3.43509e-05
3.43495e-05
3.43481e-05
3.43466e-05
3.43449e-05
3.43432e-05
3.43414e-05
3.43394e-05
3.43374e-05
3.43353e-05
3.43331e-05
3.43308e-05
3.43286e-05
3.43264e-05
3.43244e-05
3.43227e-05
3.43215e-05
0.00232101
0.00217272
0.00201331
0.00184248
0.00165974
0.00146452
0.00125629
0.00103481
0.000801464
0.000561175
0.000310255
0.000313064
3.43679e-05
3.43676e-05
3.43674e-05
3.4367e-05
3.43667e-05
3.43664e-05
3.4366e-05
3.43656e-05
3.43652e-05
3.43647e-05
3.43642e-05
3.43637e-05
3.43632e-05
3.43626e-05
3.4362e-05
3.43614e-05
3.43607e-05
3.436e-05
3.43592e-05
3.43584e-05
3.43575e-05
3.43566e-05
3.43556e-05
3.43545e-05
3.43534e-05
3.43522e-05
3.43509e-05
3.43495e-05
3.43481e-05
3.43466e-05
3.43449e-05
3.43432e-05
3.43413e-05
3.43394e-05
3.43373e-05
3.43352e-05
3.4333e-05
3.43307e-05
3.43284e-05
3.43262e-05
3.43242e-05
3.43226e-05
3.43214e-05
0.00243975
0.00230624
0.00216149
0.00200534
0.00183741
0.00165726
0.00146433
0.00125791
0.00103785
0.000805206
0.000564449
0.000312457
0.000317032
3.43682e-05
3.43679e-05
3.43677e-05
3.43674e-05
3.43671e-05
3.43667e-05
3.43664e-05
3.4366e-05
3.43656e-05
3.43652e-05
3.43647e-05
3.43643e-05
3.43638e-05
3.43632e-05
3.43627e-05
3.43621e-05
3.43614e-05
3.43607e-05
3.436e-05
3.43592e-05
3.43584e-05
3.43575e-05
3.43566e-05
3.43556e-05
3.43545e-05
3.43534e-05
3.43522e-05
3.43509e-05
3.43496e-05
3.43481e-05
3.43465e-05
3.43449e-05
3.43431e-05
3.43413e-05
3.43393e-05
3.43373e-05
3.43351e-05
3.43329e-05
3.43306e-05
3.43283e-05
3.43261e-05
3.43241e-05
3.43224e-05
3.43213e-05
0.00253891
0.00242076
0.00229112
0.00214995
0.00199704
0.00183207
0.00165461
0.00146393
0.0012595
0.00104087
0.00080882
0.000567912
0.000314747
0.000321046
3.43685e-05
3.43682e-05
3.4368e-05
3.43677e-05
3.43674e-05
3.43671e-05
3.43668e-05
3.43664e-05
3.4366e-05
3.43656e-05
3.43652e-05
3.43648e-05
3.43643e-05
3.43638e-05
3.43633e-05
3.43627e-05
3.43621e-05
3.43615e-05
3.43608e-05
3.436e-05
3.43593e-05
3.43585e-05
3.43576e-05
3.43566e-05
3.43556e-05
3.43546e-05
3.43534e-05
3.43522e-05
3.43509e-05
3.43496e-05
3.43481e-05
3.43465e-05
3.43449e-05
3.43431e-05
3.43413e-05
3.43393e-05
3.43372e-05
3.4335e-05
3.43328e-05
3.43304e-05
3.43281e-05
3.43259e-05
3.43239e-05
3.43223e-05
3.43213e-05
0.00261738
0.00251529
0.00240133
0.0022756
0.00213802
0.0019884
0.00182648
0.00165164
0.00146341
0.00126096
0.00104376
0.000812587
0.000571479
0.000317126
0.00032522
3.43687e-05
3.43685e-05
3.43682e-05
3.4368e-05
3.43677e-05
3.43674e-05
3.43671e-05
3.43668e-05
3.43664e-05
3.43661e-05
3.43657e-05
3.43652e-05
3.43648e-05
3.43643e-05
3.43638e-05
3.43633e-05
3.43627e-05
3.43621e-05
3.43615e-05
3.43608e-05
3.43601e-05
3.43593e-05
3.43585e-05
3.43576e-05
3.43567e-05
3.43557e-05
3.43546e-05
3.43535e-05
3.43523e-05
3.4351e-05
3.43496e-05
3.43481e-05
3.43465e-05
3.43449e-05
3.43431e-05
3.43412e-05
3.43392e-05
3.43371e-05
3.43349e-05
3.43326e-05
3.43303e-05
3.4328e-05
3.43257e-05
3.43237e-05
3.43221e-05
3.43212e-05
0.00267391
0.00258867
0.00249111
0.00238138
0.00225957
0.00212562
0.00197939
0.00182046
0.00164847
0.00146265
0.00126224
0.00104668
0.000816376
0.00057509
0.000319566
0.000329539
3.4369e-05
3.43687e-05
3.43685e-05
3.43683e-05
3.4368e-05
3.43677e-05
3.43674e-05
3.43671e-05
3.43668e-05
3.43665e-05
3.43661e-05
3.43657e-05
3.43653e-05
3.43648e-05
3.43644e-05
3.43639e-05
3.43633e-05
3.43628e-05
3.43622e-05
3.43615e-05
3.43608e-05
3.43601e-05
3.43593e-05
3.43585e-05
3.43576e-05
3.43567e-05
3.43557e-05
3.43546e-05
3.43535e-05
3.43523e-05
3.4351e-05
3.43496e-05
3.43481e-05
3.43465e-05
3.43449e-05
3.43431e-05
3.43412e-05
3.43392e-05
3.4337e-05
3.43348e-05
3.43325e-05
3.43301e-05
3.43278e-05
3.43255e-05
3.43235e-05
3.43219e-05
3.43211e-05
0.00270713
0.00263966
0.00255929
0.00246627
0.00236081
0.00224296
0.00211272
0.00196985
0.0018141
0.00164494
0.00146162
0.00126341
0.00104951
0.000820129
0.000578712
0.000322115
0.000333888
3.43692e-05
3.4369e-05
3.43687e-05
3.43685e-05
3.43683e-05
3.4368e-05
3.43677e-05
3.43675e-05
3.43672e-05
3.43668e-05
3.43665e-05
3.43661e-05
3.43657e-05
3.43653e-05
3.43649e-05
3.43644e-05
3.43639e-05
3.43634e-05
3.43628e-05
3.43622e-05
3.43616e-05
3.43609e-05
3.43602e-05
3.43594e-05
3.43586e-05
3.43577e-05
3.43567e-05
3.43557e-05
3.43547e-05
3.43535e-05
3.43523e-05
3.4351e-05
3.43496e-05
3.43481e-05
3.43465e-05
3.43448e-05
3.4343e-05
3.43411e-05
3.43391e-05
3.4337e-05
3.43347e-05
3.43324e-05
3.433e-05
3.43276e-05
3.43253e-05
3.43233e-05
3.43217e-05
3.43211e-05
0.0027155
0.00266684
0.00260457
0.00252908
0.00244066
0.00233949
0.00222569
0.00209916
0.00195982
0.00180727
0.00164101
0.00146035
0.00126438
0.00105223
0.000823936
0.000582703
0.000324793
0.000338386
3.43694e-05
3.43692e-05
3.4369e-05
3.43688e-05
3.43685e-05
3.43683e-05
3.4368e-05
3.43678e-05
3.43675e-05
3.43672e-05
3.43669e-05
3.43665e-05
3.43661e-05
3.43658e-05
3.43653e-05
3.43649e-05
3.43644e-05
3.43639e-05
3.43634e-05
3.43628e-05
3.43622e-05
3.43616e-05
3.43609e-05
3.43602e-05
3.43594e-05
3.43586e-05
3.43577e-05
3.43568e-05
3.43558e-05
3.43547e-05
3.43536e-05
3.43523e-05
3.4351e-05
3.43496e-05
3.43481e-05
3.43465e-05
3.43448e-05
3.4343e-05
3.43411e-05
3.4339e-05
3.43369e-05
3.43346e-05
3.43322e-05
3.43298e-05
3.43274e-05
3.43251e-05
3.43231e-05
3.43216e-05
3.43212e-05
0.00269739
0.00266865
0.00262552
0.00256848
0.00249792
0.00241414
0.00231735
0.00220761
0.00208495
0.00194916
0.0017999
0.00163668
0.00145873
0.0012651
0.0010549
0.000827905
0.000586618
0.000327584
0.000343082
3.43696e-05
3.43694e-05
3.43692e-05
3.4369e-05
3.43688e-05
3.43686e-05
3.43683e-05
3.43681e-05
3.43678e-05
3.43675e-05
3.43672e-05
3.43669e-05
3.43665e-05
3.43662e-05
3.43658e-05
3.43654e-05
3.43649e-05
3.43645e-05
3.4364e-05
3.43634e-05
3.43629e-05
3.43623e-05
3.43617e-05
3.4361e-05
3.43602e-05
3.43595e-05
3.43586e-05
3.43578e-05
3.43568e-05
3.43558e-05
3.43547e-05
3.43536e-05
3.43524e-05
3.4351e-05
3.43496e-05
3.43481e-05
3.43465e-05
3.43448e-05
3.4343e-05
3.4341e-05
3.4339e-05
3.43368e-05
3.43345e-05
3.43321e-05
3.43297e-05
3.43272e-05
3.43249e-05
3.43228e-05
3.43215e-05
3.43212e-05
0.00265103
0.00264341
0.00262055
0.002583
0.00253124
0.00246566
0.00238659
0.00229423
0.00218869
0.00206994
0.00193779
0.00179195
0.00163185
0.00145672
0.00126563
0.00105751
0.000831732
0.000590551
0.000330533
0.000347948
3.43697e-05
3.43696e-05
3.43694e-05
3.43692e-05
3.4369e-05
3.43688e-05
3.43686e-05
3.43683e-05
3.43681e-05
3.43678e-05
3.43675e-05
3.43672e-05
3.43669e-05
3.43666e-05
3.43662e-05
3.43658e-05
3.43654e-05
3.4365e-05
3.43645e-05
3.4364e-05
3.43635e-05
3.43629e-05
3.43623e-05
3.43617e-05
3.4361e-05
3.43603e-05
3.43595e-05
3.43587e-05
3.43578e-05
3.43569e-05
3.43559e-05
3.43548e-05
3.43536e-05
3.43524e-05
3.43511e-05
3.43496e-05
3.43481e-05
3.43465e-05
3.43448e-05
3.4343e-05
3.4341e-05
3.43389e-05
3.43367e-05
3.43344e-05
3.4332e-05
3.43295e-05
3.4327e-05
3.43246e-05
3.43226e-05
3.43215e-05
3.43213e-05
0.00257454
0.00258934
0.00258796
0.00257102
0.0025391
0.00249267
0.00243216
0.00235787
0.00227004
0.00216877
0.00205402
0.00192566
0.00178332
0.00162645
0.00145433
0.00126589
0.00105986
0.000835541
0.000594744
0.000333626
0.000353002
3.43699e-05
3.43697e-05
3.43696e-05
3.43694e-05
3.43692e-05
3.4369e-05
3.43688e-05
3.43686e-05
3.43684e-05
3.43681e-05
3.43678e-05
3.43676e-05
3.43673e-05
3.43669e-05
3.43666e-05
3.43662e-05
3.43659e-05
3.43654e-05
3.4365e-05
3.43645e-05
3.43641e-05
3.43635e-05
3.4363e-05
3.43624e-05
3.43617e-05
3.43611e-05
3.43603e-05
3.43596e-05
3.43587e-05
3.43578e-05
3.43569e-05
3.43559e-05
3.43548e-05
3.43536e-05
3.43524e-05
3.43511e-05
3.43497e-05
3.43481e-05
3.43465e-05
3.43448e-05
3.43429e-05
3.4341e-05
3.43388e-05
3.43366e-05
3.43343e-05
3.43318e-05
3.43293e-05
3.43268e-05
3.43244e-05
3.43224e-05
3.43216e-05
3.43215e-05
0.00246601
0.00250455
0.00252592
0.00253081
0.00251986
0.00249363
0.00245262
0.00239724
0.00232783
0.00224462
0.00214771
0.00203711
0.00191263
0.00177392
0.00162047
0.00145145
0.00126573
0.00106204
0.000839439
0.000599034
0.000336894
0.000358258
3.437e-05
3.43699e-05
3.43697e-05
3.43696e-05
3.43694e-05
3.43692e-05
3.4369e-05
3.43688e-05
3.43686e-05
3.43684e-05
3.43681e-05
3.43679e-05
3.43676e-05
3.43673e-05
3.4367e-05
3.43666e-05
3.43663e-05
3.43659e-05
3.43655e-05
3.4365e-05
3.43646e-05
3.43641e-05
3.43636e-05
3.4363e-05
3.43624e-05
3.43618e-05
3.43611e-05
3.43604e-05
3.43596e-05
3.43588e-05
3.43579e-05
3.43569e-05
3.43559e-05
3.43548e-05
3.43537e-05
3.43524e-05
3.43511e-05
3.43497e-05
3.43482e-05
3.43465e-05
3.43448e-05
3.43429e-05
3.43409e-05
3.43388e-05
3.43365e-05
3.43342e-05
3.43317e-05
3.43291e-05
3.43265e-05
3.43241e-05
3.43222e-05
3.43217e-05
3.43216e-05
0.00232349
0.0023871
0.00243254
0.00246053
0.00247176
0.00246686
0.00244639
0.00241087
0.00236074
0.00229631
0.00221782
0.0021254
0.00201906
0.00189859
0.00176368
0.00161377
0.00144797
0.00126522
0.0010641
0.000843286
0.000603448
0.000340347
0.00036369
3.43702e-05
3.43701e-05
3.43699e-05
3.43698e-05
3.43696e-05
3.43694e-05
3.43692e-05
3.4369e-05
3.43688e-05
3.43686e-05
3.43684e-05
3.43681e-05
3.43679e-05
3.43676e-05
3.43673e-05
3.4367e-05
3.43667e-05
3.43663e-05
3.43659e-05
3.43655e-05
3.43651e-05
3.43646e-05
3.43641e-05
3.43636e-05
3.43631e-05
3.43625e-05
3.43618e-05
3.43612e-05
3.43604e-05
3.43597e-05
3.43588e-05
3.43579e-05
3.4357e-05
3.4356e-05
3.43549e-05
3.43537e-05
3.43525e-05
3.43511e-05
3.43497e-05
3.43482e-05
3.43465e-05
3.43448e-05
3.43429e-05
3.43409e-05
3.43387e-05
3.43364e-05
3.4334e-05
3.43315e-05
3.43289e-05
3.43263e-05
3.43238e-05
3.43221e-05
3.43219e-05
3.43218e-05
0.00214507
0.00223505
0.00230586
0.00235826
0.00239293
0.00241056
0.00241178
0.00239717
0.00236724
0.00232244
0.0022631
0.00218947
0.00210168
0.00199972
0.00188343
0.00175248
0.00160624
0.00144391
0.00126434
0.0010659
0.000847118
0.000608002
0.000344033
0.000369444
3.43703e-05
3.43702e-05
3.43701e-05
3.43699e-05
3.43698e-05
3.43696e-05
3.43694e-05
3.43693e-05
3.43691e-05
3.43689e-05
3.43686e-05
3.43684e-05
3.43682e-05
3.43679e-05
3.43676e-05
3.43673e-05
3.4367e-05
3.43667e-05
3.43663e-05
3.4366e-05
3.43656e-05
3.43651e-05
3.43647e-05
3.43642e-05
3.43637e-05
3.43631e-05
3.43625e-05
3.43619e-05
3.43612e-05
3.43605e-05
3.43597e-05
3.43589e-05
3.4358e-05
3.4357e-05
3.4356e-05
3.43549e-05
3.43538e-05
3.43525e-05
3.43512e-05
3.43497e-05
3.43482e-05
3.43465e-05
3.43448e-05
3.43429e-05
3.43408e-05
3.43387e-05
3.43363e-05
3.43339e-05
3.43313e-05
3.43287e-05
3.4326e-05
3.43235e-05
3.4322e-05
3.43221e-05
3.4322e-05
0.00192906
0.00204657
0.00214398
0.00222206
0.00228144
0.00232285
0.00234695
0.00235438
0.00234572
0.0023215
0.00228215
0.00222803
0.00215939
0.00207637
0.00197897
0.00186701
0.00174016
0.00159783
0.00143921
0.00126294
0.00106744
0.000850855
0.000612651
0.000347913
0.000375521
3.43704e-05
3.43703e-05
3.43702e-05
3.43701e-05
3.43699e-05
3.43698e-05
3.43696e-05
3.43694e-05
3.43693e-05
3.43691e-05
3.43689e-05
3.43687e-05
3.43684e-05
3.43682e-05
3.43679e-05
3.43677e-05
3.43674e-05
3.43671e-05
3.43667e-05
3.43664e-05
3.4366e-05
3.43656e-05
3.43652e-05
3.43647e-05
3.43642e-05
3.43637e-05
3.43631e-05
3.43626e-05
3.43619e-05
3.43613e-05
3.43605e-05
3.43598e-05
3.43589e-05
3.4358e-05
3.43571e-05
3.43561e-05
3.4355e-05
3.43538e-05
3.43525e-05
3.43512e-05
3.43498e-05
3.43482e-05
3.43465e-05
3.43447e-05
3.43428e-05
3.43408e-05
3.43386e-05
3.43362e-05
3.43338e-05
3.43312e-05
3.43285e-05
3.43258e-05
3.43233e-05
3.43221e-05
3.43224e-05
3.43222e-05
0.00167403
0.00181999
0.00194513
0.00205005
0.00213536
0.00220179
0.00225
0.00228066
0.00229439
0.0022918
0.0022734
0.00223964
0.00219088
0.00212738
0.00204929
0.00195662
0.00184918
0.00172665
0.00158848
0.00143367
0.001261
0.00106862
0.000854479
0.000617324
0.00035209
0.000381861
3.43705e-05
3.43704e-05
3.43703e-05
3.43702e-05
3.43701e-05
3.43699e-05
3.43698e-05
3.43696e-05
3.43695e-05
3.43693e-05
3.43691e-05
3.43689e-05
3.43687e-05
3.43685e-05
3.43682e-05
3.4368e-05
3.43677e-05
3.43674e-05
3.43671e-05
3.43668e-05
3.43664e-05
3.4366e-05
3.43656e-05
3.43652e-05
3.43648e-05
3.43643e-05
3.43637e-05
3.43632e-05
3.43626e-05
3.4362e-05
3.43613e-05
3.43606e-05
3.43598e-05
3.4359e-05
3.43581e-05
3.43571e-05
3.43561e-05
3.4355e-05
3.43538e-05
3.43526e-05
3.43512e-05
3.43498e-05
3.43482e-05
3.43465e-05
3.43447e-05
3.43428e-05
3.43407e-05
3.43385e-05
3.43362e-05
3.43336e-05
3.4331e-05
3.43283e-05
3.43255e-05
3.4323e-05
3.43222e-05
3.43228e-05
3.43225e-05
0.00137897
0.00155407
0.00170774
0.00184051
0.00195287
0.00204549
0.00211901
0.00217409
0.00221139
0.00223154
0.00223513
0.00222268
0.00219465
0.00215141
0.00209322
0.00202024
0.00193248
0.00182977
0.00171182
0.00157795
0.00142727
0.00125838
0.00106941
0.000857995
0.000622394
0.000356558
0.000388491
3.43706e-05
3.43705e-05
3.43704e-05
3.43703e-05
3.43702e-05
3.43701e-05
3.43699e-05
3.43698e-05
3.43696e-05
3.43695e-05
3.43693e-05
3.43691e-05
3.43689e-05
3.43687e-05
3.43685e-05
3.43682e-05
3.4368e-05
3.43677e-05
3.43674e-05
3.43671e-05
3.43668e-05
3.43664e-05
3.43661e-05
3.43657e-05
3.43652e-05
3.43648e-05
3.43643e-05
3.43638e-05
3.43632e-05
3.43627e-05
3.4362e-05
3.43614e-05
3.43606e-05
3.43599e-05
3.4359e-05
3.43581e-05
3.43572e-05
3.43562e-05
3.43551e-05
3.43539e-05
3.43526e-05
3.43513e-05
3.43498e-05
3.43482e-05
3.43466e-05
3.43447e-05
3.43428e-05
3.43407e-05
3.43385e-05
3.43361e-05
3.43335e-05
3.43308e-05
3.4328e-05
3.43252e-05
3.43228e-05
3.43224e-05
3.43231e-05
3.43227e-05
0.00104313
0.00124796
0.00143073
0.00159206
0.00173233
0.00185217
0.00195211
0.00203277
0.00209479
0.00213884
0.00216551
0.00217541
0.00216906
0.00214691
0.00210935
0.00205666
0.00198898
0.00190635
0.00180863
0.00169543
0.00156617
0.00141984
0.00125503
0.00106977
0.000861493
0.000627516
0.00036139
0.000395546
3.43707e-05
3.43706e-05
3.43705e-05
3.43704e-05
3.43703e-05
3.43702e-05
3.43701e-05
3.43699e-05
3.43698e-05
3.43696e-05
3.43695e-05
3.43693e-05
3.43691e-05
3.43689e-05
3.43687e-05
3.43685e-05
3.43683e-05
3.4368e-05
3.43677e-05
3.43675e-05
3.43672e-05
3.43668e-05
3.43665e-05
3.43661e-05
3.43657e-05
3.43653e-05
3.43648e-05
3.43644e-05
3.43638e-05
3.43633e-05
3.43627e-05
3.43621e-05
3.43614e-05
3.43607e-05
3.43599e-05
3.43591e-05
3.43582e-05
3.43573e-05
3.43562e-05
3.43551e-05
3.43539e-05
3.43527e-05
3.43513e-05
3.43498e-05
3.43483e-05
3.43466e-05
3.43447e-05
3.43428e-05
3.43407e-05
3.43384e-05
3.4336e-05
3.43334e-05
3.43306e-05
3.43278e-05
3.43249e-05
3.43227e-05
3.43226e-05
3.43235e-05
3.4323e-05
0.000661953
0.000900376
0.00111331
0.00130371
0.00147251
0.00162035
0.00174761
0.00185487
0.00194272
0.00201177
0.00206264
0.00209597
0.00211231
0.00211222
0.00209612
0.00206443
0.00201743
0.00195528
0.00187802
0.0017855
0.00167736
0.00155294
0.00141127
0.00125088
0.00106969
0.000864717
0.000632738
0.000366647
0.000403166
3.43708e-05
3.43707e-05
3.43706e-05
3.43705e-05
3.43704e-05
3.43703e-05
3.43702e-05
3.43701e-05
3.43699e-05
3.43698e-05
3.43696e-05
3.43695e-05
3.43693e-05
3.43691e-05
3.43689e-05
3.43687e-05
3.43685e-05
3.43683e-05
3.4368e-05
3.43678e-05
3.43675e-05
3.43672e-05
3.43669e-05
3.43665e-05
3.43661e-05
3.43658e-05
3.43653e-05
3.43649e-05
3.43644e-05
3.43639e-05
3.43634e-05
3.43628e-05
3.43621e-05
3.43615e-05
3.43608e-05
3.436e-05
3.43592e-05
3.43583e-05
3.43573e-05
3.43563e-05
3.43552e-05
3.4354e-05
3.43527e-05
3.43513e-05
3.43499e-05
3.43483e-05
3.43466e-05
3.43447e-05
3.43427e-05
3.43406e-05
3.43383e-05
3.43359e-05
3.43332e-05
3.43305e-05
3.43275e-05
3.43246e-05
3.43226e-05
3.43229e-05
3.4324e-05
3.43233e-05
0.000269087
0.000507272
0.000752684
0.000974599
0.00117259
0.0013489
0.00150415
0.00163882
0.00175342
0.00184851
0.00192465
0.00198247
0.00202256
0.0020455
0.00205181
0.00204195
0.00201633
0.00197524
0.00191885
0.0018472
0.00176016
0.00165735
0.00153811
0.00140144
0.00124581
0.00106894
0.000867677
0.000637983
0.000372352
0.000411271
3.43709e-05
3.43708e-05
3.43707e-05
3.43706e-05
3.43705e-05
3.43704e-05
3.43703e-05
3.43702e-05
3.43701e-05
3.43699e-05
3.43698e-05
3.43697e-05
3.43695e-05
3.43693e-05
3.43692e-05
3.4369e-05
3.43688e-05
3.43685e-05
3.43683e-05
3.43681e-05
3.43678e-05
3.43675e-05
3.43672e-05
3.43669e-05
3.43666e-05
3.43662e-05
3.43658e-05
3.43654e-05
3.43649e-05
3.43645e-05
3.43639e-05
3.43634e-05
3.43628e-05
3.43622e-05
3.43615e-05
3.43608e-05
3.436e-05
3.43592e-05
3.43583e-05
3.43574e-05
3.43563e-05
3.43552e-05
3.4354e-05
3.43528e-05
3.43514e-05
3.43499e-05
3.43483e-05
3.43466e-05
3.43447e-05
3.43427e-05
3.43406e-05
3.43383e-05
3.43358e-05
3.43331e-05
3.43303e-05
3.43273e-05
3.43243e-05
3.43226e-05
3.43233e-05
3.43245e-05
3.43237e-05
4.70147e-05
0.000157492
0.000357879
0.000599953
0.000830976
0.00103707
0.00122079
0.00138341
0.00152543
0.0016474
0.00174974
0.00183305
0.00189791
0.00194491
0.00197458
0.00198746
0.00198404
0.0019647
0.00192975
0.00187937
0.00181361
0.00173234
0.00163518
0.00152146
0.00139015
0.0012396
0.00106747
0.000870277
0.000643515
0.000378644
0.00041983
3.43709e-05
3.43708e-05
3.43708e-05
3.43707e-05
3.43706e-05
3.43705e-05
3.43704e-05
3.43703e-05
3.43702e-05
3.43701e-05
3.437e-05
3.43698e-05
3.43697e-05
3.43695e-05
3.43693e-05
3.43692e-05
3.4369e-05
3.43688e-05
3.43686e-05
3.43683e-05
3.43681e-05
3.43678e-05
3.43676e-05
3.43673e-05
3.43669e-05
3.43666e-05
3.43662e-05
3.43658e-05
3.43654e-05
3.4365e-05
3.43645e-05
3.4364e-05
3.43635e-05
3.43629e-05
3.43623e-05
3.43616e-05
3.43609e-05
3.43601e-05
3.43593e-05
3.43584e-05
3.43574e-05
3.43564e-05
3.43553e-05
3.43541e-05
3.43528e-05
3.43514e-05
3.435e-05
3.43483e-05
3.43466e-05
3.43447e-05
3.43427e-05
3.43405e-05
3.43382e-05
3.43357e-05
3.4333e-05
3.43301e-05
3.4327e-05
3.4324e-05
3.43226e-05
3.43237e-05
3.4325e-05
3.43241e-05
1.63115e-05
2.23429e-05
8.05157e-05
0.000226439
0.00044598
0.000681467
0.000896534
0.00108782
0.00125774
0.00140712
0.00153638
0.00164602
0.00173655
0.00180856
0.00186255
0.00189911
0.00191877
0.00192198
0.00190914
0.00188058
0.00183649
0.00177692
0.00170174
0.00161056
0.00150274
0.00137714
0.00123211
0.00106514
0.000872663
0.000649304
0.000385622
0.000429097
3.4371e-05
3.43709e-05
3.43708e-05
3.43708e-05
3.43707e-05
3.43706e-05
3.43705e-05
3.43704e-05
3.43703e-05
3.43702e-05
3.43701e-05
3.437e-05
3.43698e-05
3.43697e-05
3.43695e-05