/*--------------------------------*- C++ -*----------------------------------*\
  =========                 |
  \\      /  F ield         | OpenFOAM: The Open Source CFD Toolbox
   \\    /   O peration     | Website:  https://openfoam.org
    \\  /    A nd           | Version:  7
     \\/     M anipulation  |
\*---------------------------------------------------------------------------*/
FoamFile
{
    version     2.0;
    format      ascii;
    class       volScalarField;
    location    "1200";
    object      p;
}
// * * * * * * * * * * * * * * * * * * * * * * * * * * * * * * * * * * * * * //

dimensions      [0 2 -2 0 0 0 0];

internalField   nonuniform List<scalar> 
23064
(
-6.71036
-6.74594
-7.01173
-6.75338
-7.0423
-7.31225
-6.9695
-7.04436
-7.33697
-7.61206
-7.24584
-7.27078
-7.33329
-7.62986
-7.91112
-7.54792
-7.55717
-7.57048
-7.62014
-7.9208
-8.20923
-7.90329
-7.86846
-7.86709
-7.86859
-7.90468
-8.20958
-8.50617
-8.31385
-8.23491
-8.18754
-8.17553
-8.16482
-8.18677
-8.49599
-8.80178
-8.77302
-8.65808
-8.56521
-8.50523
-8.48224
-8.45912
-8.46627
-8.77991
-9.09625
-9.27971
-9.13084
-9.00115
-8.89425
-8.82133
-8.78721
-8.75137
-8.74298
-9.0611
-9.38923
-9.83428
-9.65229
-9.48758
-9.34297
-9.22179
-9.1357
-9.09017
-9.04129
-9.01677
-9.33942
-9.68066
-10.4362
-10.2229
-10.0239
-9.8432
-9.6834
-9.54767
-9.4481
-9.39092
-9.32892
-9.28743
-9.61452
-9.97039
-11.0849
-10.8419
-10.6106
-10.3945
-10.1975
-10.0224
-9.87182
-9.75847
-9.68947
-9.61391
-9.55477
-9.88635
-10.2582
-11.7804
-11.5089
-11.2468
-10.9973
-10.7639
-10.5505
-10.3597
-10.1941
-10.0667
-9.98561
-9.89633
-9.81868
-10.1546
-10.5443
-12.5228
-12.2239
-11.9322
-11.6508
-11.3829
-11.1319
-10.9019
-10.6952
-10.5144
-10.3726
-10.2791
-10.1758
-10.0789
-10.4191
-10.828
-13.3124
-12.9871
-12.6668
-12.3546
-12.0537
-11.7672
-11.4985
-11.2516
-11.0288
-10.8324
-10.6759
-10.5698
-10.4522
-10.3353
-10.6795
-11.1094
-14.1495
-13.7985
-13.4506
-13.1088
-12.7761
-12.4555
-12.1502
-11.8635
-11.5995
-11.3603
-11.1481
-10.9765
-10.8576
-10.7254
-10.5876
-10.9356
-11.3885
-15.0348
-14.6588
-14.284
-13.9134
-13.5498
-13.1964
-12.8559
-12.5315
-12.2267
-11.9453
-11.6897
-11.4612
-11.2743
-11.1423
-10.9953
-10.8357
-11.1872
-11.6649
-15.9692
-15.5685
-15.1674
-14.7687
-14.3752
-13.9898
-13.6153
-13.2548
-12.9112
-12.588
-12.289
-12.0165
-11.7716
-11.569
-11.4236
-11.2616
-11.0794
-11.4341
-11.9388
-16.9537
-16.5287
-16.1016
-15.6753
-15.2525
-14.836
-14.4284
-14.0328
-13.652
-13.2891
-12.9472
-12.6304
-12.3408
-12.0792
-11.8606
-11.7014
-11.524
-11.3184
-11.6759
-12.2096
-17.9893
-17.5402
-17.0874
-16.6339
-16.1823
-15.7352
-15.2954
-14.8656
-14.4487
-14.0474
-13.6649
-13.3042
-12.9693
-12.6624
-12.3839
-12.1488
-11.9756
-11.7826
-11.5526
-11.9124
-12.4772
-19.0773
-18.6042
-18.126
-17.6454
-17.1652
-16.6881
-16.2166
-15.7534
-15.3012
-14.8627
-14.4408
-14.0384
-13.6587
-13.3055
-12.981
-12.6853
-12.4334
-12.2459
-12.0372
-11.7818
-12.1433
-12.7411
-20.2192
-19.7221
-19.2184
-18.7109
-18.2024
-17.6955
-17.1926
-16.6966
-16.2098
-15.7349
-15.2748
-14.8321
-14.4097
-14.0106
-13.6389
-13.2966
-12.9833
-12.7143
-12.512
-12.2873
-12.0059
-12.3684
-13.002
-21.4164
-20.8953
-20.3661
-19.8318
-19.2949
-18.7583
-18.2244
-17.6957
-17.1749
-16.6643
-16.1667
-15.6847
-15.221
-14.7784
-14.3598
-13.9693
-13.6089
-13.2777
-12.9911
-12.7739
-12.533
-12.2244
-12.5873
-13.259
-22.6707
-22.1255
-21.5707
-21.0093
-20.4441
-19.8778
-19.3128
-18.7518
-18.1971
-17.6513
-17.1169
-16.5963
-16.0923
-15.6074
-15.1443
-14.7061
-14.2966
-13.9177
-13.5683
-13.2639
-13.0312
-12.7739
-12.4373
-12.7998
-13.5122
-23.9838
-23.4142
-22.8336
-22.2451
-21.6513
-21.0553
-20.4592
-19.8658
-19.2774
-18.6967
-18.1258
-17.5673
-17.0236
-16.4973
-15.9911
-15.5074
-15.0493
-14.6204
-14.223
-13.8552
-13.5325
-13.284
-13.01
-12.6444
-13.0056
-13.7612
-25.3576
-24.7634
-24.1567
-23.5408
-22.9183
-22.2921
-21.6648
-21.0389
-20.4169
-19.8012
-19.1941
-18.598
-18.0153
-17.4484
-16.8998
-16.372
-15.8675
-15.3891
-14.9407
-14.5244
-14.1379
-13.7963
-13.5318
-13.2411
-12.8454
-13.2043
-14.0056
-26.7943
-26.1751
-25.542
-24.8982
-24.2468
-23.5903
-22.9314
-22.2728
-21.6169
-20.9661
-20.3228
-19.6893
-19.0679
-18.4609
-17.8705
-17.2994
-16.7498
-16.2243
-15.7255
-15.2574
-14.8218
-14.4162
-14.0556
-13.7746
-13.4669
-13.0403
-13.3956
-14.2454
-28.296
-27.6514
-26.9914
-26.3194
-25.6384
-24.9512
-24.2604
-23.5688
-22.8788
-22.1927
-21.5131
-20.8421
-20.1821
-19.5351
-18.9037
-18.2898
-17.6959
-17.1244
-16.5777
-16.0583
-15.5701
-15.1151
-14.6901
-14.3099
-14.0119
-13.6871
-13.2286
-13.5792
-14.4803
-29.8649
-29.1945
-28.5073
-27.8066
-27.0956
-26.377
-25.654
-24.9288
-24.2042
-23.4825
-22.7663
-22.0576
-21.3589
-20.6722
-19.9997
-19.3436
-18.706
-18.0892
-17.4957
-16.9275
-16.3873
-15.8788
-15.4041
-14.9594
-14.5592
-14.2439
-13.9015
-13.4103
-13.7548
-14.7099
-31.5036
-30.8068
-30.0918
-29.3618
-28.6202
-27.8699
-27.1139
-26.3546
-25.595
-24.8373
-24.084
-23.3374
-22.5996
-21.8729
-21.1594
-20.4612
-19.7804
-19.119
-18.4792
-17.8633
-17.2735
-16.7122
-16.1831
-15.6884
-15.2237
-14.8033
-14.47
-14.1102
-13.5852
-13.9221
-14.9342
-583.885
-33.2146
-32.491
-31.7474
-30.9876
-30.2148
-29.4321
-28.6423
-27.8485
-27.0531
-26.2588
-25.4679
-24.6828
-23.9057
-23.1387
-22.384
-21.6437
-20.9196
-20.2139
-19.5285
-18.8655
-18.2272
-17.6156
-17.033
-16.4831
-15.9681
-15.4831
-15.0417
-14.6902
-14.3127
-13.753
-14.0807
-15.1528
-583.89
-611.379
-35.0008
-34.2496
-33.477
-32.6865
-31.8818
-31.0658
-30.2418
-29.4125
-28.5807
-27.749
-26.9199
-26.0957
-25.2788
-24.471
-23.6748
-22.892
-22.1246
-21.3746
-20.6439
-19.9344
-19.2481
-18.5871
-17.9535
-17.3494
-16.7785
-16.2428
-15.7372
-15.2745
-14.9042
-14.5088
-13.9134
-14.2303
-15.3658
-583.874
-611.38
-639.435
-36.8648
-36.0855
-35.283
-34.4612
-33.6238
-32.774
-31.9146
-31.0492
-30.1801
-29.3102
-28.4421
-27.5782
-26.7206
-25.8715
-25.0332
-24.2075
-23.3965
-22.6021
-21.826
-21.0701
-20.3364
-19.6266
-18.943
-18.2872
-17.6613
-17.069
-16.5125
-15.9859
-15.5015
-15.1118
-14.6983
-14.0665
-14.3704
-15.5722
-583.842
-611.358
-639.431
-668.005
-38.8099
-38.0016
-37.1685
-36.3146
-35.4436
-34.5588
-33.6635
-32.7607
-31.8536
-30.9448
-30.0367
-29.1321
-28.2332
-27.3421
-26.4609
-25.5919
-24.7368
-23.8975
-23.0758
-22.2736
-21.4926
-20.7345
-20.0011
-19.2944
-18.6163
-17.9685
-17.3545
-16.7768
-16.229
-15.7224
-15.3128
-14.8811
-14.2119
-14.5009
-15.7718
-583.806
-611.323
-639.404
-667.993
-697.243
-40.8391
-40.0012
-39.1367
-38.2497
-37.3442
-36.4236
-35.4911
-34.5503
-33.604
-32.6551
-31.7063
-30.76
-29.8187
-28.8847
-27.96
-27.0468
-26.1469
-25.2622
-24.3945
-23.5457
-22.7172
-21.9109
-21.1283
-20.3712
-19.6414
-18.9407
-18.2707
-17.6349
-17.0356
-16.4662
-15.937
-15.5069
-15.0569
-14.3495
-14.6212
-15.9643
-583.764
-611.281
-639.361
-667.962
-697.226
-727.076
-42.9556
-42.0874
-41.1905
-40.2697
-39.3286
-38.3711
-37.4006
-36.4205
-35.434
-34.444
-33.4533
-32.4643
-31.4797
-30.5017
-29.5325
-28.5743
-27.6287
-26.698
-25.7837
-24.8877
-24.0114
-23.1567
-22.3249
-21.5177
-20.7367
-19.9837
-19.2602
-18.5679
-17.9098
-17.2888
-16.6975
-16.145
-15.6939
-15.2255
-14.479
-14.7311
-16.15
-583.717
-611.233
-639.314
-667.916
-697.187
-727.054
-757.662
-45.163
-44.2635
-43.3334
-42.3776
-41.4001
-40.4046
-39.395
-38.3745
-37.3467
-36.3144
-35.2804
-34.2477
-33.2186
-32.1955
-31.1807
-30.1764
-29.1844
-28.2066
-27.2449
-26.301
-25.3765
-24.4728
-23.5917
-22.7344
-21.9025
-21.0976
-20.3211
-19.5747
-18.8597
-18.1792
-17.5361
-16.9225
-16.3464
-15.8737
-15.3866
-14.6003
-14.8302
-16.3283
-583.665
-611.18
-639.259
-667.861
-697.135
-727.008
-757.631
-788.937
-47.4648
-46.5332
-45.569
-44.5772
-43.5621
-42.5276
-41.4776
-40.4156
-39.3449
-38.2691
-37.1908
-36.1128
-35.038
-33.9687
-32.907
-31.8555
-30.8159
-29.7901
-28.7801
-27.7875
-26.8138
-25.8608
-24.9298
-24.0221
-23.1393
-22.2826
-21.4535
-20.6534
-19.8839
-19.146
-18.4429
-17.7773
-17.1411
-16.541
-16.046
-15.54
-14.7133
-14.9182
-16.4985
-583.606
-611.121
-639.199
-667.803
-697.073
-726.95
-757.58
-788.901
-821.045
-49.8649
-48.9001
-47.9008
-46.8721
-45.8183
-44.7435
-43.6518
-42.5469
-41.4323
-40.3115
-39.1874
-38.063
-36.9409
-35.824
-34.7143
-33.6141
-32.5257
-31.4507
-30.3913
-29.349
-28.3254
-27.322
-26.3404
-25.3819
-24.4477
-23.5392
-22.6576
-21.8043
-20.9805
-20.1876
-19.4268
-18.7006
-18.0122
-17.3532
-16.7285
-16.2105
-15.6857
-14.8177
-14.9944
-16.6598
-583.543
-611.056
-639.132
-667.735
-697.005
-726.883
-757.515
-788.844
-820.999
-854.041
-52.3671
-51.3683
-50.3329
-49.266
-48.1722
-47.0559
-45.9212
-44.772
-43.612
-42.4449
-41.2735
-40.1011
-38.9306
-37.7644
-36.6051
-35.4551
-34.3165
-33.191
-32.0809
-30.9876
-29.913
-28.8584
-27.8253
-26.8151
-25.829
-24.8683
-23.9341
-23.0275
-22.1497
-21.3021
-20.4858
-19.7016
-18.9522
-18.2408
-17.5584
-16.9087
-16.367
-15.8232
-14.9133
-15.0588
-16.8129
-583.472
-610.984
-639.058
-667.661
-696.93
-726.808
-757.44
-788.771
-820.936
-853.989
-887.971
-54.9758
-53.9419
-52.8692
-51.7628
-50.6278
-49.4687
-48.2895
-47.0947
-45.8879
-44.6727
-43.4527
-42.2307
-41.0099
-39.7933
-38.5828
-37.3814
-36.1909
-35.0136
-33.8513
-32.7059
-31.5789
-30.4718
-29.3863
-28.3235
-27.2847
-26.271
-25.2836
-24.3236
-23.392
-22.4897
-21.6181
-20.7781
-19.9704
-19.1975
-18.4627
-17.7567
-17.0814
-16.5153
-15.9523
-15.0002
-15.1109
-16.9568
-583.396
-610.906
-638.977
-667.579
-696.846
-726.725
-757.356
-788.689
-820.854
-853.913
-887.908
-922.873
-57.6951
-56.6251
-55.5138
-54.3668
-53.1892
-51.9858
-50.7609
-49.5188
-48.2636
-46.999
-45.7284
-44.4554
-43.1827
-41.9136
-40.6504
-39.396
-38.1521
-36.9213
-35.7053
-34.5062
-33.3255
-32.1647
-31.0254
-29.9088
-28.8162
-27.7488
-26.7076
-25.6935
-24.7077
-23.7509
-22.8241
-21.9282
-21.0644
-20.233
-19.4363
-18.6777
-17.9478
-17.2466
-16.6553
-16.073
-15.078
-15.1503
-17.0903
-583.312
-610.82
-638.888
-667.49
-696.755
-726.634
-757.263
-788.598
-820.765
-853.825
-887.826
-922.802
-958.946
-60.5297
-59.4222
-58.2711
-57.0823
-55.8609
-54.6115
-53.3393
-52.0485
-50.7432
-49.4274
-48.1047
-46.7786
-45.4525
-44.1291
-42.8116
-41.502
-40.2032
-38.9171
-37.6458
-36.3914
-35.1554
-33.9394
-32.7449
-31.5732
-30.4257
-29.3034
-28.2073
-27.1385
-26.0978
-25.086
-24.104
-23.1525
-22.2324
-21.3445
-20.4892
-19.6684
-18.8858
-18.1317
-17.4039
-16.7867
-16.1849
-15.1467
-15.1767
-17.2149
-583.22
-610.725
-638.791
-667.392
-696.654
-726.533
-757.163
-788.497
-820.665
-853.726
-887.729
-922.712
-958.863
-996.186
-63.4841
-62.338
-61.1459
-59.9137
-58.6469
-57.3504
-56.0291
-54.6878
-53.3309
-51.9621
-50.5856
-49.2047
-47.8232
-46.4438
-45.0696
-43.7036
-42.3476
-41.0044
-39.676
-38.3645
-37.0714
-35.7985
-34.5474
-33.3191
-32.1152
-30.9367
-29.7847
-28.6601
-27.5636
-26.4962
-25.4585
-24.4512
-23.4749
-22.5303
-21.6183
-20.7388
-19.8938
-19.0867
-18.308
-17.5533
-16.9093
-16.2878
-15.2062
-15.1895
-17.329
-583.119
-610.622
-638.684
-667.284
-696.546
-726.423
-757.05
-788.384
-820.553
-853.615
-887.62
-922.606
-958.762
-996.093
-1034.7
-66.5634
-65.3773
-64.1429
-62.8659
-61.552
-60.2068
-58.8351
-57.4414
-56.0309
-54.6073
-53.1749
-51.7375
-50.2984
-48.8611
-47.4287
-46.0036
-44.5889
-43.1866
-41.7991
-40.4285
-39.0766
-37.745
-36.4354
-35.149
-33.8872
-32.6511
-31.4417
-30.26
-29.1067
-27.9827
-26.8885
-25.8249
-24.7922
-23.791
-22.8219
-21.8855
-20.9817
-20.112
-19.2803
-18.4766
-17.6945
-17.0229
-16.3815
-15.2562
-15.1886
-17.4311
-583.011
-610.51
-638.569
-667.168
-696.425
-726.303
-756.929
-788.264
-820.433
-853.494
-887.499
-922.487
-958.646
-995.982
-1034.6
-1074.64
-69.7727
-68.5455
-67.267
-65.9438
-64.5814
-63.1854
-61.7614
-60.3138
-58.8477
-57.3675
-55.8775
-54.3812
-52.8826
-51.3856
-49.8924
-48.4065
-46.9305
-45.4673
-44.0187
-42.587
-41.1742
-39.782
-38.412
-37.0657
-35.7442
-34.4488
-33.1805
-31.9403
-30.729
-29.5471
-28.3955
-27.2746
-26.185
-25.1268
-24.1007
-23.1069
-22.146
-21.2177
-20.3232
-19.4663
-18.6374
-17.8274
-17.1273
-16.4658
-15.297
-15.1737
-17.523
-582.891
-610.388
-638.442
-667.039
-696.294
-726.172
-756.795
-788.13
-820.298
-853.361
-887.366
-922.358
-958.517
-995.854
-1034.48
-1074.52
-1116.19
-73.1174
-71.8473
-70.5237
-69.1524
-67.7397
-66.2917
-64.8131
-63.3098
-61.7865
-60.2474
-58.6974
-57.1406
-55.5804
-54.0209
-52.4653
-50.9163
-49.3773
-47.8502
-46.3385
-44.8436
-43.3678
-41.9128
-40.4804
-39.072
-37.689
-36.3326
-35.0037
-33.7033
-32.4323
-31.1914
-29.981
-28.8019
-27.6543
-26.5385
-25.455
-24.4038
-23.3853
-22.3997
-21.4466
-20.527
-19.6447
-18.7901
-17.9518
-17.2223
-16.5404
-15.3281
-15.1442
-17.6035
-582.761
-610.255
-638.305
-666.901
-696.152
-726.029
-756.65
-787.985
-820.154
-853.215
-887.22
-922.212
-958.372
-995.713
-1034.34
-1074.38
-1116.06
-1159.35
-76.6036
-75.2892
-73.9182
-72.4976
-71.0327
-69.5304
-67.9959
-66.4343
-64.8517
-63.252
-61.6399
-60.0201
-58.3962
-56.7721
-55.1512
-53.5371
-51.9323
-50.34
-48.7623
-47.202
-45.6609
-44.1409
-42.644
-41.1715
-39.7248
-38.3053
-36.9139
-35.5516
-34.2193
-32.9175
-31.647
-30.4082
-29.2016
-28.0272
-26.8855
-25.7764
-24.7001
-23.6567
-22.6462
-21.6682
-20.7232
-19.8152
-18.9347
-18.0676
-17.3078
-16.6053
-15.3497
-15.1
-17.6718
-582.619
-610.109
-638.155
-666.748
-695.997
-725.872
-756.492
-787.827
-819.995
-853.056
-887.061
-922.055
-958.215
-995.556
-1034.18
-1074.23
-1115.91
-1159.21
-1204.42
-80.2368
-78.8767
-77.4569
-75.9845
-74.4659
-72.907
-71.3145
-69.6932
-68.0487
-66.386
-64.7099
-63.0246
-61.3344
-59.6438
-57.9554
-56.2734
-54.6007
-52.9401
-51.2945
-49.6662
-48.0574
-46.4702
-44.9062
-43.3674
-41.8548
-40.37
-38.914
-37.4878
-36.0922
-34.728
-33.3956
-32.0957
-30.8285
-29.5943
-28.3933
-27.2255
-26.0909
-24.9894
-23.921
-22.8856
-21.8825
-20.9119
-19.9778
-19.0709
-18.1747
-17.3835
-16.6601
-15.3618
-15.0406
-17.7255
-582.466
-609.952
-637.992
-666.584
-695.828
-725.704
-756.32
-787.654
-819.821
-852.883
-886.887
-921.882
-958.043
-995.384
-1034.01
-1074.07
-1115.75
-1159.05
-1204.25
-1251.51
-84.0234
-82.6157
-81.1452
-79.6194
-78.0445
-76.4278
-74.7746
-73.0914
-71.3831
-69.6549
-67.9123
-66.1593
-64.4006
-62.6403
-60.8824
-59.1301
-57.3866
-55.6556
-53.9393
-52.2405
-50.5612
-48.9043
-47.2709
-45.6633
-44.0825
-42.5301
-41.0074
-39.515
-38.0542
-36.6254
-35.2294
-33.8665
-32.5372
-31.2417
-29.9801
-28.7524
-27.5585
-26.3984
-25.2716
-24.1781
-23.1176
-22.0891
-21.0927
-20.1322
-19.1986
-18.2729
-17.4494
-16.7047
-15.3643
-14.9657
-17.767
-582.299
-609.78
-637.815
-666.404
-695.645
-725.519
-756.133
-787.467
-819.634
-852.694
-886.697
-921.694
-957.854
-995.196
-1033.83
-1073.88
-1115.56
-1158.87
-1204.07
-1251.32
-1300.9
-87.9707
-86.5135
-84.9899
-83.4087
-81.7758
-80.0985
-78.3826
-76.6347
-74.8601
-73.0646
-71.2527
-69.4294
-67.5997
-65.7676
-63.9367
-62.1117
-60.2952
-58.4907
-56.7011
-54.929
-53.1772
-51.4475
-49.7424
-48.0631
-46.4116
-44.7892
-43.197
-41.6364
-40.108
-38.6126
-37.1508
-35.7231
-34.3299
-32.9713
-31.6475
-30.3585
-29.1041
-27.8843
-26.6985
-25.5465
-24.4278
-23.3421
-22.2882
-21.2656
-20.2783
-19.3178
-18.3621
-17.5053
-16.7389
-15.3573
-14.8749
-17.7947
-582.119
-609.594
-637.623
-666.209
-695.446
-725.318
-755.929
-787.262
-819.429
-852.488
-886.491
-921.489
-957.648
-994.991
-1033.62
-1073.68
-1115.36
-1158.66
-1203.87
-1251.12
-1300.69
-1352.78
-92.0855
-90.5759
-88.998
-87.3584
-85.6655
-83.9256
-82.1449
-80.3297
-78.4862
-76.6203
-74.7368
-72.8406
-70.937
-69.0303
-67.1245
-65.2233
-63.3312
-61.4505
-59.5847
-57.7368
-55.9092
-54.1044
-52.3242
-50.5711
-48.8461
-47.1509
-45.4871
-43.8555
-42.257
-40.6927
-39.1629
-37.6682
-36.209
-34.7854
-33.3977
-32.0457
-30.7295
-29.4485
-28.2026
-26.9913
-25.8139
-24.67
-23.5589
-22.4793
-21.4304
-20.416
-19.4282
-18.4422
-17.551
-16.7625
-15.3407
-14.7682
-17.8078
-581.924
-609.393
-637.415
-665.997
-695.229
-725.099
-755.708
-787.04
-819.205
-852.264
-886.267
-921.265
-957.425
-994.767
-1033.4
-1073.45
-1115.14
-1158.45
-1203.66
-1250.91
-1300.47
-1352.55
-1407.49
-96.375
-94.8112
-93.1753
-91.4761
-89.7206
-87.9152
-86.0669
-84.1824
-82.2677
-80.3284
-78.3705
-76.3989
-74.4188
-72.4343
-70.4504
-68.4711
-66.4995
-64.54
-62.5953
-60.6686
-58.7623
-56.879
-55.0215
-53.191
-51.3899
-49.6195
-47.8811
-46.1758
-44.5048
-42.869
-41.2687
-39.7047
-38.1773
-36.6867
-35.233
-33.8162
-32.4362
-31.0927
-29.7852
-28.5134
-27.2765
-26.0737
-24.9044
-23.7679
-22.6625
-21.587
-20.5452
-19.5297
-18.5131
-17.5865
-16.7753
-15.3147
-14.6451
-17.8051
-581.714
-609.175
-637.19
-665.769
-694.995
-724.863
-755.468
-786.799
-818.964
-852.021
-886.023
-921.023
-957.182
-994.524
-1033.16
-1073.21
-1114.89
-1158.2
-1203.41
-1250.67
-1300.24
-1352.3
-1407.23
-1465.27
-100.847
-99.2269
-97.5309
-95.7691
-93.9481
-92.0747
-90.1559
-88.1991
-86.2107
-84.1955
-82.1601
-80.1103
-78.0506
-75.9858
-73.9205
-71.8594
-69.8065
-67.7648
-65.7377
-63.7289
-61.7412
-59.7769
-57.8384
-55.9283
-54.0478
-52.1989
-50.3831
-48.6014
-46.8551
-45.145
-43.4717
-41.8359
-40.2379
-38.6779
-37.1561
-35.6724
-34.2267
-32.8188
-31.4481
-30.1141
-28.8164
-27.5539
-26.3257
-25.131
-23.9689
-22.8375
-21.7353
-20.6658
-19.6223
-18.5748
-17.6117
-16.7771
-15.2794
-14.5054
-17.7871
-581.489
-608.941
-636.947
-665.521
-694.742
-724.607
-755.208
-786.537
-818.702
-851.758
-885.757
-920.759
-956.916
-994.258
-1032.89
-1072.95
-1114.63
-1157.94
-1203.15
-1250.41
-1299.97
-1352.04
-1406.96
-1464.98
-1526.57
-105.509
-103.83
-102.072
-100.245
-98.3555
-96.4113
-94.4194
-92.3874
-90.3216
-88.2281
-86.1123
-83.9808
-81.8383
-79.6904
-77.5408
-75.3951
-73.2567
-71.1301
-69.0179
-66.924
-64.8511
-62.8025
-60.7802
-58.7867
-56.824
-54.8936
-52.9974
-51.1364
-49.3118
-47.5247
-45.7755
-44.0651
-42.3939
-40.7621
-39.1697
-37.6168
-36.1034
-34.6289
-33.1931
-31.7954
-30.4351
-29.1114
-27.8234
-26.5698
-25.3497
-24.1619
-23.0044
-21.8752
-20.7776
-19.7058
-18.6272
-17.6265
-16.7678
-15.2349
-14.3491
-17.753
-581.246
-608.688
-636.686
-665.255
-694.468
-724.329
-754.926
-786.254
-818.417
-851.472
-885.47
-920.472
-956.63
-993.972
-1032.61
-1072.66
-1114.34
-1157.65
-1202.86
-1250.12
-1299.69
-1351.76
-1406.67
-1464.69
-1526.25
-1591.81
-110.372
-108.631
-106.807
-104.911
-102.951
-100.932
-98.8646
-96.7548
-94.6082
-92.4326
-90.2337
-88.0176
-85.7893
-83.5542
-81.3174
-79.0837
-76.857
-74.6413
-72.441
-70.2583
-68.0977
-65.9612
-63.8519
-61.772
-59.7235
-57.7084
-55.7284
-53.7848
-51.8789
-50.0118
-48.1839
-46.3961
-44.649
-42.9425
-41.2771
-39.6525
-38.0688
-36.5257
-35.0226
-33.5591
-32.1345
-30.7479
-29.3984
-28.0848
-26.8058
-25.5602
-24.3466
-23.1629
-22.0066
-20.8807
-19.7802
-18.6702
-17.6309
-16.7472
-15.1814
-14.1761
-17.7027
-580.987
-608.418
-636.405
-664.967
-694.172
-724.029
-754.621
-785.947
-818.108
-851.161
-885.157
-920.16
-956.317
-993.658
-1032.29
-1072.35
-1114.02
-1157.34
-1202.55
-1249.8
-1299.37
-1351.44
-1406.35
-1464.37
-1525.91
-1591.44
-1661.52
-115.443
-113.636
-111.745
-109.777
-107.742
-105.647
-103.499
-101.308
-99.0779
-96.8176
-94.5316
-92.2273
-89.91
-87.5846
-85.257
-82.9314
-80.6132
-78.3058
-76.0129
-73.7387
-71.4861
-69.2587
-67.0586
-64.8887
-62.7512
-60.6483
-58.5811
-56.5519
-54.5613
-52.6107
-50.701
-48.8327
-47.0067
-45.2228
-43.4815
-41.7826
-40.1262
-38.5118
-36.9392
-35.4077
-33.9166
-32.4652
-31.0524
-29.677
-28.338
-27.0336
-25.7625
-24.5231
-23.313
-22.1294
-20.9748
-19.8454
-18.7039
-17.6248
-16.7152
-15.1192
-13.9862
-17.6347
-580.711
-608.129
-636.105
-664.657
-693.855
-723.707
-754.292
-785.615
-817.774
-850.825
-884.82
-919.823
-955.977
-993.32
-1031.95
-1072.01
-1113.68
-1157
-1202.21
-1249.46
-1299.02
-1351.09
-1406.01
-1464.02
-1525.56
-1591.07
-1661.11
-1736.32
-120.732
-118.857
-116.893
-114.851
-112.738
-110.563
-108.333
-106.056
-103.739
-101.39
-99.0139
-96.6171
-94.2071
-91.7884
-89.3661
-86.9455
-84.5315
-82.1284
-79.7402
-77.3704
-75.0229
-72.7004
-70.4063
-68.1427
-65.9128
-63.7178
-61.5604
-59.4417
-57.3632
-55.3259
-53.3311
-51.3792
-49.4709
-47.6066
-45.7865
-44.0104
-42.2784
-40.5903
-38.9455
-37.3436
-35.7838
-34.2653
-32.7873
-31.3483
-29.9473
-28.5828
-27.2531
-25.9564
-24.6911
-23.4546
-22.2435
-21.0601
-19.9013
-18.7281
-17.6084
-16.6716
-15.0486
-13.7791
-17.5482
-580.42
-607.822
-635.784
-664.327
-693.514
-723.36
-753.938
-785.258
-817.413
-850.462
-884.453
-919.456
-955.61
-992.951
-1031.58
-1071.64
-1113.31
-1156.62
-1201.83
-1249.08
-1298.65
-1350.71
-1405.62
-1463.63
-1525.17
-1590.68
-1660.69
-1735.85
-1816.95
-126.251
-124.304
-122.264
-120.143
-117.949
-115.688
-113.372
-111.007
-108.599
-106.157
-103.687
-101.195
-98.6887
-96.1724
-93.6519
-91.1328
-88.6194
-86.1168
-83.629
-81.16
-78.713
-76.2923
-73.9001
-71.5397
-69.213
-66.923
-64.6714
-62.4597
-60.2896
-58.1622
-56.0787
-54.0398
-52.0462
-50.0981
-48.1959
-46.3396
-44.5291
-42.7644
-41.0446
-39.3696
-37.7387
-36.1508
-34.6052
-33.1005
-31.6357
-30.2091
-28.8192
-27.4641
-26.1419
-24.8507
-23.5876
-22.3489
-21.1364
-19.948
-18.743
-17.5816
-16.6163
-14.97
-13.5549
-17.4426
-580.112
-607.498
-635.444
-663.975
-693.151
-722.988
-753.558
-784.873
-817.024
-850.07
-884.059
-919.06
-955.211
-992.552
-1031.18
-1071.24
-1112.91
-1156.22
-1201.43
-1248.68
-1298.23
-1350.3
-1405.2
-1463.21
-1524.75
-1590.25
-1660.25
-1735.38
-1816.41
-1904.11
-132.011
-129.986
-127.867
-125.663
-123.383
-121.035
-118.627
-116.17
-113.667
-111.129
-108.561
-105.97
-103.362
-100.745
-98.1219
-95.4998
-92.8837
-90.2775
-87.6861
-85.1135
-82.5642
-80.0404
-77.5468
-75.0852
-72.6584
-70.269
-67.9196
-65.6113
-63.3458
-61.1245
-58.9489
-56.8194
-54.7366
-52.7013
-50.7139
-48.7741
-46.8819
-45.0374
-43.24
-41.4892
-39.7842
-38.1244
-36.5087
-34.9359
-33.4049
-31.9142
-30.4622
-29.047
-27.6666
-26.3189
-25.0016
-23.7119
-22.4456
-21.2036
-19.9853
-18.7486
-17.5446
-16.5493
-14.8835
-13.3135
-17.3188
-579.778
-607.154
-635.086
-663.602
-692.764
-722.591
-753.151
-784.46
-816.606
-849.648
-883.634
-918.634
-954.782
-992.119
-1030.75
-1070.81
-1112.47
-1155.78
-1200.99
-1248.23
-1297.79
-1349.85
-1404.75
-1462.75
-1524.28
-1589.77
-1659.77
-1734.88
-1815.87
-1903.48
-1998.77
-138.022
-135.917
-133.713
-131.422
-129.051
-126.611
-124.109
-121.554
-118.953
-116.313
-113.643
-110.949
-108.236
-105.513
-102.784
-100.055
-97.3311
-94.6177
-91.9186
-89.2387
-86.5817
-83.9521
-81.352
-78.7855
-76.2545
-73.7621
-71.3106
-68.9017
-66.5368
-64.2179
-61.9461
-59.7222
-57.5471
-55.421
-53.3447
-51.3179
-49.341
-47.4134
-45.535
-43.7053
-41.9234
-40.1888
-38.5004
-36.8569
-35.2574
-33.7002
-32.1838
-30.7064
-29.266
-27.8604
-26.4871
-25.1439
-23.8275
-22.5334
-21.2619
-20.0134
-18.7449
-17.4975
-16.4702
-14.7896
-13.0556
-17.1739
-579.414
-606.777
-634.7
-663.207
-692.355
-722.169
-752.717
-784.019
-816.158
-849.193
-883.176
-918.173
-954.315
-991.651
-1030.28
-1070.34
-1112
-1155.31
-1200.51
-1247.75
-1297.3
-1349.36
-1404.25
-1462.24
-1523.76
-1589.25
-1659.23
-1734.34
-1815.31
-1902.87
-1998.05
-2103.4
-144.298
-142.106
-139.814
-137.43
-134.965
-132.428
-129.826
-127.169
-124.465
-121.72
-118.944
-116.141
-113.32
-110.486
-107.646
-104.806
-101.97
-99.1447
-96.334
-93.5424
-90.7745
-88.0331
-85.3233
-82.6471
-80.0078
-77.408
-74.8505
-72.3366
-69.8685
-67.448
-65.076
-62.7537
-60.4823
-58.2617
-56.0928
-53.9756
-51.9101
-49.8962
-47.9335
-46.0217
-44.1599
-42.3475
-40.5834
-38.8665
-37.1957
-35.5694
-33.9863
-32.4443
-30.9417
-29.4762
-28.0454
-26.6467
-25.2774
-23.9344
-22.6125
-21.3112
-20.0321
-18.7321
-17.4405
-16.3791
-14.6893
-12.7812
-17.0087
-579.031
-606.373
-634.281
-662.78
-691.92
-721.726
-752.259
-783.55
-815.68
-848.707
-882.684
-917.678
-953.816
-991.148
-1029.78
-1069.83
-1111.49
-1154.79
-1199.99
-1247.23
-1296.77
-1348.82
-1403.71
-1461.69
-1523.2
-1588.68
-1658.64
-1733.74
-1814.7
-1902.24
-1997.34
-2102.54
-2220.52
-150.851
-148.569
-146.182
-143.701
-141.137
-138.497
-135.791
-133.027
-130.214
-127.36
-124.472
-121.556
-118.621
-115.673
-112.717
-109.761
-106.809
-103.867
-100.939
-98.0318
-95.1481
-92.2919
-89.4667
-86.6769
-83.9246
-81.2131
-78.5449
-75.9221
-73.3467
-70.8202
-68.3442
-65.9198
-63.5475
-61.2284
-58.9631
-56.7516
-54.594
-52.4901
-50.4396
-48.4422
-46.4973
-44.6038
-42.7609
-40.9676
-39.2226
-37.5246
-35.872
-34.2629
-32.6956
-31.1679
-29.6774
-28.2216
-26.7975
-25.4022
-24.0325
-22.6827
-21.3516
-20.0417
-18.7102
-17.3738
-16.276
-14.5829
-12.4901
-16.8224
-578.634
-605.952
-633.837
-662.32
-691.448
-721.248
-751.773
-783.054
-815.173
-848.19
-882.157
-917.147
-953.278
-990.605
-1029.23
-1069.28
-1110.93
-1154.23
-1199.43
-1246.66
-1296.2
-1348.24
-1403.12
-1461.1
-1522.6
-1588.06
-1658.01
-1733.08
-1814.02
-1901.54
-1996.61
-2101.7
-2219.61
-2294.54
-157.697
-155.318
-152.831
-150.247
-147.577
-144.83
-142.014
-139.138
-136.212
-133.243
-130.238
-127.204
-124.15
-121.083
-118.007
-114.929
-111.856
-108.792
-105.744
-102.715
-99.7104
-96.7342
-93.7899
-90.8809
-88.0118
-85.1841
-82.4011
-79.6648
-76.9774
-74.3406
-71.756
-69.2249
-66.7481
-64.3265
-61.9605
-59.6508
-57.3969
-55.1995
-53.0576
-50.971
-48.9392
-46.9613
-45.0365
-43.1635
-41.3414
-39.5686
-37.8436
-36.1647
-34.5301
-32.9375
-31.3849
-29.8696
-28.3888
-26.9394
-25.5182
-24.1218
-22.7442
-21.3831
-20.0422
-18.6794
-17.2978
-16.1609
-14.4709
-12.1832
-16.614
-578.22
-605.514
-633.376
-661.837
-690.946
-720.732
-751.251
-782.527
-814.637
-847.643
-881.599
-916.58
-952.703
-990.023
-1028.64
-1068.69
-1110.33
-1153.63
-1198.82
-1246.05
-1295.58
-1347.61
-1402.48
-1460.45
-1521.93
-1587.37
-1657.31
-1732.36
-1813.28
-1900.77
-1995.81
-2100.85
-2218.67
-2293.39
-2319.14
-164.849
-162.367
-159.774
-157.082
-154.3
-151.439
-148.508
-145.515
-142.469
-139.378
-136.252
-133.095
-129.917
-126.724
-123.523
-120.319
-117.119
-113.93
-110.755
-107.6
-104.47
-101.369
-98.3001
-95.2684
-92.2764
-89.328
-86.4251
-83.571
-80.767
-78.0155
-75.3178
-72.6756
-70.0896
-67.5613
-65.0907
-62.6783
-60.3245
-58.029
-55.7918
-53.6123
-51.49
-49.4241
-47.4137
-45.4579
-43.5552
-41.7045
-39.9041
-38.1524
-36.4476
-34.7876
-33.17
-31.5927
-30.0526
-28.547
-27.0724
-25.6254
-24.2023
-22.7969
-21.4059
-20.0336
-18.6399
-17.213
-16.0335
-14.3541
-11.8612
-16.3844
-577.789
-605.058
-632.895
-661.335
-690.423
-720.19
-750.691
-781.959
-814.062
-847.061
-881.009
-915.98
-952.091
-989.401
-1028.01
-1068.06
-1109.69
-1152.98
-1198.16
-1245.39
-1294.91
-1346.93
-1401.79
-1459.74
-1521.21
-1586.64
-1656.55
-1731.57
-1812.46
-1899.91
-1994.92
-2099.91
-2217.67
-2292.49
-2317.98
-2343.68
-172.324
-169.733
-167.027
-164.219
-161.32
-158.339
-155.285
-152.169
-148.997
-145.78
-142.525
-139.24
-135.932
-132.608
-129.276
-125.941
-122.609
-119.288
-115.982
-112.696
-109.435
-106.204
-103.006
-99.8455
-96.7265
-93.652
-90.6245
-87.6472
-84.722
-81.8507
-79.0356
-76.2774
-73.5781
-70.9383
-68.3584
-65.8395
-63.3812
-60.9838
-58.6471
-56.3707
-54.154
-51.9964
-49.8968
-47.8543
-45.8678
-43.9358
-42.0567
-40.2291
-38.4511
-36.7205
-35.0353
-33.393
-31.791
-30.2264
-28.6961
-27.1964
-25.7237
-24.274
-22.841
-21.42
-20.0162
-18.5919
-17.1199
-15.8938
-14.2338
-11.525
-16.1296
-577.341
-604.582
-632.394
-660.812
-689.878
-719.624
-750.106
-781.357
-813.447
-846.436
-880.377
-915.345
-951.445
-988.743
-1027.34
-1067.38
-1109
-1152.29
-1197.46
-1244.67
-1294.18
-1346.19
-1401.03
-1458.97
-1520.42
-1585.83
-1655.71
-1730.71
-1811.56
-1898.98
-1993.94
-2098.87
-2216.58
-2291.42
-2317.07
-2342.56
-2368.85
-180.14
-177.431
-174.605
-171.675
-168.65
-165.542
-162.36
-159.113
-155.81
-152.46
-149.071
-145.65
-142.207
-138.747
-135.277
-131.805
-128.336
-124.878
-121.434
-118.012
-114.614
-111.247
-107.915
-104.621
-101.37
-98.1638
-95.0065
-91.9011
-88.8491
-85.8537
-82.9159
-80.0376
-77.2195
-74.4637
-71.7704
-69.1399
-66.5726
-64.0689
-61.6285
-59.251
-56.9359
-54.6824
-52.4898
-50.3571
-48.2829
-46.266
-44.305
-42.398
-40.5435
-38.7392
-36.9832
-35.2731
-33.6063
-31.9799
-30.391
-28.8361
-27.3116
-25.8133
-24.3371
-22.8764
-21.4256
-19.99
-18.5357
-17.0186
-15.7419
-14.1107
-11.1745
-15.8541
-576.875
-604.086
-631.872
-660.266
-689.309
-719.035
-749.497
-780.729
-812.801
-845.773
-879.702
-914.663
-950.756
-988.045
-1026.63
-1066.66
-1108.26
-1151.54
-1196.7
-1243.9
-1293.4
-1345.4
-1400.22
-1458.14
-1519.57
-1584.95
-1654.81
-1729.78
-1810.59
-1897.97
-1992.87
-2097.72
-2215.36
-2290.23
-2316.01
-2341.69
-2367.73
-2393.96
-188.314
-185.48
-182.526
-179.465
-176.308
-173.066
-169.748
-166.363
-162.921
-159.431
-155.901
-152.339
-148.752
-145.149
-141.536
-137.921
-134.31
-130.708
-127.121
-123.556
-120.016
-116.508
-113.036
-109.602
-106.213
-102.871
-99.5787
-96.3397
-93.1565
-90.031
-86.9657
-83.9617
-81.0207
-78.1437
-75.3316
-72.5852
-69.9045
-67.2899
-64.7412
-62.2582
-59.8404
-57.4871
-55.1973
-52.9703
-50.8047
-48.6992
-46.6524
-44.6627
-42.7281
-40.8468
-39.0168
-37.2356
-35.5008
-33.8097
-32.1593
-30.5462
-28.967
-27.4177
-25.894
-24.3914
-22.9033
-21.4229
-19.9553
-18.4713
-16.9105
-15.5779
-13.986
-10.8118
-15.5555
-576.389
-603.57
-631.329
-659.697
-688.716
-718.422
-748.861
-780.074
-812.128
-845.081
-878.992
-913.938
-950.018
-987.298
-1025.88
-1065.89
-1107.48
-1150.75
-1195.89
-1243.08
-1292.56
-1344.54
-1399.34
-1457.24
-1518.65
-1584
-1653.83
-1728.76
-1809.53
-1896.85
-1991.69
-2096.47
-2214.03
-2288.91
-2314.82
-2340.65
-2366.84
-2392.89
-2419.68
-196.866
-193.898
-190.807
-187.608
-184.31
-180.925
-177.462
-173.933
-170.345
-166.707
-163.029
-159.318
-155.582
-151.829
-148.066
-144.301
-140.54
-136.788
-133.053
-129.339
-125.651
-121.995
-118.377
-114.799
-111.266
-107.782
-104.348
-100.971
-97.6506
-94.3904
-91.1921
-88.0575
-84.9878
-81.9849
-79.0493
-76.1817
-73.3827
-70.6524
-67.991
-65.3978
-62.8727
-60.4151
-58.024
-55.6985
-53.4375
-51.2394
-49.1031
-47.0268
-45.0086
-43.0468
-41.1393
-39.2837
-37.4777
-35.7185
-34.0033
-32.329
-30.692
-29.0887
-27.5149
-25.9659
-24.4372
-22.9219
-21.4121
-19.9125
-18.3991
-16.7959
-15.4018
-13.8609
-10.4383
-15.2308
-575.884
-603.033
-630.763
-659.104
-688.097
-717.78
-748.198
-779.391
-811.425
-844.359
-878.251
-913.179
-949.24
-986.505
-1025.07
-1065.08
-1106.66
-1149.91
-1195.03
-1242.2
-1291.66
-1343.62
-1398.4
-1456.27
-1517.66
-1582.98
-1652.77
-1727.65
-1808.38
-1895.64
-1990.41