/*--------------------------------*- C++ -*----------------------------------*\
  =========                 |
  \\      /  F ield         | OpenFOAM: The Open Source CFD Toolbox
   \\    /   O peration     | Website:  https://openfoam.org
    \\  /    A nd           | Version:  7
     \\/     M anipulation  |
\*---------------------------------------------------------------------------*/
FoamFile
{
    version     2.0;
    format      ascii;
    class       surfaceScalarField;
    location    "1200";
    object      phi;
}
// * * * * * * * * * * * * * * * * * * * * * * * * * * * * * * * * * * * * * //

dimensions      [0 3 -1 0 0 0 0];

internalField   nonuniform List<scalar> 
45818
(
0.0756481
0.146615
0.0724775
0.140219
0.0757452
0.149937
0.0694388
0.134105
0.0725681
0.143396
0.0758225
0.153253
0.0665301
0.128259
0.0695278
0.137145
0.0726404
0.146578
0.0758815
0.15656
0.0637343
0.122691
0.0666142
0.131172
0.0696036
0.140182
0.0727112
0.149748
0.0759306
0.159864
0.0610632
0.117337
0.0638354
0.12547
0.0666935
0.134083
0.0696779
0.143215
0.0727687
0.15291
0.0759649
0.163164
0.0585082
0.112231
0.0611729
0.12
0.0639182
0.128245
0.0667713
0.136989
0.0697339
0.14625
0.0728015
0.156074
0.0759759
0.166475
0.0560628
0.107367
0.058598
0.114805
0.0612357
0.122682
0.0639811
0.131035
0.0668124
0.139911
0.0697617
0.14929
0.0728209
0.159229
0.075972
0.169768
0.0537174
0.102713
0.0561535
0.109811
0.0586829
0.117358
0.0613122
0.125351
0.0640357
0.133812
0.066867
0.142805
0.069798
0.152313
0.0728205
0.16238
0.0759583
0.173059
0.0514706
0.0982623
0.0538099
0.105056
0.0562401
0.112254
0.0587629
0.119907
0.0613788
0.128008
0.0640839
0.136595
0.0669019
0.145702
0.0697926
0.155341
0.0727968
0.165542
0.0759297
0.176327
0.0493228
0.0940124
0.0515639
0.100508
0.0538924
0.107404
0.0563093
0.114708
0.0588196
0.122467
0.0614221
0.13067
0.0641138
0.139383
0.0669
0.148594
0.0697992
0.158338
0.072795
0.168677
0.0758646
0.179596
0.0472639
0.0899532
0.0494093
0.096167
0.0516497
0.102751
0.0539697
0.109744
0.0563759
0.117151
0.0588714
0.125017
0.0614605
0.133323
0.0641388
0.142144
0.0669066
0.151487
0.0697607
0.161372
0.0727283
0.171813
0.075793
0.182861
0.0452863
0.086076
0.0473522
0.0920102
0.0494982
0.0983185
0.0517202
0.105001
0.0540295
0.11209
0.0564259
0.119597
0.0589084
0.127569
0.0614656
0.135996
0.0641306
0.14492
0.0668851
0.154362
0.0697342
0.164366
0.0726701
0.174936
0.0756981
0.186104
0.0434027
0.0823632
0.0453778
0.0880505
0.0474343
0.0940741
0.0495682
0.10047
0.0517858
0.107244
0.0540817
0.114434
0.0564624
0.122043
0.0589271
0.130108
0.0614894
0.138638
0.064131
0.147674
0.0668671
0.15723
0.0696795
0.167357
0.0725836
0.17805
0.0755835
0.189353
0.041588
0.0788274
0.043486
0.0842551
0.0454631
0.0900217
0.0475075
0.0961348
0.049637
0.102619
0.0518412
0.109485
0.0541313
0.116765
0.0564959
0.124474
0.0589544
0.132643
0.0614798
0.141289
0.0641031
0.150438
0.0668024
0.160107
0.0696015
0.170339
0.0724908
0.181143
0.075454
0.19258
0.0398586
0.0754372
0.0416781
0.0806353
0.0435681
0.0861501
0.0455331
0.0919962
0.0475781
0.0981937
0.0496905
0.10477
0.051879
0.111737
0.0541558
0.119105
0.0565096
0.126919
0.0589349
0.135188
0.0614604
0.143931
0.0640519
0.153189
0.0667379
0.16297
0.0695087
0.173321
0.0723564
0.184241
0.0753013
0.195793
0.0381969
0.0722101
0.0399392
0.0771761
0.041757
0.0824464
0.0436475
0.0880356
0.0456018
0.0939725
0.0476262
0.100258
0.0497342
0.106915
0.0519206
0.113972
0.054174
0.121441
0.0565145
0.129339
0.0589425
0.137706
0.0614312
0.146552
0.0640093
0.155917
0.066662
0.165817
0.0693962
0.176281
0.0722171
0.187325
0.0751372
0.19898
0.0366042
0.0691211
0.0382793
0.07387
0.0400235
0.0789096
0.0418333
0.0842607
0.0437081
0.0899293
0.045658
0.0959406
0.047683
0.102309
0.0497726
0.109063
0.0519419
0.116204
0.0541833
0.123772
0.0564991
0.131783
0.0588899
0.140247
0.0613738
0.149188
0.0639285
0.158651
0.0665679
0.168645
0.0692787
0.17922
0.0720614
0.190401
0.0749183
0.202171
0.0350832
0.0661636
0.0366883
0.070712
0.0383604
0.0755331
0.0400916
0.0806512
0.0418956
0.0860731
0.0437661
0.0918212
0.045703
0.0979206
0.0477146
0.104367
0.0497985
0.111206
0.0519508
0.118437
0.0541801
0.126091
0.0564825
0.13419
0.0588594
0.142762
0.061298
0.151818
0.0638429
0.161376
0.0664406
0.171483
0.0691231
0.182158
0.0718875
0.193431
0.0747112
0.205331
0.0336263
0.0633479
0.0351614
0.0676905
0.0367663
0.0723061
0.038429
0.0771958
0.0401622
0.0823847
0.0419518
0.0878874
0.0438129
0.0937113
0.0457477
0.0998874
0.0477413
0.106425
0.0498118
0.113345
0.0519471
0.12067
0.054163
0.128411
0.0564471
0.136602
0.0588056
0.145254
0.0612344
0.154427
0.0637241
0.164092
0.0663034
0.174303
0.0689493
0.185096
0.0716755
0.196467
0.074471
0.208478
0.0322247
0.0606538
0.0336999
0.0648094
0.0352398
0.069217
0.0368403
0.0738948
0.0384949
0.0788631
0.0402151
0.0841214
0.0420068
0.0896936
0.0438571
0.0956019
0.0457726
0.101856
0.0477628
0.108474
0.049814
0.115478
0.0519408
0.122892
0.0541285
0.130729
0.0563928
0.139015
0.0587236
0.147765
0.061134
0.157017
0.0636004
0.166795
0.0661465
0.177106
0.0687725
0.187999
0.0714487
0.199489
0.074206
0.211612
0.0308871
0.0580775
0.0322989
0.0620549
0.0337788
0.0662704
0.0353056
0.0707516
0.036898
0.0754917
0.038556
0.0805222
0.0402705
0.0858577
0.0420478
0.0915029
0.0438888
0.0974858
0.0457972
0.103822
0.0477667
0.110521
0.0498059
0.117613
0.0519108
0.12511
0.05409
0.133032
0.056326
0.141413
0.0586412
0.150258
0.0610138
0.159603
0.0634704
0.169471
0.0659798
0.179899
0.0685508
0.190897
0.0711938
0.202502
0.0739045
0.214727
0.0296025
0.0556201
0.0309582
0.0594181
0.0323781
0.0634555
0.033845
0.0677311
0.0353738
0.0722759
0.0369582
0.0770895
0.0386018
0.0821908
0.0403096
0.0875958
0.0420762
0.0933155
0.0439079
0.099375
0.0458056
0.105783
0.0477644
0.112562
0.0497853
0.119739
0.0518781
0.127322
0.0540277
0.13533
0.0562504
0.143803
0.0585309
0.152741
0.0608924
0.162181
0.0633037
0.172148
0.0657883
0.182661
0.068336
0.193755
0.0709408
0.205465
0.073605
0.21781
0.0283736
0.0532696
0.029673
0.0569053
0.0310316
0.0607647
0.0324434
0.0648571
0.0339086
0.0691963
0.0354308
0.0738033
0.0370121
0.0786792
0.0386541
0.0838463
0.0403498
0.0893222
0.0421071
0.0951163
0.0439231
0.101258
0.0458015
0.107746
0.0477433
0.114604
0.0497571
0.12186
0.051823
0.129526
0.0539542
0.137626
0.0561572
0.146177
0.0584154
0.155218
0.0607257
0.164759
0.0631123
0.174823
0.0655652
0.185432
0.0680697
0.196626
0.0706279
0.208442
0.073254
0.220875
0.0271948
0.051023
0.0284438
0.0544988
0.0297519
0.058185
0.0311037
0.0621044
0.0325039
0.0662618
0.0339674
0.0706596
0.0354865
0.0753289
0.0370549
0.0802784
0.0386798
0.0855164
0.0403689
0.0910604
0.0421168
0.0969226
0.0439285
0.103131
0.0457935
0.109695
0.0477246
0.116637
0.0497078
0.123975
0.0517577
0.131723
0.0538719
0.139912
0.056039
0.148553
0.0582752
0.157668
0.0605663
0.167305
0.0629295
0.177459
0.0653308
0.188171
0.0677937
0.19946
0.070332
0.211364
0.0729016
0.223909
0.0260679
0.048876
0.0272665
0.0522003
0.0285162
0.0557345
0.0298116
0.0594771
0.0311618
0.0634465
0.0325667
0.0676626
0.0340172
0.072129
0.0355283
0.0768555
0.0370937
0.0818645
0.0387169
0.0871684
0.0403903
0.0927868
0.0421289
0.0987222
0.0439186
0.105006
0.0457693
0.111651
0.0476771
0.118668
0.0496519
0.126081
0.0516812
0.133914
0.0537708
0.14218
0.0559145
0.150914
0.0581184
0.160116
0.060397
0.169838
0.0626952
0.180095
0.0650682
0.190897
0.0674929
0.2023
0.0699614
0.214304
0.0724928
0.226942
0.0249859
0.0468263
0.0261362
0.0500063
0.027333
0.0533836
0.0285764
0.0569696
0.0298715
0.0607673
0.0312164
0.0647968
0.0326119
0.0690679
0.0340657
0.0735916
0.0355638
0.0783853
0.0371212
0.0834602
0.0387302
0.0888286
0.0403992
0.0945165
0.0421171
0.100524
0.0439025
0.106872
0.0457412
0.113587
0.0476334
0.120686
0.0495813
0.12818
0.0515908
0.136094
0.0536522
0.144442
0.0557749
0.153258
0.0579492
0.162564
0.0601761
0.172357
0.0624645
0.182698
0.0647993
0.19359
0.0671774
0.205084
0.0696077
0.21719
0.0720876
0.229929
0.0239518
0.044866
0.0250543
0.0479082
0.0262032
0.051136
0.0273953
0.0545647
0.0286404
0.0582008
0.0299288
0.0620549
0.0312706
0.066138
0.0326608
0.0704728
0.0341017
0.0750537
0.0355982
0.0799084
0.0371412
0.0850491
0.0387472
0.0904806
0.0404019
0.0962317
0.0421092
0.102317
0.0438725
0.108741
0.045692
0.115528
0.0475672
0.1227
0.0494954
0.130276
0.051478
0.138268
0.0535147
0.146703
0.0556078
0.155599
0.0577562
0.164984
0.0599455
0.174876
0.0621956
0.185302
0.0644838
0.196284
0.0668371
0.207854
0.0692159
0.220061
0.0716427
0.232889
0.0229597
0.0429936
0.0240164
0.0459039
0.025118
0.0489934
0.0262631
0.0522683
0.0274612
0.0557439
0.0286931
0.0594365
0.0299813
0.0633442
0.0313164
0.0674824
0.032705
0.0718694
0.0341328
0.0765191
0.0356186
0.081431
0.03716
0.0866363
0.0387453
0.0921373
0.0403857
0.0979551
0.0420837
0.104106
0.0438314
0.110602
0.0456325
0.117463
0.0474857
0.12471
0.0493983
0.132356
0.0513563
0.140426
0.0533684
0.148942
0.0554333
0.157922
0.0575407
0.167388
0.0597085
0.177363
0.0619036
0.187882
0.064167
0.198954
0.0664554
0.210615
0.0688044
0.2229
0.0711614
0.235834
0.0220095
0.0412039
0.0230234
0.0439866
0.0240801
0.0469418
0.0251793
0.0500771
0.0263247
0.0534048
0.0275066
0.0569305
0.0287497
0.0606681
0.0300297
0.0646309
0.0313546
0.0688328
0.0327288
0.0732735
0.0341586
0.0779791
0.0356342
0.0829569
0.0371649
0.0882167
0.0387422
0.0937808
0.040372
0.0996668
0.0420493
0.105888
0.0437827
0.112452
0.0455632
0.119385
0.0473981
0.12671
0.0492825
0.134429
0.0512172
0.142577
0.053206
0.151169
0.055235
0.160228
0.0573165
0.16978
0.059439
0.179828
0.0616137
0.190436
0.0638171
0.201592
0.0660574
0.213362
0.0683365
0.225725
0.0706638
0.238738
0.0210987
0.0394934
0.0220718
0.0421555
0.0230848
0.044982
0.0241396
0.0479815
0.0252365
0.0511653
0.0263769
0.0545345
0.0275621
0.058118
0.0287885
0.0619093
0.0300633
0.0659222
0.0313902
0.0701714
0.0327627
0.0746694
0.034181
0.0794322
0.0356471
0.0844746
0.0371585
0.0898003
0.0387215
0.0954313
0.0403384
0.101378
0.0420051
0.107666
0.0437152
0.1143
0.0454837
0.1213
0.0472981
0.128694
0.0491541
0.136493
0.0510656
0.144718
0.0530199
0.153384
0.0550229
0.162521
0.0570685
0.172151
0.0591491
0.182292
0.0612823
0.19297
0.0634425
0.204207
0.0656496
0.216049
0.0678756
0.228513
0.0701231
0.241623
1.3973e-06
-9.7769e-05
0.0202264
0.0378604
0.0211582
0.040407
0.0221314
0.0431089
0.0231424
0.0459792
0.0241959
0.0490221
0.0252914
0.0522508
0.0264251
0.0556715
0.0276064
0.0593001
0.0288312
0.0631415
0.0301043
0.0672081
0.0314181
0.071516
0.0327741
0.0760763
0.0341843
0.0808951
0.0356411
0.085992
0.037146
0.0913759
0.0386983
0.0970714
0.0402982
0.103085
0.0419456
0.109435
0.0436414
0.116142
0.0453831
0.123215
0.0471741
0.130674
0.0490169
0.138541
0.0508952
0.146843
0.0528185
0.155589
0.0547884
0.164801
0.0567981
0.174502
0.0588465
0.184728
0.0609311
0.195482
0.0630482
0.206808
0.0651938
0.21873
0.0673683
0.231268
0.0695762
0.244448
2.84888e-06
-0.000109686
1.39382e-06
-9.91629e-05
0.0193905
0.0362963
0.0202861
0.0387326
0.0212179
0.0413204
0.0221862
0.0440651
0.0231973
0.0469778
0.0242479
0.0500657
0.0253351
0.0533409
0.0264699
0.056808
0.0276495
0.0604817
0.0288676
0.0643782
0.0301277
0.0684985
0.0314363
0.0728538
0.0327942
0.0774664
0.0341915
0.0823447
0.0356354
0.0875026
0.0371245
0.0929497
0.0386626
0.098707
0.0402495
0.104781
0.04188
0.111197
0.0435539
0.117971
0.0452786
0.12511
0.0470427
0.132649
0.0488523
0.140584
0.050706
0.148955
0.0526024
0.157775
0.0545351
0.167064
0.0565039
0.176845
0.0585152
0.187144
0.0605469
0.197983
0.0626258
0.209376
0.0647233
0.221375
0.0668398
0.234004
0.0689729
0.247264
4.44748e-06
-0.000120491
2.87981e-06
-0.000111172
1.3678e-06
-0.000100531
0.0185905
0.0348049
0.0194469
0.0371355
0.020342
0.0396085
0.0212724
0.0422342
0.0222416
0.0450208
0.0232493
0.0479763
0.0242956
0.0511051
0.0253825
0.0544283
0.026512
0.0579455
0.027685
0.0616644
0.0288963
0.0656095
0.0301512
0.0697836
0.0314518
0.0741962
0.0327931
0.0788648
0.0341797
0.0838004
0.0356156
0.0890115
0.0370919
0.0945204
0.038617
0.10034
0.040182
0.106479
0.0417968
0.112954
0.0434538
0.119796
0.0451529
0.127
0.0468938
0.134607
0.0486765
0.142614
0.0505056
0.151052
0.0523662
0.159944
0.0542643
0.169304
0.0561974
0.179162
0.0581601
0.189531
0.0601514
0.200458
0.0621688
0.211931
0.0642098
0.224005
0.0662699
0.236707
0.0683449
0.250046
6.11696e-06
-0.000130266
4.44315e-06
-0.000122054
2.86484e-06
-0.000112669
1.44086e-06
-0.000101971
0.017823
0.0333785
0.0186451
0.0356066
0.0195025
0.037975
0.0203951
0.0404858
0.021325
0.0431509
0.0222923
0.0459778
0.0232967
0.0489753
0.0243421
0.0521455
0.0254251
0.0555152
0.0265515
0.059079
0.0277077
0.062853
0.0289189
0.0668419
0.0301671
0.0710683
0.0314547
0.0755346
0.0327917
0.0802527
0.0341694
0.0852466
0.0355897
0.0905136
0.0370566
0.0960807
0.0385598
0.101962
0.0401105
0.108165
0.0416998
0.114708
0.0433376
0.121611
0.0450135
0.12888
0.0467311
0.136552
0.0484856
0.144634
0.0502766
0.153142
0.0521063
0.162102
0.0539699
0.171531
0.0558657
0.181457
0.057789
0.191893
0.0597398
0.202887
0.0617021
0.214439
0.06369
0.226585
0.065697
0.239355
0.0677007
0.252786
7.93632e-06
-0.000139835
6.15374e-06
-0.000131977
4.51204e-06
-0.000123701
2.90562e-06
-0.000114133
1.38444e-06
-0.000103356
0.0170878
0.032014
0.0178773
0.0341463
0.0186989
0.0364102
0.0195552
0.0388148
0.0204474
0.0413635
0.0213754
0.0440678
0.0223393
0.0469351
0.0233408
0.0499766
0.0243758
0.0531948
0.0254622
0.0566046
0.0265747
0.060212
0.0277371
0.0640347
0.0289352
0.0680738
0.0301754
0.0723475
0.0314564
0.0768698
0.0327818
0.0816404
0.0341489
0.0866874
0.0355526
0.0920177
0.0369989
0.0976416
0.0384941
0.103578
0.0400243
0.10984
0.041598
0.116447
0.0432125
0.123412
0.0448615
0.13075
0.0465523
0.138486
0.0482822
0.146628
0.05004
0.155208
0.0518366
0.164235
0.053658
0.173739
0.0555081
0.183738
0.0573829
0.19425
0.0592849
0.205304
0.0612058
0.216923
0.0631273
0.229155
0.0650629
0.241993
0.0670136
0.25548
9.8742e-06
-0.0001495
7.97808e-06
-0.00014166
6.19295e-06
-0.000133657
4.52265e-06
-0.000125318
2.89807e-06
-0.000115647
1.42767e-06
-0.000104783
0.0163842
0.0307101
0.0171399
0.0327514
0.0179288
0.0349164
0.0187499
0.0372155
0.0196067
0.0396555
0.0204944
0.0422444
0.02142
0.0449872
0.0223815
0.0478944
0.0233801
0.0509723
0.0244213
0.0542357
0.0254873
0.057692
0.0266031
0.061346
0.0277575
0.0652125
0.0289453
0.0693039
0.0301775
0.0736264
0.031452
0.0781997
0.032758
0.0830313
0.0341121
0.0881279
0.0355065
0.09351
0.0369399
0.0991958
0.0384146
0.105188
0.0399278
0.111511
0.0414809
0.118179
0.0430699
0.125204
0.0446971
0.132605
0.046361
0.140407
0.0480514
0.148616
0.0497847
0.15726
0.0515355
0.166357
0.0533211
0.175926
0.0551353
0.185985
0.056963
0.196572
0.0588066
0.207703
0.0606581
0.219392
0.0625449
0.231673
0.0644141
0.244592
0.0662885
0.258136
1.1938e-05
-0.000159424
9.92269e-06
-0.000151445
8.02785e-06
-0.000143494
6.25228e-06
-0.000135387
4.49069e-06
-0.000126911
2.99507e-06
-0.000117214
1.44509e-06
-0.000106229
0.0157084
0.0294646
0.0164345
0.0314155
0.0171912
0.033489
0.017977
0.0356893
0.0187991
0.0380232
0.0196519
0.0404979
0.0205411
0.0431233
0.0214642
0.0459044
0.0224234
0.0488511
0.0234181
0.0519755
0.0244476
0.0552754
0.0255183
0.0587768
0.0266225
0.062481
0.0277666
0.0663912
0.0289464
0.070535
0.0301684
0.07491
0.0314298
0.0795278
0.0327343
0.084409
0.0340728
0.0895617
0.0354493
0.0950007
0.0368671
0.100743
0.0383225
0.106793
0.0398165
0.113175
0.0413491
0.1199
0.0429099
0.126991
0.0445088
0.134457
0.0461446
0.142314
0.0478082
0.150593
0.049502
0.159293
0.0512269
0.168452
0.0529695
0.178092
0.0547316
0.188217
0.0565122
0.198866
0.0583137
0.210047
0.0601175
0.22182
0.0619245
0.234162
0.0637308
0.24715
0.0655239
0.260763
1.41364e-05
-0.000169751
1.19953e-05
-0.000161496
9.94313e-06
-0.00015336
8.05855e-06
-0.000145301
6.27651e-06
-0.000137173
4.60262e-06
-0.000128518
2.95312e-06
-0.000118722
1.43726e-06
-0.000107666
0.0150626
0.0282723
0.015758
0.0301411
0.016482
0.0321247
0.0172381
0.0342279
0.0180259
0.0364624
0.0188445
0.0388306
0.0196973
0.0413417
0.0205826
0.0440049
0.0215038
0.046824
0.0224556
0.0498136
0.0234485
0.0529746
0.0244726
0.056321
0.0255331
0.0598662
0.0266334
0.0636142
0.0277695
0.0675682
0.0289477
0.0717558
0.0301631
0.0761767
0.0314102
0.080852
0.0326953
0.0857864
0.0340186
0.0909924
0.0353845
0.0964833
0.0367881
0.102278
0.0382229
0.108387
0.0396927
0.114831
0.0411971
0.121612
0.0427423
0.128757
0.0443144
0.136288
0.0459171
0.144205
0.0475512
0.152544
0.0492055
0.161315
0.0508874
0.170534
0.0525928
0.180231
0.0543079
0.190421
0.0560427
0.201137
0.0577795
0.212385
0.0595326
0.224211
0.0612696
0.236624
0.0630179
0.249656
0.064753
0.263339
1.64354e-05
-0.000180513
1.41619e-05
-0.000171917
1.20299e-05
-0.000163583
1.00716e-05
-0.000155373
8.1415e-06
-0.000147166
6.32486e-06
-0.000138895
4.58811e-06
-0.000130153
3.00288e-06
-0.000120288
1.50866e-06
-0.000109174
0.0144427
0.027135
0.0151084
0.0289219
0.0158048
0.0308184
0.0165297
0.0328332
0.0172843
0.0349696
0.0180715
0.0372354
0.0188886
0.0396394
0.0197395
0.0421849
0.0206208
0.044888
0.0215386
0.047741
0.0224914
0.0507707
0.023474
0.0539732
0.0244929
0.0573612
0.0255516
0.060948
0.0266439
0.0647398
0.0277697
0.0687461
0.0289377
0.0729812
0.0301338
0.0774531
0.0313743
0.0821731
0.0326479
0.0871571
0.0339605
0.0924164
0.0353072
0.0979642
0.0366865
0.103814
0.0381058
0.109974
0.0395587
0.11647
0.0410389
0.123316
0.0425573
0.130515
0.0441026
0.138102
0.0456721
0.146084
0.0472681
0.154481
0.048888
0.163314
0.0505291
0.172597
0.0521874
0.182351
0.0538581
0.192605
0.0555433
0.203374
0.0572294
0.214688
0.0589137
0.226567
0.0606035
0.239038
0.0622621
0.252147
0.063916
0.265876
1.89305e-05
-0.000191855
1.65172e-05
-0.000182869
1.42556e-05
-0.000174143
1.21329e-05
-0.000165644
1.00912e-05
-0.000157322
8.20906e-06
-0.00014905
6.3722e-06
-0.000140679
4.7193e-06
-0.00013187
3.0545e-06
-0.000121834
1.46431e-06
-0.000110639
0.0138487
0.0260463
0.0144878
0.0277556
0.0151555
0.0295712
0.0158507
0.0314973
0.0165751
0.0335423
0.0173301
0.035711
0.0181138
0.0380102
0.0189299
0.040449
0.0197763
0.0430293
0.0206587
0.0457679
0.0215686
0.0486639
0.0225146
0.0517301
0.0234919
0.0549742
0.0245119
0.058401
0.0255589
0.062033
0.0266409
0.0658685
0.0277637
0.0699201
0.0289137
0.0742012
0.0301082
0.0787192
0.0313308
0.0834902
0.0325951
0.0885225
0.0338899
0.0938337
0.0352187
0.099432
0.0365838
0.105336
0.0379775
0.111555
0.0394063
0.118102
0.0408683
0.125005
0.0423498
0.132267
0.0438683
0.139906
0.0454083
0.147944
0.0469712
0.156398
0.0485567
0.165286
0.0501534
0.174631
0.0517674
0.184442
0.0533897
0.194759
0.0550142
0.205589
0.0566456
0.216957
0.0582703
0.228901
0.0598811
0.241419
0.0614768
0.254586
0.0630627
0.268367
2.15444e-05
-0.000203737
1.89845e-05
-0.000194322
1.66308e-05
-0.000185244
1.43792e-05
-0.000176389
1.22184e-05
-0.000167771
1.02228e-05
-0.000159336
8.28061e-06
-0.000150958
6.5271e-06
-0.000142487
4.80634e-06
-0.000133621
3.115e-06
-0.000123484
1.53051e-06
-0.000112169
0.0132791
0.0250061
0.0138927
0.0266415
0.0145327
0.0283785
0.0151987
0.0302232
0.0158943
0.032178
0.0166176
0.0342548
0.0173706
0.0364543
0.0181538
0.0387862
0.0189674
0.0412579
0.0198113
0.0438767
0.0206863
0.0466502
0.0215958
0.0495827
0.0225365
0.0526855
0.0235149
0.0559712
0.0245167
0.0594432
0.025565
0.0631089
0.0266404
0.0669919
0.027748
0.0710859
0.028895
0.0754144
0.0300715
0.0799785
0.0312875
0.0847978
0.0325276
0.0898848
0.0338094
0.0952429
0.0351226
0.100893
0.0364622
0.106852
0.0378367
0.113124
0.0392423
0.119728
0.0406751
0.12668
0.0421349
0.134001
0.0436189
0.141695
0.0451222
0.149793
0.046652
0.158303
0.0481931
0.167247
0.0497541
0.176645
0.051316
0.186516
0.0528927
0.196881
0.0544652
0.207769
0.0560333
0.219194
0.057596
0.231186
0.0591396
0.243756
0.0606803
0.256969
0.0621667
0.270823
2.43776e-05
-0.000216338
2.16628e-05
-0.000206415
1.91657e-05
-0.000196857
1.67337e-05
-0.000187598
1.4447e-05
-0.000178618
1.23755e-05
-0.000169924
1.02782e-05
-0.000161334
8.41915e-06
-0.00015285
6.60049e-06
-0.000144281
4.81496e-06
-0.000135321
3.13575e-06
-0.000125089
1.55885e-06
-0.000113728
0.012735
0.0240099
0.0133229
0.0255758
0.0139358
0.0272384
0.0145746
0.0290025
0.0152421
0.0308755
0.0159366
0.032859
0.0166594
0.034966
0.0174098
0.0371983
0.018191
0.0395626
0.0190021
0.0420672
0.0198446
0.0447183
0.0207162
0.0475298
0.0216203
0.0504989
0.0225571
0.0536433
0.0235238
0.0569641
0.0245269
0.0604813
0.0255584
0.0641909
0.0266272
0.0681127
0.0277267
0.0722542
0.0288586
0.0766273
0.0300235
0.0812425
0.0312189
0.0861065
0.0324524
0.0912419
0.0337136
0.0966519
0.035009
0.102346
0.0363344
0.108354
0.0376884
0.114678
0.0390648
0.121339
0.0404745
0.12834
0.0419011
0.135719
0.0433497
0.143468
0.0448249
0.15162
0.046314
0.160182
0.0478157
0.169185
0.0493274
0.178633
0.0508437
0.188565
0.0523647
0.198981
0.0538875
0.209915
0.0553987
0.221391
0.0568932
0.233432
0.0583712
0.246065
0.0598177
0.259318
0.0612312
0.273229
2.73973e-05
-0.000229657
2.45202e-05
-0.000219195
2.18256e-05
-0.000209075
1.92965e-05
-0.00019942
1.68762e-05
-0.000190027
1.46774e-05
-0.00018092
1.24174e-05
-0.000172063
1.04902e-05
-0.000163405
8.56765e-06
-0.000154817
6.68377e-06
-0.00014615
4.90933e-06
-0.000137095
3.23125e-06
-0.000126762
1.59139e-06
-0.00011532
0.0122128
0.0230591
0.0127751
0.0245578
0.0133638
0.0261477
0.0139776
0.0278355
0.0146168
0.0296278
0.0152826
0.0315295
0.0159756
0.0335427
0.0166968
0.0356791
0.0174477
0.0379416
0.0182259
0.0403388
0.019036
0.0428758
0.0198701
0.0455644
0.0207427
0.0484074
0.0216365
0.0514196
0.0225665
0.0546006
0.0235294
0.0579616
0.0245207
0.061519
0.0255456
0.0652725
0.0266027
0.0692367
0.0276921
0.0734207
0.0288146
0.0778363
0.0299666
0.0824947
0.0311568
0.0874021
0.0323711
0.0925844
0.0336145
0.0980464
0.0348879
0.103793
0.0361891
0.109853
0.0375176
0.116225
0.0388772
0.122936
0.0402514
0.12999
0.0416527
0.137416
0.0430718
0.145221
0.0445089
0.153425
0.045955
0.162042
0.0474173
0.171095
0.048882
0.180595
0.0503553
0.190574
0.0518217
0.201047
0.0532803
0.212034
0.0547233
0.223561
0.0561569
0.235646
0.057559
0.248324
0.0589389
0.26161
0.0602663
0.275572
3.06149e-05
-0.000243687
2.75213e-05
-0.000232658
2.47149e-05
-0.000222085
2.20343e-05
-0.000211813
1.94273e-05
-0.000201971
1.71408e-05
-0.000192491
1.48006e-05
-0.000183303
1.27535e-05
-0.000174327
1.06756e-05
-0.000165513
8.68779e-06
-0.000156821
6.81395e-06
-0.000148054
5.03877e-06
-0.000138902
3.30197e-06
-0.000128472
1.58842e-06
-0.000116908
0.0117114
0.0221498
0.0122522
0.0235819
0.0128158
0.0251058
0.0134034
0.0267219
0.014017
0.0284353
0.0146561
0.0302543
0.0153229
0.0321822
0.0160138
0.0342257
0.0167339
0.0363929
0.0174797
0.0386878
0.018256
0.0411188
0.0190581
0.0436877
0.0198963
0.0464108
0.0207535
0.0492904
0.0216549
0.0523311
0.0225761
0.0555538
0.0235322
0.0589501
0.0245183
0.0625463
0.0255315
0.0663436
0.0265835
0.0703453
0.0276599
0.0745754
0.0287658
0.0790371
0.0299099
0.0837417
0.0310758
0.0886974
0.0322708
0.0939281
0.0335
0.0994343
0.034752
0.10523
0.0360363
0.111335
0.0373407
0.117762
0.0386634
0.124524
0.0400109
0.131631
0.041384
0.139103
0.0427678
0.146962
0.0441655
0.155215
0.0455773
0.163882
0.0469903
0.172987
0.048412
0.182538
0.0498307
0.192565
0.0512442
0.203083
0.0526432
0.214114
0.054028
0.22569
0.0553897
0.237816
0.0567186
0.250544
0.0580031
0.263873
0.0592669
0.277872
3.39545e-05
-0.000258566
3.0772e-05
-0.000246938
2.77514e-05
-0.000235695
2.49133e-05
-0.000224964
2.2252e-05
-0.000214638
1.97767e-05
-0.000204607
1.72578e-05
-0.000194948
1.50385e-05
-0.000185588
1.28901e-05
-0.000176541
1.07917e-05
-0.000167617
8.85802e-06
-0.000158865
6.98284e-06
-0.000149998
5.10952e-06
-0.00014071
3.34354e-06
-0.000130227
1.70995e-06
-0.000118618
0.0112332
0.0212786
0.0117497
0.0226523
0.0122897
0.024108
0.0128552
0.0256539
0.0134437
0.0272953
0.0140566
0.0290348
0.0146947
0.0308826
0.0153573
0.0328387
0.0160496
0.03491
0.0167667
0.0371059
0.017512
0.0394317
0.0182843
0.0418927
0.0190835
0.0445006
0.0199142
0.0472502
0.0207775
0.0501678
0.0216606
0.0532466
0.022578
0.056508
0.0235238
0.0599446
0.0245032
0.0635746
0.0255113
0.0674158
0.0265452
0.07146
0.02761
0.0757312
0.0287093
0.0802377
0.0298305
0.084987
0.0309822
0.089986
0.0321708
0.0952573
0.0333757
0.100811
0.0346058
0.10666
0.0358623
0.112813
0.0371399
0.119285
0.0384422
0.126093
0.0397629
0.133253
0.0411006
0.140771
0.0424487
0.148679
0.0438098
0.156982
0.0451735
0.165699
0.0465459
0.174853
0.047917
0.184452
0.0492815
0.194528
0.0506368
0.205089
0.0519789
0.216163
0.0533005
0.227779
0.0545827
0.239951
0.0558421
0.252705
0.0570552
0.266085
0.0582198
0.2801
3.76055e-05
-0.000274362
3.42308e-05
-0.000262025
3.1044e-05
-0.00025023
2.80881e-05
-0.000238869
2.51749e-05
-0.000227886
2.25512e-05
-0.000217412
1.99396e-05
-0.000207288
1.76333e-05
-0.000197543
1.53603e-05
-0.000188058
1.30976e-05
-0.000178847
1.10519e-05
-0.00016981
9.02631e-06
-0.000160909
7.10091e-06
-0.00015199
5.23885e-06
-0.000142605
3.50642e-06
-0.000132024
1.71123e-06
-0.00012033
0.0107726
0.0204469
0.0112681
0.0217602
0.0117866
0.0231554
0.0123285
0.0246348
0.0128917
0.0262059
0.0134806
0.0278713
0.0140934
0.0296361
0.0147308
0.031509
0.0153944
0.0334939
0.0160816
0.035595
0.0167961
0.0378218
0.0175385
0.0401775
0.0183062
0.0426699
0.019104
0.0453108
0.0199293
0.0480984
0.0207773
0.0510511
0.021663
0.0541616
0.0225722
0.0574597
0.0235127
0.0609351
0.0244819
0.064604
0.0254783
0.0684827
0.0265006
0.0725693
0.0275589
0.0768816
0.0286403
0.0814279
0.0297486
0.0862206
0.0308888
0.091268
0.0320467
0.0965863
0.0332325
0.102184
0.0344448
0.108078
0.0356809
0.114272
0.0369316
0.120796
0.0382049
0.127651
0.0394938
0.134859
0.0407921
0.142427
0.0421099
0.150379
0.0434266
0.158729
0.044756
0.167489
0.0460805
0.176689
0.0473997
0.186334
0.0487136
0.196451
0.0500121
0.207056
0.0512838
0.218179
0.0525372
0.229825
0.0537563
0.242037
0.0549313
0.254829
0.0560586
0.268246
0.0571092
0.282284
4.14421e-05
-0.000291082
3.79255e-05
-0.000278056
3.45579e-05
-0.000265539
3.13799e-05
-0.000253522
2.83036e-05
-0.000241998
2.55716e-05
-0.000230907
2.27644e-05
-0.000220237
2.03172e-05
-0.000209972
1.78656e-05
-0.000200048
1.55736e-05
-0.000190534
1.3409e-05
-0.000181204
1.13175e-05
-0.000172102
9.24177e-06
-0.00016305
7.27982e-06
-0.000154031
5.44923e-06
-0.000144548
3.50697e-06
-0.000133819
1.71872e-06
-0.000122048
0.010331
0.0196519
0.0108064
0.0209086
0.0113038
0.0222429
0.0118231
0.0236608
0.0123643
0.0251622
0.0129285
0.026758
0.0135171
0.0284476
0.0141273
0.0302396
0.0147641
0.0321393
0.0154251
0.0341504
0.0161113
0.0362799
0.0168253
0.038535
0.0175642
0.0409196
0.018331
0.0434429
0.0191233
0.0461168
0.0199396
0.048936
0.0207873
0.0519269
0.0216612
0.0550725
0.0225666
0.0584059
0.0234969
0.0619201
0.0244544
0.0656279
0.0254392
0.0695441
0.0264549
0.0736733
0.0274966
0.0780254
0.0285651
0.0826114
0.0296619
0.0874474
0.0307728
0.0925419
0.0319179
0.0979009
0.0330895
0.103539
0.0342763
0.109483
0.0354805
0.115723
0.0367072
0.122294
0.0379537
0.129191
0.0392059
0.136446
0.0404726
0.144064
0.0417473
0.152058
0.0430311
0.160454
0.0443112
0.169258
0.0455851
0.178504
0.0468565
0.188191
0.0481136
0.198349
0.0493465
0.208993
0.0505651
0.220151
0.0517454
0.231835
0.0528901
0.244079
0.053987
0.256901
0.0550299
0.270325
0.0560144
0.284396
4.55754e-05
-0.000308855
4.18609e-05
-0.000295018
3.83066e-05
-0.000281805
3.49481e-05
-0.000269107
3.17011e-05
-0.000256919
2.88052e-05
-0.000245232
2.58429e-05
-0.000233985
2.32467e-05
-0.000223167
2.07051e-05
-0.000212812
1.8232e-05
-0.000202706
1.58943e-05
-0.000193019
1.36843e-05
-0.000183571
1.14984e-05
-0.000174358
9.47631e-06
-0.000165246
7.49863e-06
-0.00015608
5.503e-06
-0.000146544
3.59873e-06
-0.000135699
1.81056e-06
-0.000123859
0.00991047
0.0188898
0.0103648
0.0200935
0.0108416
0.0213709
0.0113398
0.0227262
0.0118594
0.0241657
0.0124003
0.0256903
0.0129643
0.0273108
0.0135498
0.0290251
0.0141625
0.0308412
0.0147962
0.0327682
0.0154556
0.0348062
0.0161397
0.0369655
0.0168477
0.0392515
0.017582
0.0416685
0.0183413
0.0442248
0.0191312
0.0469253
0.0199472
0.049776
0.020791
0.0527971
0.0216561
0.055983
0.0225511
0.0593516
0.0234683
0.0629062
0.0244206
0.0666465
0.0253988
0.0706002
0.0263979
0.074772
0.0274267
0.0791638
0.0284773
0.083796
0.0295511
0.0886691
0.0306579
0.093802
0.0317788
0.0992117
0.0329226
0.104893
0.0340853
0.110878
0.0352704
0.11716
0.0364717
0.123776
0.0376801
0.130717
0.0389056
0.138013
0.0401369
0.145675
0.0413737
0.153715
0.0426082
0.162157
0.0438391
0.171004
0.0450751
0.180285
0.0462896
0.190015
0.0474876
0.200208
0.0486625
0.210896
0.0498093
0.222088
0.0509179
0.233808
0.0519845
0.246081
0.0530008
0.25893
0.053958
0.272382
0.0548743
0.286457
4.99646e-05
-0.000327554
4.59973e-05
-0.000312991
4.22506e-05
-0.000298962
3.87061e-05
-0.000285563
3.53329e-05
-0.000272739
3.21775e-05
-0.000260292
2.91417e-05
-0.000248531
2.63892e-05
-0.000237128
2.37013e-05
-0.000226163
2.10396e-05
-0.000215619
1.86173e-05
-0.000205429
1.62816e-05
-0.000195617
1.39776e-05
-0.00018605
1.18423e-05
-0.000176724
9.75673e-06
-0.000167504
7.65928e-06
-0.000158236
5.65927e-06
-0.000148604
3.79017e-06
-0.000137679
1.87243e-06
-0.000125731
0.00950343
0.0181629
0.00994147
0.0193131
0.0103976
0.0205375
0.0108758
0.0218349
0.0113737
0.0232119
0.0118932
0.0246729
0.012434
0.0262207
0.0129979
0.0278627
0.0135832
0.0296043
0.0141917
0.0314457
0.0148253
0.0333985
0.0154816
0.0354642
0.0161627
0.0376504
0.0168697
0.0399638
0.017598
0.0424118
0.0183584
0.0449976
0.0191364
0.0477361
0.0199435
0.0506236
0.0207769
0.0536762
0.0216417
0.0568924
0.0225251
0.0602949
0.0234435
0.0638833
0.0243741
0.0676712
0.0253422
0.0716559
0.0263297
0.0758689
0.0273405
0.0803005
0.0283796
0.0849675
0.0294443
0.0898827
0.0305245
0.0950563
0.0316263
0.100508
0.0327432
0.106235
0.0338918
0.112256
0.0350414
0.11859
0.0362123
0.125243
0.0373903
0.132232
0.0385805
0.139569
0.0397725
0.147276
0.0409713
0.155352
0.0421643
0.163832
0.043356
0.172724
0.0445315
0.182043
0.0456905
0.191812
0.0468331
0.202038
0.0479475
0.212758
0.0490263
0.223979
0.0500633
0.235729
0.0510519
0.24803
0.0519838
0.260904
0.0528282
0.274428
0.0536325
0.288481
5.45655e-05
-0.000347404
5.04461e-05