/*--------------------------------*- C++ -*----------------------------------*\
  =========                 |
  \\      /  F ield         | OpenFOAM: The Open Source CFD Toolbox
   \\    /   O peration     | Website:  https://openfoam.org
    \\  /    A nd           | Version:  7
     \\/     M anipulation  |
\*---------------------------------------------------------------------------*/
FoamFile
{
    version     2.0;
    format      ascii;
    class       volVectorField;
    location    "1200";
    object      U;
}
// * * * * * * * * * * * * * * * * * * * * * * * * * * * * * * * * * * * * * //

dimensions      [0 1 -1 0 0 0 0];

internalField   nonuniform List<vector> 
23064
(
(49.7337 13.3371 7.02569e-17)
(49.739 13.363 8.19379e-18)
(49.7342 13.337 0)
(49.7434 13.3886 -8.48686e-17)
(49.7398 13.3627 3.32317e-18)
(49.7348 13.3368 9.27819e-18)
(49.7498 13.4144 -8.14386e-17)
(49.7445 13.388 8.10627e-17)
(49.7407 13.3623 -8.97954e-17)
(49.7354 13.3366 -4.61179e-18)
(49.7568 13.4411 -2.89525e-18)
(49.7512 13.4137 4.08642e-17)
(49.7455 13.3874 -8.66367e-17)
(49.7415 13.3619 5.20255e-18)
(49.7361 13.3364 -4.99917e-18)
(49.7642 13.4687 0)
(49.7586 13.4402 -4.64922e-17)
(49.7526 13.4129 -8.77339e-17)
(49.7466 13.3868 8.53742e-17)
(49.7424 13.3615 5.32423e-18)
(49.7367 13.3362 0)
(49.7721 13.4971 -3.60706e-18)
(49.7663 13.4676 -3.37522e-18)
(49.7604 13.4392 4.87306e-17)
(49.754 13.412 1.81775e-16)
(49.7476 13.3862 9.0464e-17)
(49.7433 13.3611 -5.43671e-18)
(49.7374 13.3359 8.49329e-17)
(49.7804 13.5266 -1.23736e-16)
(49.7746 13.4958 7.22607e-18)
(49.7685 13.4664 0)
(49.7622 13.4381 -1.06964e-16)
(49.7554 13.4111 -8.806e-17)
(49.7487 13.3855 -1.75827e-16)
(49.7442 13.3606 0)
(49.7381 13.3357 -1.7565e-16)
(49.7891 13.5571 -1.27658e-16)
(49.7834 13.5251 5.8219e-17)
(49.7772 13.4945 0)
(49.7707 13.4651 -5.29608e-17)
(49.764 13.437 9.58423e-17)
(49.7568 13.4102 6.24618e-18)
(49.7498 13.3848 1.85119e-16)
(49.7452 13.3601 5.67298e-18)
(49.7389 13.3354 -8.21811e-18)
(49.7982 13.5888 -4.57904e-18)
(49.7926 13.5555 7.29102e-17)
(49.7864 13.5236 -6.6097e-17)
(49.7798 13.493 -5.76812e-17)
(49.7729 13.4638 5.55435e-17)
(49.7658 13.4358 -6.52611e-18)
(49.7583 13.4092 0)
(49.7509 13.384 -1.82605e-16)
(49.7461 13.3595 9.95252e-17)
(49.7397 13.335 6.57401e-17)
(49.8076 13.6217 0)
(49.8021 13.587 -8.32435e-17)
(49.7961 13.5538 7.73543e-17)
(49.7894 13.522 1.28616e-16)
(49.7824 13.4915 1.19567e-16)
(49.7751 13.4624 -1.1747e-16)
(49.7676 13.4346 0)
(49.7598 13.4082 -6.26655e-18)
(49.752 13.3832 -2.89789e-18)
(49.7471 13.3589 -8.07556e-17)
(49.7405 13.3347 9.12813e-17)
(49.8173 13.656 -4.52751e-17)
(49.812 13.6198 0)
(49.8061 13.5852 1.52855e-16)
(49.7995 13.552 -7.1686e-17)
(49.7925 13.5203 -6.24296e-17)
(49.785 13.4899 -6.1968e-17)
(49.7773 13.461 2.28044e-16)
(49.7695 13.4333 1.19362e-16)
(49.7612 13.4071 0)
(49.7532 13.3824 9.616e-17)
(49.7481 13.3583 0)
(49.7413 13.3343 -9.00967e-17)
(49.8272 13.6916 0)
(49.8222 13.654 -4.8113e-17)
(49.8165 13.6179 0)
(49.81 13.5833 -7.90978e-17)
(49.803 13.5502 8.06198e-17)
(49.7955 13.5185 7.02994e-17)
(49.7876 13.4883 7.73169e-17)
(49.7795 13.4594 -3.56014e-18)
(49.7713 13.432 -1.10826e-16)
(49.7627 13.4059 -1.07076e-16)
(49.7543 13.3815 6.30929e-18)
(49.7491 13.3576 9.828e-17)
(49.7422 13.3339 -1.06603e-17)
(49.8374 13.7288 -5.42683e-17)
(49.8327 13.6895 3.37791e-18)
(49.8272 13.6519 1.48731e-16)
(49.8209 13.6158 8.48256e-17)
(49.814 13.5812 -8.85956e-17)
(49.8065 13.5482 -7.47494e-17)
(49.7986 13.5166 -6.91024e-17)
(49.7902 13.4865 7.69654e-17)
(49.7817 13.4579 -1.12476e-16)
(49.7732 13.4306 -7.29895e-18)
(49.7642 13.4047 9.91234e-17)
(49.7555 13.3805 9.55226e-17)
(49.7501 13.3569 -1.09345e-16)
(49.7432 13.3334 1.07834e-17)
(49.8477 13.7675 2.41613e-19)
(49.8434 13.7265 5.35141e-17)
(49.8382 13.6873 -5.76641e-17)
(49.8321 13.6496 -9.39633e-17)
(49.8254 13.6136 3.07037e-18)
(49.818 13.5791 1.67565e-16)
(49.8101 13.5462 2.53245e-19)
(49.8016 13.5147 -1.33723e-17)
(49.7929 13.4847 -1.47936e-16)
(49.784 13.4562 1.33669e-16)
(49.775 13.4291 0)
(49.7658 13.4035 -2.51583e-19)
(49.7566 13.3796 -8.78958e-17)
(49.7512 13.3562 1.2419e-17)
(49.7441 13.3329 0)
(49.8583 13.8078 -4.25548e-18)
(49.8544 13.7651 0)
(49.8494 13.7241 6.41417e-17)
(49.8437 13.6849 1.1239e-16)
(49.8371 13.6473 -6.46935e-18)
(49.8299 13.6113 -9.09928e-17)
(49.822 13.5769 -8.91725e-17)
(49.8136 13.544 -2.56253e-19)
(49.8047 13.5127 8.30248e-17)
(49.7955 13.4828 -1.37488e-16)
(49.7862 13.4544 -1.24435e-16)
(49.7769 13.4275 7.25171e-18)
(49.7673 13.4022 1.18991e-16)
(49.7578 13.3785 -1.17595e-16)
(49.7523 13.3554 2.04571e-16)
(49.7451 13.3323 2.0731e-16)
(49.8691 13.8499 0)
(49.8655 13.8053 0)
(49.861 13.7626 -3.99338e-18)
(49.8555 13.7216 -6.3315e-17)
(49.8492 13.6824 -4.78996e-17)
(49.8421 13.6448 0)
(49.8344 13.6089 -1.01721e-16)
(49.826 13.5745 5.29169e-18)
(49.8171 13.5418 -5.15249e-18)
(49.8078 13.5105 -7.31378e-17)
(49.7982 13.4808 2.66508e-16)
(49.7885 13.4526 -1.29905e-16)
(49.7788 13.4259 -1.28823e-16)
(49.7688 13.4008 -1.10612e-16)
(49.759 13.3775 2.09295e-16)
(49.7534 13.3546 -2.0225e-16)
(49.7462 13.3317 -1.94016e-16)
(49.8801 13.8938 -1.30268e-16)
(49.877 13.8473 -7.56124e-17)
(49.8728 13.8027 0)
(49.8676 13.76 8.38948e-18)
(49.8616 13.719 0)
(49.8548 13.6798 1.14958e-16)
(49.8472 13.6422 6.33178e-18)
(49.8389 13.6064 1.00507e-16)
(49.83 13.5721 1.10591e-17)
(49.8207 13.5394 8.26791e-17)
(49.8109 13.5083 9.21221e-18)
(49.8009 13.4788 -1.37861e-16)
(49.7907 13.4507 1.28314e-16)
(49.7807 13.4242 1.20018e-16)
(49.7704 13.3994 -1.14898e-16)
(49.7602 13.3763 -1.18188e-16)
(49.7545 13.3537 0)
(49.7473 13.3311 2.13536e-16)
(49.8913 13.9396 4.39516e-17)
(49.8886 13.8911 8.11523e-17)
(49.8848 13.8446 1.61699e-16)
(49.88 13.7999 -4.51119e-18)
(49.8743 13.7572 0)
(49.8677 13.7162 -4.03735e-18)
(49.8603 13.677 -1.13337e-16)
(49.8522 13.6395 -6.4396e-18)
(49.8434 13.6037 -5.92963e-18)
(49.8341 13.5696 5.76781e-18)
(49.8242 13.537 -1.65541e-16)
(49.814 13.506 -9.81768e-18)
(49.8035 13.4766 -9.08288e-18)
(49.793 13.4488 -8.42703e-18)
(49.7826 13.4225 1.24677e-16)
(49.7719 13.3978 1.27694e-16)
(49.7614 13.3751 -9.45704e-17)
(49.7556 13.3528 -1.32108e-17)
(49.7484 13.3304 -2.11415e-16)
(49.9026 13.9874 5.53748e-17)
(49.9004 13.9368 3.14524e-18)
(49.8971 13.8882 0)
(49.8927 13.8416 -7.56669e-17)
(49.8873 13.797 0)
(49.881 13.7542 8.68746e-18)
(49.8739 13.7133 -1.29322e-16)
(49.8659 13.6742 -7.53642e-18)
(49.8573 13.6367 1.09083e-16)
(49.848 13.601 1.00638e-16)
(49.8381 13.5669 9.23305e-17)
(49.8278 13.5344 9.31191e-17)
(49.8171 13.5036 9.48618e-18)
(49.8062 13.4743 -1.36766e-16)
(49.7953 13.4467 1.26645e-16)
(49.7845 13.4206 -2.57403e-16)
(49.7735 13.3963 -1.4268e-17)
(49.7626 13.3739 2.16371e-16)
(49.7567 13.3518 1.33631e-17)
(49.7496 13.3297 0)
(49.9141 14.0373 -5.97995e-17)
(49.9124 13.9845 5.16688e-17)
(49.9096 13.9338 -3.20094e-18)
(49.9056 13.8851 8.71125e-17)
(49.9006 13.8386 5.39617e-18)
(49.8946 13.7939 -4.66927e-18)
(49.8877 13.7512 7.15653e-17)
(49.88 13.7103 1.35398e-16)
(49.8715 13.6712 7.65364e-18)
(49.8623 13.6338 -1.14283e-16)
(49.8525 13.5981 -9.90024e-17)
(49.8422 13.5641 -9.70997e-17)
(49.8314 13.5318 0)
(49.8202 13.5011 -1.6944e-16)
(49.8089 13.472 1.52772e-16)
(49.7975 13.4446 -1.33983e-16)
(49.7865 13.4187 1.3283e-16)
(49.7751 13.3946 0)
(49.7638 13.3726 -1.2211e-16)
(49.7579 13.3507 -2.15621e-16)
(49.7508 13.3289 -2.3215e-16)
(49.9258 14.0894 0)
(49.9247 14.0342 -1.97727e-18)
(49.9223 13.9813 -5.07649e-17)
(49.9187 13.9306 0)
(49.9141 13.8819 -1.91081e-16)
(49.9085 13.8353 0)
(49.9019 13.7907 0)
(49.8945 13.748 -7.05738e-17)
(49.8862 13.7071 4.73168e-19)
(49.8771 13.668 0)
(49.8674 13.6307 -1.12278e-16)
(49.8571 13.5951 6.20249e-18)
(49.8462 13.5612 -9.4897e-17)
(49.8349 13.529 1.05401e-17)
(49.8234 13.4985 -3.8949e-18)
(49.8116 13.4696 1.84743e-17)
(49.7998 13.4423 -1.46813e-16)
(49.7884 13.4167 0)
(49.7767 13.3929 -5.92103e-19)
(49.765 13.3712 1.40904e-17)
(49.7591 13.3496 -3.78858e-18)
(49.7521 13.328 4.15992e-16)
(49.9377 14.1437 0)
(49.9371 14.0862 -4.26732e-18)
(49.9352 14.0309 1.25671e-16)
(49.9321 13.978 1.1358e-16)
(49.928 13.9272 1.04225e-16)
(49.9227 13.8785 9.27879e-17)
(49.9165 13.8319 0)
(49.9093 13.7873 0)
(49.9012 13.7446 -1.56253e-16)
(49.8924 13.7037 0)
(49.8828 13.6647 0)
(49.8725 13.6275 1.18079e-16)
(49.8616 13.592 0)
(49.8503 13.5582 9.3743e-17)
(49.8385 13.5262 1.88268e-16)
(49.8265 13.4958 -1.36751e-17)
(49.8143 13.467 1.50932e-16)
(49.8021 13.44 -3.03548e-18)
(49.7903 13.4146 1.58354e-17)
(49.7783 13.3911 -1.47141e-17)
(49.7663 13.3698 1.39834e-17)
(49.7603 13.3485 2.15363e-16)
(49.7535 13.3271 -2.20913e-16)
(49.9497 14.2004 -8.09463e-17)
(49.9497 14.1404 4.45452e-18)
(49.9484 14.0827 5.99791e-17)
(49.9458 14.0274 -6.48998e-17)
(49.9421 13.9744 -1.11896e-16)
(49.9372 13.9236 -1.02713e-16)
(49.9313 13.875 0)
(49.9244 13.8283 -5.65013e-18)
(49.9166 13.7837 0)
(49.908 13.7411 1.45446e-16)
(49.8985 13.7003 8.70711e-18)
(49.8884 13.6613 1.18098e-16)
(49.8776 13.6242 0)
(49.8662 13.5888 0)
(49.8543 13.5551 7.3224e-17)
(49.8421 13.5232 -3.42766e-16)
(49.8296 13.4929 1.61466e-16)
(49.8169 13.4644 1.29935e-17)
(49.8044 13.4376 1.38426e-16)
(49.7922 13.4124 1.48312e-16)
(49.7799 13.3892 -1.22429e-16)
(49.7675 13.3683 0)
(49.7615 13.3473 1.39114e-17)
(49.7548 13.326 1.16187e-17)
(49.962 14.2596 8.65391e-17)
(49.9625 14.197 7.96782e-17)
(49.9618 14.1368 9.32267e-18)
(49.9597 14.0791 6.25349e-18)
(49.9564 14.0238 -6.78216e-17)
(49.952 13.9707 -7.42943e-18)
(49.9465 13.9199 -1.07323e-16)
(49.9399 13.8712 -9.24888e-17)
(49.9324 13.8246 -9.01758e-17)
(49.924 13.78 0)
(49.9148 13.7374 -1.50915e-16)
(49.9047 13.6967 0)
(49.894 13.6578 -1.24077e-16)
(49.8827 13.6207 0)
(49.8708 13.5854 6.09458e-18)
(49.8584 13.5519 -3.04965e-16)
(49.8457 13.5201 3.5831e-16)
(49.8327 13.49 1.5692e-16)
(49.8196 13.4617 -1.60731e-16)
(49.8067 13.4351 -1.73539e-17)
(49.7942 13.4102 -1.30348e-16)
(49.7815 13.3873 2.29112e-16)
(49.7688 13.3667 1.44627e-17)
(49.7627 13.346 0)
(49.7563 13.325 0)
(49.9744 14.3214 -3.12557e-18)
(49.9756 14.256 2.87815e-18)
(49.9754 14.1932 -1.03e-17)
(49.9739 14.133 0)
(49.9711 14.0752 -6.42153e-17)
(49.9671 14.0199 6.64925e-17)
(49.9619 13.9668 -1.18677e-16)
(49.9557 13.916 1.05825e-16)
(49.9485 13.8673 9.70439e-17)
(49.9404 13.8207 1.80336e-16)
(49.9314 13.7761 8.43e-17)
(49.9215 13.7336 3.02877e-16)
(49.9109 13.6929 0)
(49.8996 13.6541 0)
(49.8877 13.6171 1.25228e-16)
(49.8753 13.5819 -1.22174e-16)
(49.8625 13.5485 1.94674e-16)
(49.8493 13.5169 -1.79191e-16)
(49.8359 13.487 -3.23777e-16)
(49.8223 13.4588 -1.55754e-16)
(49.809 13.4325 -1.82544e-17)
(49.7961 13.4078 3.32403e-17)
(49.7831 13.3852 1.27397e-16)
(49.7701 13.3651 0)
(49.764 13.3446 0)
(49.7577 13.3238 0)
(49.987 14.3859 3.26187e-18)
(49.9888 14.3177 -3.00381e-18)
(49.9893 14.2521 5.52757e-18)
(49.9883 14.1893 0)
(49.986 14.129 0)
(49.9825 14.0712 -6.72034e-17)
(49.9777 14.0158 0)
(49.9719 13.9627 1.09372e-16)
(49.965 13.9119 0)
(49.9572 13.8632 0)
(49.9484 13.8166 -9.54003e-17)
(49.9388 13.7721 -9.34071e-17)
(49.9283 13.7296 -3.06705e-16)
(49.9171 13.689 0)
(49.9053 13.6502 -8.28821e-18)
(49.8928 13.6134 -1.02347e-16)
(49.8799 13.5783 2.16764e-16)
(49.8665 13.545 0)
(49.8528 13.5136 -1.85105e-16)
(49.839 13.4838 3.37463e-16)
(49.825 13.4559 1.83178e-16)
(49.8112 13.4298 7.41115e-19)
(49.7981 13.4054 -1.51689e-16)
(49.7848 13.3831 -2.46728e-16)
(49.7713 13.3634 1.46798e-17)
(49.7652 13.3432 0)
(49.7593 13.3226 0)
(49.9998 14.4532 5.62398e-17)
(50.0023 14.382 -3.50222e-18)
(50.0034 14.3136 0)
(50.003 14.248 -8.76538e-17)
(50.0012 14.1851 0)
(49.9982 14.1248 0)
(49.9939 14.0669 7.0466e-17)
(49.9884 14.0115 7.97492e-18)
(49.9819 13.9584 0)
(49.9744 13.9075 0)
(49.9658 13.8589 -1.14911e-16)
(49.9564 13.8124 1.12526e-17)
(49.9462 13.7679 1.71531e-16)
(49.9351 13.7254 6.25711e-18)
(49.9233 13.6849 8.65285e-18)
(49.9109 13.6463 0)
(49.8979 13.6095 1.20787e-16)
(49.8845 13.5746 -1.08381e-16)
(49.8706 13.5414 0)
(49.8564 13.5101 1.83143e-16)
(49.8421 13.4806 -1.90059e-16)
(49.8277 13.4529 -1.8798e-16)
(49.8135 13.427 0)
(49.8 13.4029 -1.95892e-17)
(49.7864 13.3809 -1.53268e-17)
(49.7726 13.3616 0)
(49.7665 13.3417 2.40428e-16)
(49.7608 13.3212 0)
(50.0127 14.5235 8.15173e-18)
(50.016 14.4492 -1.16392e-16)
(50.0177 14.3778 -1.1578e-16)
(50.0179 14.3094 9.70437e-17)
(50.0167 14.2437 9.21867e-17)
(50.0142 14.1807 0)
(50.0103 14.1203 -5.0782e-18)
(50.0053 14.0624 0)
(49.9992 14.007 0)
(49.9919 13.9539 7.83863e-18)
(49.9837 13.9031 1.39711e-17)
(49.9745 13.8544 -2.54072e-18)
(49.9644 13.8079 1.20543e-17)
(49.9535 13.7635 -1.79845e-16)
(49.9419 13.7211 1.55175e-16)
(49.9295 13.6807 1.36188e-16)
(49.9166 13.6421 -1.33212e-16)
(49.903 13.6055 -1.34967e-16)
(49.889 13.5707 9.76812e-17)
(49.8746 13.5377 1.30638e-17)
(49.86 13.5065 2.34072e-17)
(49.8452 13.4772 -1.63181e-16)
(49.8304 13.4497 1.67289e-16)
(49.8158 13.4241 -1.48627e-16)
(49.8019 13.4002 2.55064e-16)
(49.788 13.3786 0)
(49.7739 13.3597 -1.45828e-17)
(49.7678 13.3401 -2.24576e-16)
(49.7625 13.3198 -2.23033e-16)
(50.0259 14.5967 -7.72057e-17)
(50.03 14.5192 6.28915e-17)
(50.0324 14.4448 6.37171e-17)
(50.0332 14.3734 -3.28504e-18)
(50.0326 14.3048 -1.0832e-16)
(50.0305 14.2391 0)
(50.0272 14.176 9.35808e-17)
(50.0226 14.1156 5.14388e-18)
(50.0168 14.0577 0)
(50.0099 14.0022 -8.18246e-18)
(50.0019 13.9492 -1.54321e-17)
(49.993 13.8984 1.14311e-16)
(49.9832 13.8498 8.95899e-17)
(49.9725 13.8033 0)
(49.9609 13.759 1.86577e-16)
(49.9487 13.7166 1.98803e-17)
(49.9357 13.6763 -1.43766e-16)
(49.9222 13.6379 1.4793e-16)
(49.9081 13.6013 1.2247e-16)
(49.8936 13.5666 8.73051e-17)
(49.8787 13.5338 -2.57175e-17)
(49.8636 13.5028 0)
(49.8483 13.4737 1.61387e-16)
(49.833 13.4464 -9.22965e-19)
(49.8181 13.421 1.64645e-16)
(49.8039 13.3975 2.20683e-18)
(49.7897 13.3762 2.72548e-16)
(49.7752 13.3578 2.3463e-16)
(49.769 13.3384 -1.41097e-17)
(49.7642 13.3182 2.48258e-16)
(50.0393 14.6732 -5.07042e-18)
(50.0441 14.5924 1.45357e-16)
(50.0473 14.5147 -7.04127e-17)
(50.0487 14.4402 -1.25379e-16)
(50.0487 14.3686 2.27036e-16)
(50.0472 14.3 6.72412e-18)
(50.0443 14.2342 0)
(50.0402 14.1711 -9.24034e-17)
(50.0348 14.1107 5.20784e-18)
(50.0282 14.0528 0)
(50.0206 13.9973 -1.29515e-16)
(50.012 13.9442 -8.0262e-18)
(50.0024 13.8935 -1.12854e-16)
(49.9918 13.8449 1.0582e-16)
(49.9805 13.7985 -1.16523e-17)
(49.9683 13.7543 -1.84006e-16)
(49.9555 13.712 0)
(49.9419 13.6717 1.57946e-16)
(49.9278 13.6334 1.63837e-17)
(49.9132 13.597 -2.31468e-16)
(49.8981 13.5625 -2.09927e-16)
(49.8827 13.5298 1.33175e-17)
(49.8671 13.499 1.92174e-16)
(49.8514 13.4701 2.13993e-17)
(49.8357 13.443 1.41997e-16)
(49.8203 13.4179 1.50098e-16)
(49.8058 13.3946 -1.36452e-16)
(49.7913 13.3737 -2.7051e-16)
(49.7765 13.3557 -2.18002e-16)
(49.7703 13.3367 -1.51316e-17)
(49.7659 13.3166 2.2611e-16)
(32.2285 -2.95238 0)
(50.0529 14.753 8.79365e-17)
(50.0586 14.6686 4.88078e-18)
(50.0624 14.5876 -1.43217e-16)
(50.0646 14.5099 6.46521e-17)
(50.0652 14.4352 2.58164e-16)
(50.0642 14.3636 -1.20647e-16)
(50.0619 14.2949 -1.14142e-16)
(50.0582 14.2291 0)
(50.0532 14.166 -1.11783e-17)
(50.047 14.1055 -1.65888e-16)
(50.0397 14.0476 0)
(50.0314 13.9922 1.44378e-16)
(50.022 13.9391 -1.35727e-16)
(50.0117 13.8884 1.09401e-16)
(50.0005 13.8399 1.60177e-17)
(49.9885 13.7936 1.2458e-17)
(49.9757 13.7494 1.79087e-16)
(49.9622 13.7072 -2.03018e-17)
(49.9481 13.667 1.2647e-17)
(49.9334 13.6288 -1.54729e-16)
(49.9182 13.5926 2.48879e-16)
(49.9027 13.5582 -1.39015e-17)
(49.8867 13.5257 0)
(49.8707 13.4951 3.4688e-18)
(49.8545 13.4663 1.02501e-17)
(49.8384 13.4395 -1.61204e-16)
(49.8226 13.4147 -3.18318e-16)
(49.8077 13.3917 -2.80985e-16)
(49.793 13.3711 -1.64437e-17)
(49.7778 13.3536 -1.47926e-17)
(49.7716 13.3349 2.3023e-16)
(49.7677 13.3148 -2.00647e-16)
(34.7182 -3.16355 0)
(32.6922 -2.92511 1.65008e-15)
(50.0667 14.8362 -9.7031e-17)
(50.0732 14.7482 -5.65735e-18)
(50.0779 14.6638 0)
(50.0807 14.5826 7.83702e-17)
(50.082 14.5047 1.93196e-18)
(50.0816 14.43 -2.53794e-16)
(50.0798 14.3583 1.32848e-16)
(50.0766 14.2896 9.89159e-17)
(50.072 14.2237 5.99357e-18)
(50.0662 14.1606 9.14649e-17)
(50.0593 14.1001 1.74338e-16)
(50.0512 14.0422 0)
(50.0421 13.9868 -1.32353e-16)
(50.032 13.9338 2.62726e-16)
(50.021 13.8831 -1.29612e-16)
(50.0092 13.8347 -2.26694e-16)
(49.9965 13.7884 -1.97677e-16)
(49.9831 13.7443 -1.66162e-16)
(49.969 13.7022 5.70038e-19)
(49.9543 13.6622 2.12825e-17)
(49.939 13.6241 1.35806e-16)
(49.9233 13.588 -1.24386e-16)
(49.9072 13.5537 0)
(49.8908 13.5214 0)
(49.8742 13.491 -3.75522e-16)
(49.8576 13.4625 0)
(49.841 13.4359 0)
(49.8249 13.4113 1.62529e-17)
(49.8097 13.3886 1.32035e-17)
(49.7946 13.3683 -1.65395e-17)
(49.7791 13.3513 -2.37509e-16)
(49.7729 13.3329 -2.28541e-16)
(49.7696 13.3129 2.36975e-17)
(36.6037 -3.32309 0)
(35.1913 -3.13328 -8.13643e-21)
(33.1549 -2.89397 2.92472e-21)
(50.0807 14.923 5.81445e-17)
(50.0882 14.8313 6.10119e-18)
(50.0936 14.7432 0)
(50.0972 14.6585 0)
(50.0991 14.5773 4.87454e-18)
(50.0994 14.4993 -6.88896e-17)
(50.0981 14.4245 -1.94961e-17)
(50.0954 14.3527 -1.09367e-16)
(50.0913 14.284 0)
(50.0859 14.218 -9.44116e-17)
(50.0793 14.1549 -3.02744e-18)
(50.0715 14.0944 0)
(50.0627 14.0366 1.65218e-16)
(50.0529 13.9812 -3.21403e-18)
(50.0421 13.9282 -1.27374e-16)
(50.0304 13.8776 -1.19217e-16)
(50.0178 13.8292 1.06764e-16)
(50.0045 13.7831 1.9542e-16)
(49.9905 13.739 1.59933e-16)
(49.9758 13.6971 -1.66985e-16)
(49.9605 13.6571 -1.49768e-16)
(49.9446 13.6192 -1.7808e-17)
(49.9284 13.5832 0)
(49.9117 13.5491 0)
(49.8948 13.517 0)
(49.8777 13.4868 1.93584e-16)
(49.8606 13.4584 0)
(49.8437 13.4321 0)
(49.8271 13.4078 1.72621e-17)
(49.8116 13.3854 1.34543e-17)
(49.7963 13.3655 0)
(49.7804 13.349 4.74045e-16)
(49.7742 13.3309 2.86341e-17)
(49.7715 13.3109 2.36903e-17)
(37.9851 -3.43641 0)
(37.0924 -3.29037 -3.48325e-16)
(35.6657 -3.09884 4.87666e-16)
(33.6217 -2.85897 -1.74884e-15)
(50.095 15.0135 5.48977e-17)
(50.1033 14.9179 -1.11145e-16)
(50.1096 14.826 1.96297e-16)
(50.114 14.7377 -9.18176e-17)
(50.1166 14.653 -8.96747e-17)
(50.1175 14.5716 0)
(50.1168 14.4935 8.61502e-18)
(50.1146 14.4187 1.2834e-16)
(50.111 14.3469 1.20967e-16)
(50.106 14.2781 -6.68093e-18)
(50.0998 14.2121 9.3335e-17)
(50.0923 14.149 -9.12551e-17)
(50.0838 14.0886 -1.0308e-17)
(50.0742 14.0307 -3.00323e-16)
(50.0636 13.9754 1.4053e-16)
(50.0521 13.9225 0)
(50.0397 13.8719 1.33146e-16)
(50.0265 13.8236 -1.40233e-17)
(50.0125 13.7775 2.49654e-17)
(49.9978 13.7336 -3.6479e-16)
(49.9825 13.6918 1.65216e-16)
(49.9666 13.652 1.85857e-17)
(49.9502 13.6141 1.79652e-17)
(49.9334 13.5783 -2.57952e-16)
(49.9162 13.5444 1.5047e-17)
(49.8988 13.5124 2.30105e-16)
(49.8812 13.4824 -1.98343e-16)
(49.8637 13.4543 0)
(49.8463 13.4282 -1.87595e-16)
(49.8293 13.4042 3.0582e-16)
(49.8135 13.3821 -3.65401e-18)
(49.7979 13.3625 -1.67138e-17)
(49.7817 13.3466 -2.66476e-16)
(49.7756 13.3288 -2.87063e-17)
(49.7734 13.3088 -2.76804e-17)
(39.1347 -3.52688 0)
(38.4863 -3.4019 0)
(37.5831 -3.25357 3.59648e-16)
(36.1449 -3.06027 1.57572e-20)
(34.0905 -2.81877 0)
(50.1095 15.1079 2.11991e-18)
(50.1188 15.0082 1.73643e-18)
(50.126 14.9124 1.09685e-16)
(50.1312 14.8203 -9.80546e-17)
(50.1345 14.7319 8.45478e-17)
(50.1361 14.647 8.33392e-17)
(50.136 14.5656 0)
(50.1343 14.4875 0)
(50.1311 14.4125 -1.41597e-16)
(50.1266 14.3407 -2.41573e-16)
(50.1207 14.2719 0)
(50.1137 14.206 -1.09479e-16)
(50.1054 14.1428 1.19989e-17)
(50.0961 14.0824 1.62555e-16)
(50.0857 14.0246 1.54973e-16)
(50.0744 13.9693 0)
(50.0621 13.9165 1.16764e-16)
(50.049 13.866 1.46352e-17)
(50.0351 13.8178 -2.21463e-16)
(50.0205 13.7718 0)
(50.0052 13.728 3.6811e-16)
(49.9893 13.6863 -1.08298e-17)
(49.9728 13.6466 -3.85573e-17)
(49.9558 13.6089 -1.24002e-16)
(49.9384 13.5732 -3.65265e-18)
(49.9207 13.5395 -1.4383e-17)
(49.9028 13.5077 -2.14395e-16)
(49.8847 13.4779 2.09358e-16)
(49.8667 13.45 1.83288e-16)
(49.8489 13.4242 -2.38091e-17)
(49.8316 13.4005 2.03924e-18)
(49.8154 13.3787 3.00326e-16)
(49.7996 13.3595 -1.67925e-17)
(49.783 13.344 6.07054e-17)
(49.7769 13.3265 3.00146e-17)
(49.7755 13.3065 2.32666e-16)
(40.155 -3.60451 0)
(39.6475 -3.49116 0)
(38.9895 -3.36329 -5.45691e-16)
(38.0767 -3.21158 3.70963e-16)
(36.6231 -3.01683 0)
(34.5627 -2.7742 -1.84693e-15)
(50.1242 15.2063 -1.38221e-16)
(50.1345 15.1024 6.71773e-17)
(50.1427 15.0025 -1.81916e-16)
(50.1487 14.9065 0)
(50.1528 14.8143 -3.24852e-19)
(50.1551 14.7258 0)
(50.1556 14.6408 0)
(50.1544 14.5593 0)
(50.1518 14.4811 -1.37649e-16)
(50.1477 14.4061 -3.23555e-18)
(50.1422 14.3342 1.12785e-16)
(50.1355 14.2654 6.82533e-18)
(50.1275 14.1995 8.90914e-17)
(50.1185 14.1364 -1.90581e-16)
(50.1083 14.076 -1.70834e-16)
(50.0972 14.0183 -1.59901e-16)
(50.0851 13.9631 0)
(50.0721 13.9103 -1.22703e-16)
(50.0583 13.8599 -1.37322e-16)
(50.0438 13.8118 4.58231e-16)
(50.0285 13.7659 2.04985e-16)
(50.0125 13.7222 1.48083e-17)
(49.996 13.6806 2.06725e-17)
(49.9789 13.6411 -1.8908e-17)
(49.9614 13.6035 1.23467e-16)
(49.9434 13.568 5.19662e-16)
(49.9252 13.5345 -2.39775e-16)
(49.9067 13.5029 -1.32807e-17)
(49.8882 13.4732 0)
(49.8698 13.4456 4.85183e-17)
(49.8515 13.4201 1.67011e-16)
(49.8338 13.3966 -1.73464e-16)
(49.8173 13.3751 1.75247e-17)
(49.8012 13.3563 2.33377e-16)
(49.7843 13.3413 -2.40031e-16)
(49.7782 13.3242 0)
(49.7776 13.304 -5.16394e-16)
(41.0985 -3.67406 0)
(40.6795 -3.56776 0)
(40.1627 -3.45102 1.78312e-20)
(39.4958 -3.31931 -2.81634e-16)
(38.5725 -3.16536 0)
(37.1093 -2.9684 5.31134e-16)
(35.0399 -2.72536 0)
(50.1391 15.3089 -8.16531e-17)
(50.1505 15.2006 1.36117e-16)
(50.1596 15.0965 0)
(50.1666 14.9964 1.18174e-16)
(50.1715 14.9002 -3.53619e-19)
(50.1745 14.8079 0)
(50.1756 14.7192 9.51367e-17)
(50.1751 14.6342 0)
(50.1729 14.5526 0)
(50.1693 14.4743 2.9242e-16)
(50.1643 14.3993 2.76853e-16)
(50.1579 14.3275 7.92484e-18)
(50.1502 14.2587 7.27304e-18)
(50.1414 14.1928 1.04944e-16)
(50.1315 14.1297 1.88221e-16)
(50.1206 14.0694 -1.64992e-16)
(50.1087 14.0117 1.58019e-16)
(50.0958 13.9566 -8.90015e-18)
(50.0821 13.9039 -1.17913e-16)
(50.0676 13.8536 1.22048e-16)
(50.0524 13.8056 -2.21763e-16)
(50.0364 13.7598 3.84229e-18)
(50.0198 13.7162 -1.85516e-16)
(50.0027 13.6747 -1.10124e-17)
(49.985 13.6353 2.01365e-17)
(49.9669 13.598 -1.44352e-16)
(49.9484 13.5626 -2.5969e-16)
(49.9296 13.5292 -3.81731e-18)
(49.9107 13.4979 0)
(49.8917 13.4685 -2.45252e-17)
(49.8728 13.4411 -1.83012e-16)
(49.8541 13.4158 4.23697e-17)
(49.836 13.3926 1.36456e-16)
(49.8192 13.3715 3.07206e-16)
(49.8029 13.3529 -2.63688e-16)
(49.7856 13.3386 2.38515e-16)
(49.7795 13.3217 5.90598e-17)
(49.7797 13.3014 2.60248e-16)
(41.9954 -3.73823 1.47491e-16)
(41.6349 -3.63647 0)
(41.2066 -3.52646 1.93511e-16)
(40.681 -3.4055 4.63075e-16)
(40.0055 -3.27079 0)
(39.074 -3.11359 -3.935e-16)
(37.5991 -2.91515 5.45551e-16)
(35.5216 -2.67069 0)
(50.1542 15.4159 -1.66241e-16)
(50.1668 15.303 -2.2634e-18)
(50.1769 15.1945 -7.01274e-17)
(50.1848 15.0901 -4.2174e-18)
(50.1906 14.9899 1.30391e-16)
(50.1943 14.8936 0)
(50.1961 14.8011 -6.62053e-18)
(50.1962 14.7123 -1.96045e-16)
(50.1946 14.6272 0)
(50.1915 14.5456 -1.03233e-17)
(50.1868 14.4673 -1.45985e-16)
(50.1808 14.3923 -2.7963e-16)
(50.1735 14.3204 -1.2553e-16)
(50.165 14.2516 -1.15513e-16)
(50.1553 14.1858 -3.28923e-16)
(50.1446 14.1228 -2.4042e-17)
(50.1328 14.0625 -3.63804e-18)
(50.1201 14.0049 1.52376e-16)
(50.1065 13.9498 -1.66892e-16)
(50.0921 13.8972 1.17203e-16)
(50.0769 13.847 0)
(50.061 13.7991 0)
(50.0443 13.7535 -2.04583e-16)
(50.0271 13.71 2.3634e-17)
(50.0094 13.6687 -1.95082e-16)
(49.9911 13.6295 0)
(49.9724 13.5923 1.43045e-16)
(49.9534 13.5571 -2.82869e-16)
(49.934 13.5239 2.39453e-16)
(49.9146 13.4927 0)
(49.8951 13.4635 0)
(49.8758 13.4364 -4.64384e-17)
(49.8567 13.4113 2.07846e-17)
(49.8382 13.3885 -3.51522e-16)
(49.821 13.3676 -1.53974e-17)
(49.8045 13.3494 -2.50266e-16)
(49.7869 13.3356 -2.70855e-16)
(49.7808 13.3192 -3.02966e-17)
(49.7819 13.2986 2.07845e-16)
(42.8642 -3.79864 -1.43627e-20)
(42.5439 -3.69989 0)
(42.1742 -3.59418 0)
(41.7373 -3.4797 -2.00212e-16)
(41.2037 -3.35546 0)
(40.5204 -3.21647 2.99339e-16)
(39.5806 -3.0568 -8.09621e-16)
(38.094 -2.85576 0)
(36.0125 -2.61146 0)
(50.1696 15.5273 -1.7185e-19)
(50.1834 15.4097 8.30456e-17)
(50.1946 15.2966 7.68559e-17)
(50.2034 15.1879 7.74568e-17)
(50.2101 15.0833 0)
(50.2146 14.9829 -1.21169e-16)
(50.2171 14.8865 6.90458e-18)
(50.2178 14.7939 6.35981e-18)
(50.2168 14.7051 9.48185e-17)
(50.2142 14.6199 1.07688e-17)
(50.21 14.5382 -1.04271e-17)
(50.2043 14.4599 -9.58208e-18)
(50.1974 14.3849 1.35914e-16)
(50.1891 14.3131 1.24342e-16)
(50.1797 14.2443 1.28128e-16)
(50.1692 14.1785 8.44727e-18)
(50.1576 14.1156 0)
(50.145 14.0554 3.65758e-16)
(50.1315 13.9978 -1.60893e-16)
(50.1172 13.9429 1.47289e-16)
(50.102 13.8904 0)
(50.0861 13.8403 -2.51229e-16)
(50.0695 13.7925 1.46413e-17)
(50.0523 13.747 -2.60578e-17)
(50.0344 13.7037 0)
(50.016 13.6625 3.478e-16)
(49.9971 13.6234 -2.04477e-17)
(49.9779 13.5864 -1.28762e-16)
(49.9583 13.5514 2.63641e-16)
(49.9385 13.5184 -2.29182e-16)
(49.9185 13.4874 0)
(49.8985 13.4584 -1.80076e-16)
(49.8787 13.4315 0)
(49.8592 13.4068 -1.04821e-18)
(49.8403 13.3842 -1.20137e-16)
(49.8229 13.3637 -3.05825e-16)
(49.8061 13.3458 2.65635e-16)
(49.7882 13.3326 4.80316e-16)
(49.7821 13.3165 5.92397e-17)
(49.7841 13.2957 2.2236e-18)
(43.7175 -3.85636 -1.50342e-20)
(43.4253 -3.75966 0)
(43.0958 -3.65679 0)
(42.7176 -3.5464 1.79412e-16)
(42.2729 -3.42819 0)
(41.7318 -3.29919 0)
(41.0408 -3.15718 2.8459e-20)
(40.0928 -2.99391 1.24448e-20)
(38.5975 -2.7921 0)
(36.5063 -2.54509 3.05665e-20)
(50.1852 15.6434 5.20979e-17)
(50.2002 15.521 -3.21808e-18)
(50.2126 15.4031 5.47645e-18)
(50.2225 15.2898 -5.06434e-18)
(50.23 15.1808 -7.19597e-17)
(50.2354 15.0761 0)
(50.2387 14.9755 7.96832e-18)
(50.24 14.879 0)
(50.2396 14.7863 0)
(50.2374 14.6974 6.22566e-18)
(50.2337 14.6122 1.9134e-16)
(50.2285 14.5305 -1.55823e-16)
(50.2219 14.4522 -1.6146e-16)
(50.2139 14.3772 0)
(50.2048 14.3054 0)
(50.1944 14.2367 -1.32501e-16)
(50.183 14.171 2.24808e-16)
(50.1706 14.1081 1.256e-17)
(50.1572 14.048 3.50135e-18)
(50.143 13.9905 1.65414e-16)
(50.1278 13.9357 0)
(50.112 13.8833 1.76415e-17)
(50.0953 13.8333 2.49515e-16)
(50.078 13.7857 -2.1747e-16)
(50.0601 13.7403 0)
(50.0416 13.6971 0)
(50.0226 13.6561 -1.74966e-16)
(50.0032 13.6172 0)
(49.9833 13.5803 1.45211e-16)
(49.9632 13.5455 -1.62985e-17)
(49.9428 13.5127 2.42852e-16)
(49.9224 13.4819 0)
(49.9019 13.4532 2.03398e-16)
(49.8817 13.4265 1.87494e-16)
(49.8618 13.402 -4.30376e-17)
(49.8425 13.3798 3.3367e-16)
(49.8247 13.3596 0)
(49.8078 13.3421 -3.42076e-17)
(49.7895 13.3294 -2.69774e-16)
(49.7833 13.3136 0)
(49.7865 13.2925 -2.35445e-16)
(44.5637 -3.91211 -1.59079e-20)
(44.2914 -3.81679 0)
(43.9902 -3.71581 0)
(43.6524 -3.60802 -1.91953e-20)
(43.2665 -3.49364 0)
(42.8142 -3.3705 0)
(42.2658 -3.23799 2.54255e-16)
(41.5677 -3.09165 0)
(40.6127 -2.92574 4.27433e-16)
(39.1045 -2.72204 1.17768e-15)
(37.0097 -2.4744 0)
(50.2011 15.7644 0)
(50.2174 15.6368 6.1663e-18)
(50.2309 15.5141 -1.92706e-16)
(50.2419 15.396 5.27909e-18)
(50.2504 15.2824 0)
(50.2566 15.1733 -7.47596e-17)
(50.2607 15.0684 -8.30869e-18)
(50.2628 14.9677 8.05443e-18)
(50.2629 14.8711 0)
(50.2613 14.7783 -1.33261e-17)
(50.2581 14.6894 0)
(50.2533 14.6041 -3.60199e-16)
(50.247 14.5224 1.63664e-16)
(50.2394 14.4442 1.60085e-16)
(50.2305 14.3692 0)
(50.2204 14.2975 2.38176e-17)
(50.2091 14.2288 -1.66759e-17)
(50.1968 14.1631 1.90285e-16)
(50.1836 14.1003 0)
(50.1694 14.0403 1.50305e-17)
(50.1543 13.983 -1.52995e-16)
(50.1385 13.9282 1.02567e-18)
(50.1219 13.876 -1.68364e-17)
(50.1045 13.8261 0)
(50.0866 13.7786 2.29188e-16)
(50.068 13.7334 0)
(50.0488 13.6904 -1.96015e-16)
(50.0292 13.6495 0)
(50.0092 13.6108 -1.625e-16)
(49.9888 13.5741 -2.96919e-16)
(49.9681 13.5394 0)
(49.9472 13.5068 -1.58267e-17)
(49.9262 13.4763 -2.26597e-16)
(49.9053 13.4478 -1.82091e-16)
(49.8846 13.4214 -1.64387e-16)
(49.8643 13.3972 -2.10816e-17)
(49.8446 13.3752 -3.38204e-16)
(49.8265 13.3553 3.28387e-16)
(49.8094 13.3382 0)
(49.7908 13.3261 2.41164e-16)
(49.7846 13.3107 2.88505e-17)
(49.7888 13.2892 -2.32327e-17)
(45.4091 -3.96633 -1.6893e-20)
(45.1509 -3.87195 0)
(44.8699 -3.77225 0)
(44.5605 -3.66616 -3.09902e-16)
(44.215 -3.55422 0)
(43.8216 -3.43463 0)
(43.3623 -3.30759 0)
(42.8069 -3.17015 0)
(42.1025 -3.02061 -3.39924e-20)
(41.1399 -2.85161 -8.77592e-16)
(39.6251 -2.64599 0)
(37.5227 -2.3966 -2.13921e-15)
(50.2171 15.8904 5.86857e-17)
(50.2348 15.7576 3.54031e-18)
(50.2496 15.6297 0)
(50.2617 15.5067 1.89356e-16)
(50.2712 15.3883 9.43089e-17)
(50.2784 15.2746 -5.18493e-18)
(50.2833 15.1653 7.36692e-17)
(50.2861 15.0603 1.39767e-16)
(50.2869 14.9595 8.13768e-18)
(50.2858 14.8627 1.32806e-16)
(50.2831 14.77 1.08737e-16)
(50.2787 14.681 0)
(50.2728 14.5957 3.63515e-16)
(50.2655 14.514 -2.09006e-17)
(50.2569 14.4358 1.5492e-16)
(50.247 14.3609 1.42584e-16)
(50.2359 14.2892 0)
(50.2238 14.2206 3.70478e-16)
(50.2106 14.155 -2.14718e-16)
(50.1965 14.0923 -1.2099e-17)
(50.1815 14.0324 -1.91229e-16)
(50.1657 13.9752 -2.02752e-17)
(50.1491 13.9205 0)
(50.1317 13.8684 -1.22583e-16)
(50.1137 13.8187 0)
(50.095 13.7714 0)
(50.0758 13.7263 2.59181e-17)
(50.056 13.6834 2.19359e-17)
(50.0358 13.6427 2.28593e-17)
(50.0152 13.6042 1.61143e-16)
(49.9942 13.5677 -4.30806e-18)
(49.9729 13.5332 1.65123e-17)
(49.9515 13.5008 1.59258e-17)
(49.9301 13.4705 4.52837e-16)
(49.9087 13.4422 2.32396e-16)
(49.8875 13.4161 0)
(49.8668 13.3921 2.11698e-17)
(49.8467 13.3705 3.16024e-16)
(49.8283 13.3509 -2.91042e-16)
(49.811 13.3341 2.69838e-16)
(49.7921 13.3226 -2.70047e-16)
(49.7858 13.3076 2.59607e-16)
(49.7912 13.2856 0)
(46.2584 -4.0194 -1.8182e-20)
(46.01 -3.92567 1.28098e-16)
(45.7432 -3.82675 0)
(45.4543 -3.72177 1.47731e-16)
(45.1373 -3.61136 0)
(44.7845 -3.49402 -1.7712e-16)
(44.3842 -3.3702 0)
(43.9179 -3.23791 0)
(43.3565 -3.0968 -2.69648e-16)
(42.6462 -2.94318 3.66239e-20)
(41.6781 -2.77065 0)
(40.1529 -2.56315 5.39469e-20)
(38.0464 -2.31285 -1.09427e-15)
(50.2334 16.0216 -4.17232e-18)
(50.2525 15.8833 -3.6888e-18)
(50.2686 15.7502 0)
(50.2819 15.622 0)
(50.2925 15.4988 -1.00383e-16)
(50.3006 15.3802 -8.19761e-17)