/*--------------------------------*- C++ -*----------------------------------*\
  =========                 |
  \\      /  F ield         | OpenFOAM: The Open Source CFD Toolbox
   \\    /   O peration     | Website:  https://openfoam.org
    \\  /    A nd           | Version:  7
     \\/     M anipulation  |
\*---------------------------------------------------------------------------*/
FoamFile
{
    version     2.0;
    format      ascii;
    class       volScalarField;
    location    "200";
    object      nut;
}
// * * * * * * * * * * * * * * * * * * * * * * * * * * * * * * * * * * * * * //

dimensions      [0 2 -1 0 0 0 0];

internalField   nonuniform List<scalar> 
23023
(
5.33779e-06
5.33648e-06
5.34124e-06
5.32834e-06
5.3404e-06
5.34474e-06
5.32136e-06
5.33222e-06
5.34439e-06
5.34828e-06
5.32524e-06
5.33617e-06
5.34844e-06
5.35185e-06
5.31626e-06
5.32921e-06
5.3402e-06
5.35255e-06
5.35545e-06
5.30703e-06
5.32014e-06
5.33327e-06
5.34431e-06
5.35673e-06
5.35909e-06
5.29738e-06
5.31074e-06
5.32412e-06
5.33742e-06
5.34849e-06
5.36096e-06
5.36275e-06
5.28797e-06
5.30086e-06
5.31458e-06
5.3282e-06
5.34166e-06
5.35273e-06
5.36524e-06
5.36644e-06
5.27926e-06
5.29112e-06
5.30447e-06
5.31854e-06
5.33239e-06
5.34599e-06
5.35705e-06
5.36957e-06
5.37015e-06
5.27201e-06
5.28198e-06
5.29441e-06
5.30821e-06
5.32261e-06
5.33668e-06
5.3504e-06
5.36143e-06
5.37396e-06
5.37387e-06
5.27416e-06
5.28485e-06
5.29785e-06
5.31208e-06
5.3268e-06
5.34107e-06
5.35489e-06
5.36588e-06
5.37839e-06
5.37761e-06
5.26863e-06
5.2765e-06
5.28788e-06
5.30143e-06
5.31608e-06
5.3311e-06
5.34555e-06
5.35946e-06
5.37038e-06
5.38286e-06
5.38137e-06
5.26675e-06
5.27026e-06
5.279e-06
5.29107e-06
5.30515e-06
5.32021e-06
5.33551e-06
5.35013e-06
5.36411e-06
5.37494e-06
5.38736e-06
5.38513e-06
5.27053e-06
5.26747e-06
5.27209e-06
5.28168e-06
5.29442e-06
5.30902e-06
5.32446e-06
5.34003e-06
5.3548e-06
5.36883e-06
5.37955e-06
5.39191e-06
5.3889e-06
5.28143e-06
5.27004e-06
5.26841e-06
5.27411e-06
5.28453e-06
5.29792e-06
5.31303e-06
5.32884e-06
5.34466e-06
5.35956e-06
5.37362e-06
5.38422e-06
5.39649e-06
5.39268e-06
5.28002e-06
5.2698e-06
5.26956e-06
5.27631e-06
5.28756e-06
5.30159e-06
5.31718e-06
5.33334e-06
5.3494e-06
5.36441e-06
5.37848e-06
5.38893e-06
5.40109e-06
5.39645e-06
5.29422e-06
5.27863e-06
5.26981e-06
5.27092e-06
5.27871e-06
5.29076e-06
5.3054e-06
5.32147e-06
5.33797e-06
5.35424e-06
5.36934e-06
5.38341e-06
5.39369e-06
5.40572e-06
5.40022e-06
5.30886e-06
5.29283e-06
5.27734e-06
5.27006e-06
5.27251e-06
5.28131e-06
5.29413e-06
5.30938e-06
5.32589e-06
5.34271e-06
5.35918e-06
5.37436e-06
5.3884e-06
5.39849e-06
5.41038e-06
5.40399e-06
5.30795e-06
5.29132e-06
5.27619e-06
5.27055e-06
5.2743e-06
5.28409e-06
5.29767e-06
5.3135e-06
5.33045e-06
5.34758e-06
5.36423e-06
5.37945e-06
5.39345e-06
5.40333e-06
5.41505e-06
5.40774e-06
5.32257e-06
5.30689e-06
5.28972e-06
5.27526e-06
5.2713e-06
5.27632e-06
5.28706e-06
5.30138e-06
5.31778e-06
5.33515e-06
5.35256e-06
5.36937e-06
5.38462e-06
5.39855e-06
5.4082e-06
5.41973e-06
5.41148e-06
5.33644e-06
5.32209e-06
5.30567e-06
5.28806e-06
5.27459e-06
5.27228e-06
5.27854e-06
5.29023e-06
5.30527e-06
5.32221e-06
5.33998e-06
5.35765e-06
5.3746e-06
5.38987e-06
5.40371e-06
5.41311e-06
5.42443e-06
5.41521e-06
5.34936e-06
5.33655e-06
5.32145e-06
5.30429e-06
5.28638e-06
5.2742e-06
5.27352e-06
5.28098e-06
5.29358e-06
5.30932e-06
5.32679e-06
5.34494e-06
5.36286e-06
5.37993e-06
5.39519e-06
5.40891e-06
5.41804e-06
5.42914e-06
5.41891e-06
5.36105e-06
5.3501e-06
5.33652e-06
5.32064e-06
5.30276e-06
5.28474e-06
5.2741e-06
5.275e-06
5.28363e-06
5.29712e-06
5.31354e-06
5.33152e-06
5.35003e-06
5.36817e-06
5.38534e-06
5.40057e-06
5.41416e-06
5.423e-06
5.43385e-06
5.4226e-06
5.36245e-06
5.3507e-06
5.33633e-06
5.31967e-06
5.30109e-06
5.28318e-06
5.27428e-06
5.27672e-06
5.2865e-06
5.30085e-06
5.31793e-06
5.3364e-06
5.35525e-06
5.3736e-06
5.39084e-06
5.40602e-06
5.41946e-06
5.42797e-06
5.43855e-06
5.42625e-06
5.37325e-06
5.36372e-06
5.35115e-06
5.33598e-06
5.31852e-06
5.2993e-06
5.28178e-06
5.27474e-06
5.27868e-06
5.28957e-06
5.30476e-06
5.32248e-06
5.34142e-06
5.3606e-06
5.37913e-06
5.39643e-06
5.41153e-06
5.42479e-06
5.43297e-06
5.44326e-06
5.42988e-06
5.38209e-06
5.37522e-06
5.36484e-06
5.35144e-06
5.33546e-06
5.3172e-06
5.29742e-06
5.28058e-06
5.27549e-06
5.28089e-06
5.29285e-06
5.30886e-06
5.32719e-06
5.34659e-06
5.36607e-06
5.38476e-06
5.4021e-06
5.4171e-06
5.43016e-06
5.43797e-06
5.44795e-06
5.43347e-06
5.38479e-06
5.37706e-06
5.36582e-06
5.35158e-06
5.33477e-06
5.31571e-06
5.29548e-06
5.27968e-06
5.27652e-06
5.28333e-06
5.29634e-06
5.31314e-06
5.33207e-06
5.3519e-06
5.37166e-06
5.39049e-06
5.40784e-06
5.42273e-06
5.43556e-06
5.44299e-06
5.45263e-06
5.43703e-06
5.39196e-06
5.38737e-06
5.37876e-06
5.36664e-06
5.35155e-06
5.3339e-06
5.31405e-06
5.29352e-06
5.2791e-06
5.27783e-06
5.28601e-06
5.30004e-06
5.31761e-06
5.33711e-06
5.35735e-06
5.37737e-06
5.39632e-06
5.41366e-06
5.4284e-06
5.44099e-06
5.44801e-06
5.4573e-06
5.44055e-06
5.39622e-06
5.3953e-06
5.38983e-06
5.38032e-06
5.36731e-06
5.35135e-06
5.33286e-06
5.31224e-06
5.29158e-06
5.27885e-06
5.27941e-06
5.28892e-06
5.30394e-06
5.32225e-06
5.34231e-06
5.36293e-06
5.38319e-06
5.40224e-06
5.41955e-06
5.43412e-06
5.44644e-06
5.45303e-06
5.46194e-06
5.44402e-06
5.40033e-06
5.39855e-06
5.39217e-06
5.38173e-06
5.36782e-06
5.35098e-06
5.33163e-06
5.31028e-06
5.28973e-06
5.27893e-06
5.28127e-06
5.29206e-06
5.30804e-06
5.32708e-06
5.34767e-06
5.36866e-06
5.38913e-06
5.40825e-06
5.4255e-06
5.43989e-06
5.45192e-06
5.45805e-06
5.46656e-06
5.44745e-06
5.40191e-06
5.40436e-06
5.40168e-06
5.39436e-06
5.38298e-06
5.36816e-06
5.35044e-06
5.33022e-06
5.3082e-06
5.28804e-06
5.27934e-06
5.2834e-06
5.29544e-06
5.31235e-06
5.33208e-06
5.35318e-06
5.37451e-06
5.39518e-06
5.41435e-06
5.43152e-06
5.44569e-06
5.4574e-06
5.46306e-06
5.47115e-06
5.45083e-06
5.39953e-06
5.4067e-06
5.40831e-06
5.4047e-06
5.39641e-06
5.38408e-06
5.36833e-06
5.34971e-06
5.32862e-06
5.30601e-06
5.28657e-06
5.28007e-06
5.28579e-06
5.29904e-06
5.31685e-06
5.33726e-06
5.35885e-06
5.3805e-06
5.40134e-06
5.42054e-06
5.4376e-06
5.45153e-06
5.4629e-06
5.46807e-06
5.47571e-06
5.45415e-06
5.40502e-06
5.41145e-06
5.41216e-06
5.40759e-06
5.39832e-06
5.38501e-06
5.36832e-06
5.34879e-06
5.32684e-06
5.30376e-06
5.28539e-06
5.28112e-06
5.28846e-06
5.30288e-06
5.32156e-06
5.34262e-06
5.36467e-06
5.38662e-06
5.40761e-06
5.42681e-06
5.44374e-06
5.4574e-06
5.46841e-06
5.47305e-06
5.48023e-06
5.45742e-06
5.39888e-06
5.41051e-06
5.41613e-06
5.41591e-06
5.41034e-06
5.40007e-06
5.38577e-06
5.36813e-06
5.34768e-06
5.32489e-06
5.30149e-06
5.28458e-06
5.28249e-06
5.29138e-06
5.30693e-06
5.32646e-06
5.34814e-06
5.37064e-06
5.39286e-06
5.41397e-06
5.43315e-06
5.44992e-06
5.4633e-06
5.47392e-06
5.47802e-06
5.48471e-06
5.46062e-06
5.38803e-06
5.40499e-06
5.41597e-06
5.42073e-06
5.41954e-06
5.41295e-06
5.40165e-06
5.38636e-06
5.36776e-06
5.34638e-06
5.32277e-06
5.29924e-06
5.28413e-06
5.28417e-06
5.29456e-06
5.31121e-06
5.33156e-06
5.35384e-06
5.37675e-06
5.39923e-06
5.42044e-06
5.43957e-06
5.45616e-06
5.46923e-06
5.47943e-06
5.48296e-06
5.48914e-06
5.46377e-06
5.3946e-06
5.41113e-06
5.42139e-06
5.42525e-06
5.42305e-06
5.41542e-06
5.40307e-06
5.38677e-06
5.36719e-06
5.34488e-06
5.3205e-06
5.29708e-06
5.28406e-06
5.28616e-06
5.298e-06
5.31572e-06
5.33685e-06
5.35971e-06
5.38301e-06
5.40572e-06
5.427e-06
5.44605e-06
5.46244e-06
5.47517e-06
5.48493e-06
5.48787e-06
5.49352e-06
5.46684e-06
5.37943e-06
5.40125e-06
5.41729e-06
5.42677e-06
5.42968e-06
5.42644e-06
5.41772e-06
5.40431e-06
5.38699e-06
5.36643e-06
5.34318e-06
5.31809e-06
5.29507e-06
5.28438e-06
5.28845e-06
5.30169e-06
5.32044e-06
5.34234e-06
5.36574e-06
5.38941e-06
5.41232e-06
5.43365e-06
5.45261e-06
5.46876e-06
5.48112e-06
5.49042e-06
5.49275e-06
5.49784e-06
5.46985e-06
5.3603e-06
5.38633e-06
5.40798e-06
5.42344e-06
5.43209e-06
5.434e-06
5.42968e-06
5.41987e-06
5.40538e-06
5.38702e-06
5.36547e-06
5.34129e-06
5.31558e-06
5.29328e-06
5.28507e-06
5.29104e-06
5.30564e-06
5.32538e-06
5.34801e-06
5.37194e-06
5.39596e-06
5.41904e-06
5.44039e-06
5.45923e-06
5.47512e-06
5.48709e-06
5.49589e-06
5.49759e-06
5.50211e-06
5.47278e-06
5.33937e-06
5.36707e-06
5.39337e-06
5.41476e-06
5.42958e-06
5.43734e-06
5.43821e-06
5.43278e-06
5.42184e-06
5.40626e-06
5.38685e-06
5.36431e-06
5.3392e-06
5.313e-06
5.29179e-06
5.28612e-06
5.29392e-06
5.30983e-06
5.33053e-06
5.35387e-06
5.37831e-06
5.40264e-06
5.42587e-06
5.44722e-06
5.4659e-06
5.48151e-06
5.49306e-06
5.50135e-06
5.50239e-06
5.50631e-06
5.47564e-06
5.3212e-06
5.34545e-06
5.37405e-06
5.40054e-06
5.42159e-06
5.43571e-06
5.44251e-06
5.4423e-06
5.43572e-06
5.42364e-06
5.40695e-06
5.38649e-06
5.36294e-06
5.33692e-06
5.3104e-06
5.29068e-06
5.28753e-06
5.2971e-06
5.31427e-06
5.3359e-06
5.35992e-06
5.38483e-06
5.40945e-06
5.43281e-06
5.45413e-06
5.47263e-06
5.48792e-06
5.49903e-06
5.50678e-06
5.50714e-06
5.51044e-06
5.47842e-06
5.31463e-06
5.32582e-06
5.35182e-06
5.38123e-06
5.40782e-06
5.42845e-06
5.44179e-06
5.4476e-06
5.44625e-06
5.43851e-06
5.42526e-06
5.40745e-06
5.38592e-06
5.36136e-06
5.33447e-06
5.30781e-06
5.28999e-06
5.28929e-06
5.30056e-06
5.31895e-06
5.34148e-06
5.36615e-06
5.39151e-06
5.4164e-06
5.43986e-06
5.46112e-06
5.47941e-06
5.49436e-06
5.50499e-06
5.51218e-06
5.51184e-06
5.5145e-06
5.48112e-06
5.33358e-06
5.3168e-06
5.3308e-06
5.35847e-06
5.3886e-06
5.4152e-06
5.43533e-06
5.44783e-06
5.45258e-06
5.45007e-06
5.44112e-06
5.42669e-06
5.40774e-06
5.38514e-06
5.35956e-06
5.33186e-06
5.30531e-06
5.28973e-06
5.2914e-06
5.30431e-06
5.32387e-06
5.34726e-06
5.37256e-06
5.39834e-06
5.42348e-06
5.44701e-06
5.46818e-06
5.48623e-06
5.50081e-06
5.51095e-06
5.51754e-06
5.51648e-06
5.51848e-06
5.48373e-06
5.33261e-06
5.31935e-06
5.33615e-06
5.3654e-06
5.39616e-06
5.42267e-06
5.44223e-06
5.45381e-06
5.45745e-06
5.45373e-06
5.44356e-06
5.42792e-06
5.40783e-06
5.38415e-06
5.35755e-06
5.32911e-06
5.30295e-06
5.28991e-06
5.29385e-06
5.30833e-06
5.32904e-06
5.35326e-06
5.37916e-06
5.40533e-06
5.43068e-06
5.45425e-06
5.47531e-06
5.4931e-06
5.50728e-06
5.51689e-06
5.52287e-06
5.52107e-06
5.52238e-06
5.48626e-06
5.37371e-06
5.33181e-06
5.3223e-06
5.34186e-06
5.3726e-06
5.40388e-06
5.43023e-06
5.44912e-06
5.45973e-06
5.4622e-06
5.45724e-06
5.44581e-06
5.42896e-06
5.40771e-06
5.38294e-06
5.35533e-06
5.32625e-06
5.30081e-06
5.29052e-06
5.29663e-06
5.31263e-06
5.33443e-06
5.35946e-06
5.38592e-06
5.41247e-06
5.438e-06
5.46159e-06
5.4825e-06
5.5e-06
5.51376e-06
5.52281e-06
5.52815e-06
5.52558e-06
5.5262e-06
5.48869e-06
5.4085e-06
5.37333e-06
5.33125e-06
5.32568e-06
5.34793e-06
5.38007e-06
5.41177e-06
5.43784e-06
5.45599e-06
5.46556e-06
5.46682e-06
5.46058e-06
5.44787e-06
5.42979e-06
5.40738e-06
5.38151e-06
5.35291e-06
5.32331e-06
5.29898e-06
5.29154e-06
5.29974e-06
5.3172e-06
5.34006e-06
5.36586e-06
5.39287e-06
5.41975e-06
5.44544e-06
5.46902e-06
5.48976e-06
5.50693e-06
5.52023e-06
5.52871e-06
5.53338e-06
5.53003e-06
5.52992e-06
5.49103e-06
5.41117e-06
5.37256e-06
5.33113e-06
5.32951e-06
5.35436e-06
5.38779e-06
5.4198e-06
5.44551e-06
5.46283e-06
5.47129e-06
5.4713e-06
5.46374e-06
5.44973e-06
5.4304e-06
5.40682e-06
5.37985e-06
5.35029e-06
5.32034e-06
5.29752e-06
5.29296e-06
5.30317e-06
5.32204e-06
5.34593e-06
5.37246e-06
5.39998e-06
5.42718e-06
5.453e-06
5.47654e-06
5.49707e-06
5.51389e-06
5.52671e-06
5.53457e-06
5.53856e-06
5.53441e-06
5.53355e-06
5.49328e-06
5.43211e-06
5.41346e-06
5.37143e-06
5.33144e-06
5.33379e-06
5.36115e-06
5.39575e-06
5.42797e-06
5.45321e-06
5.46963e-06
5.47692e-06
5.47563e-06
5.46672e-06
5.45139e-06
5.4308e-06
5.40604e-06
5.37796e-06
5.34748e-06
5.31739e-06
5.29653e-06
5.29479e-06
5.30692e-06
5.32715e-06
5.35202e-06
5.37926e-06
5.40727e-06
5.43475e-06
5.46067e-06
5.48413e-06
5.50444e-06
5.52087e-06
5.53317e-06
5.54041e-06
5.54368e-06
5.5387e-06
5.53708e-06
5.49543e-06
5.43455e-06
5.4373e-06
5.41534e-06
5.36996e-06
5.33221e-06
5.33852e-06
5.36829e-06
5.40394e-06
5.43625e-06
5.46094e-06
5.47638e-06
5.48244e-06
5.47979e-06
5.46951e-06
5.45283e-06
5.43098e-06
5.40503e-06
5.37585e-06
5.3445e-06
5.31452e-06
5.29602e-06
5.297e-06
5.31098e-06
5.33252e-06
5.35833e-06
5.38626e-06
5.41472e-06
5.44246e-06
5.46845e-06
5.49181e-06
5.51185e-06
5.52787e-06
5.53963e-06
5.5462e-06
5.54873e-06
5.54291e-06
5.54051e-06
5.49748e-06
5.41974e-06
5.44178e-06
5.44226e-06
5.41678e-06
5.36821e-06
5.33348e-06
5.34372e-06
5.37578e-06
5.41235e-06
5.44465e-06
5.46867e-06
5.48305e-06
5.48782e-06
5.48378e-06
5.4721e-06
5.45406e-06
5.43093e-06
5.40379e-06
5.37351e-06
5.34138e-06
5.31178e-06
5.296e-06
5.29959e-06
5.31535e-06
5.33815e-06
5.36487e-06
5.39345e-06
5.42233e-06
5.4503e-06
5.47633e-06
5.49956e-06
5.5193e-06
5.53488e-06
5.54606e-06
5.55194e-06
5.55371e-06
5.54703e-06
5.54384e-06
5.49943e-06
5.39246e-06
5.42793e-06
5.44896e-06
5.44696e-06
5.41774e-06
5.36625e-06
5.33523e-06
5.34938e-06
5.38359e-06
5.42097e-06
5.45313e-06
5.4764e-06
5.48965e-06
5.49307e-06
5.48759e-06
5.47448e-06
5.45507e-06
5.43065e-06
5.40231e-06
5.37094e-06
5.33814e-06
5.30926e-06
5.29647e-06
5.30256e-06
5.32002e-06
5.34403e-06
5.37164e-06
5.40083e-06
5.43011e-06
5.45827e-06
5.48431e-06
5.50737e-06
5.52679e-06
5.54189e-06
5.55247e-06
5.55764e-06
5.55862e-06
5.55106e-06
5.54706e-06
5.50128e-06
5.35982e-06
5.40045e-06
5.43624e-06
5.45609e-06
5.45136e-06
5.4182e-06
5.36417e-06
5.33749e-06
5.35549e-06
5.39173e-06
5.42978e-06
5.46168e-06
5.48411e-06
5.49614e-06
5.49816e-06
5.49121e-06
5.47664e-06
5.45584e-06
5.43013e-06
5.40058e-06
5.36815e-06
5.33482e-06
5.30705e-06
5.29742e-06
5.3059e-06
5.32499e-06
5.35017e-06
5.37862e-06
5.4084e-06
5.43804e-06
5.46637e-06
5.49239e-06
5.51526e-06
5.53431e-06
5.5489e-06
5.55885e-06
5.56327e-06
5.56344e-06
5.55499e-06
5.55016e-06
5.50302e-06
5.32878e-06
5.36671e-06
5.40869e-06
5.44467e-06
5.46312e-06
5.45543e-06
5.41815e-06
5.36206e-06
5.34026e-06
5.36205e-06
5.40019e-06
5.43876e-06
5.4703e-06
5.49178e-06
5.50253e-06
5.50309e-06
5.49463e-06
5.47858e-06
5.45638e-06
5.42937e-06
5.39862e-06
5.36516e-06
5.33146e-06
5.30521e-06
5.29883e-06
5.30959e-06
5.33026e-06
5.35656e-06
5.38582e-06
5.41615e-06
5.44613e-06
5.4746e-06
5.50056e-06
5.5232e-06
5.54186e-06
5.55591e-06
5.56519e-06
5.56885e-06
5.56818e-06
5.55883e-06
5.55314e-06
5.50466e-06
5.30452e-06
5.33411e-06
5.37389e-06
5.41716e-06
5.45319e-06
5.47003e-06
5.45912e-06
5.41758e-06
5.36007e-06
5.34357e-06
5.36906e-06
5.40893e-06
5.4479e-06
5.47896e-06
5.49941e-06
5.50879e-06
5.50785e-06
5.49784e-06
5.48029e-06
5.45668e-06
5.42836e-06
5.3964e-06
5.36196e-06
5.32811e-06
5.30384e-06
5.30069e-06
5.31364e-06
5.33582e-06
5.3632e-06
5.39323e-06
5.42408e-06
5.45437e-06
5.48294e-06
5.50882e-06
5.53119e-06
5.54943e-06
5.5629e-06
5.5715e-06
5.57435e-06
5.57283e-06
5.56255e-06
5.55601e-06
5.50619e-06
5.28974e-06
5.30826e-06
5.33971e-06
5.38136e-06
5.42587e-06
5.46179e-06
5.47678e-06
5.46239e-06
5.41648e-06
5.35835e-06
5.34745e-06
5.37651e-06
5.41797e-06
5.45719e-06
5.48765e-06
5.50696e-06
5.51492e-06
5.51242e-06
5.50084e-06
5.48176e-06
5.45673e-06
5.4271e-06
5.39394e-06
5.35859e-06
5.32483e-06
5.30302e-06
5.30299e-06
5.31803e-06
5.34166e-06
5.37008e-06
5.40085e-06
5.4322e-06
5.46276e-06
5.4914e-06
5.51716e-06
5.53923e-06
5.55701e-06
5.56988e-06
5.57775e-06
5.57979e-06
5.57739e-06
5.56617e-06
5.55875e-06
5.50761e-06
5.28479e-06
5.2922e-06
5.3122e-06
5.34558e-06
5.38913e-06
5.4348e-06
5.47043e-06
5.48334e-06
5.46521e-06
5.41489e-06
5.35701e-06
5.35191e-06
5.38439e-06
5.42727e-06
5.46661e-06
5.49634e-06
5.51444e-06
5.5209e-06
5.51679e-06
5.50361e-06
5.483e-06
5.45654e-06
5.42558e-06
5.39124e-06
5.35507e-06
5.32169e-06
5.30273e-06
5.30572e-06
5.32276e-06
5.34779e-06
5.37721e-06
5.40868e-06
5.44049e-06
5.4713e-06
5.49997e-06
5.52558e-06
5.54732e-06
5.5646e-06
5.57684e-06
5.58395e-06
5.58514e-06
5.58185e-06
5.56967e-06
5.56137e-06
5.50892e-06
5.2868e-06
5.28645e-06
5.29479e-06
5.31637e-06
5.35174e-06
5.3972e-06
5.44395e-06
5.4791e-06
5.48967e-06
5.46753e-06
5.41281e-06
5.35631e-06
5.35696e-06
5.39269e-06
5.43683e-06
5.47614e-06
5.50503e-06
5.52182e-06
5.52672e-06
5.52096e-06
5.50614e-06
5.48398e-06
5.45608e-06
5.42381e-06
5.3883e-06
5.35141e-06
5.31876e-06
5.30301e-06
5.30887e-06
5.32782e-06
5.35419e-06
5.38458e-06
5.41672e-06
5.44896e-06
5.47997e-06
5.50865e-06
5.53407e-06
5.55545e-06
5.5722e-06
5.58376e-06
5.5901e-06
5.59041e-06
5.5862e-06
5.57306e-06
5.56386e-06
5.51012e-06
5.29155e-06
5.28832e-06
5.28817e-06
5.29752e-06
5.32077e-06
5.3582e-06
5.40556e-06
5.45329e-06
5.48776e-06
5.49574e-06
5.46932e-06
5.41029e-06
5.35629e-06
5.36261e-06
5.40139e-06
5.44662e-06
5.48575e-06
5.5137e-06
5.52908e-06
5.53237e-06
5.52491e-06
5.50843e-06
5.4847e-06
5.45536e-06
5.42177e-06
5.38512e-06
5.34767e-06
5.31612e-06
5.30384e-06
5.31242e-06
5.33321e-06
5.36088e-06
5.39218e-06
5.42496e-06
5.4576e-06
5.48879e-06
5.51744e-06
5.54263e-06
5.5636e-06
5.57979e-06
5.59065e-06
5.59618e-06
5.59559e-06
5.59044e-06
5.57632e-06
5.56621e-06
5.51121e-06
5.2969e-06
5.29314e-06
5.28985e-06
5.28996e-06
5.3004e-06
5.32541e-06
5.36496e-06
5.41422e-06
5.46281e-06
5.49639e-06
5.50149e-06
5.47054e-06
5.4074e-06
5.35697e-06
5.36884e-06
5.4105e-06
5.45663e-06
5.49544e-06
5.52233e-06
5.53623e-06
5.53783e-06
5.52864e-06
5.51047e-06
5.48517e-06
5.45438e-06
5.41947e-06
5.38172e-06
5.34389e-06
5.31386e-06
5.30519e-06
5.31638e-06
5.33893e-06
5.36783e-06
5.40002e-06
5.4334e-06
5.4664e-06
5.49773e-06
5.52632e-06
5.55126e-06
5.57179e-06
5.58738e-06
5.5975e-06
5.60218e-06
5.60067e-06
5.59457e-06
5.57946e-06
5.56844e-06
5.51217e-06
5.30039e-06
5.29878e-06
5.29475e-06
5.29141e-06
5.29184e-06
5.30345e-06
5.3303e-06
5.37204e-06
5.42317e-06
5.47249e-06
5.50495e-06
5.50689e-06
5.47116e-06
5.40421e-06
5.3584e-06
5.37567e-06
5.41998e-06
5.46684e-06
5.50519e-06
5.5309e-06
5.54323e-06
5.54309e-06
5.53213e-06
5.51226e-06
5.48537e-06
5.45313e-06
5.4169e-06
5.3781e-06
5.3401e-06
5.31207e-06
5.30705e-06
5.32073e-06
5.34497e-06
5.37506e-06
5.40809e-06
5.44204e-06
5.47537e-06
5.50681e-06
5.53529e-06
5.55994e-06
5.57999e-06
5.59495e-06
5.6043e-06
5.60811e-06
5.60565e-06
5.59857e-06
5.58248e-06
5.57052e-06
5.51301e-06
5.30222e-06
5.30248e-06
5.30068e-06
5.29636e-06
5.29299e-06
5.29381e-06
5.30668e-06
5.33545e-06
5.37942e-06
5.43241e-06
5.48232e-06
5.51341e-06
5.51189e-06
5.47116e-06
5.40082e-06
5.36056e-06
5.38306e-06
5.42982e-06
5.47723e-06
5.51498e-06
5.5394e-06
5.55008e-06
5.54814e-06
5.53537e-06
5.51378e-06
5.48529e-06
5.4516e-06
5.41407e-06
5.3743e-06
5.33639e-06
5.31085e-06
5.30941e-06
5.32546e-06
5.35132e-06
5.38255e-06
5.41639e-06
5.45088e-06
5.4845e-06
5.51601e-06
5.54436e-06
5.56867e-06
5.58821e-06
5.60249e-06
5.61105e-06
5.61396e-06
5.61053e-06
5.60246e-06
5.58535e-06
5.57243e-06
5.51376e-06
5.30355e-06
5.30438e-06
5.30459e-06
5.30259e-06
5.29799e-06
5.29459e-06
5.29587e-06
5.31009e-06
5.34088e-06
5.38713e-06
5.44193e-06
5.49228e-06
5.52173e-06
5.51646e-06
5.47051e-06
5.39734e-06
5.36345e-06
5.39102e-06
5.44e-06
5.48778e-06
5.52478e-06
5.5478e-06
5.55676e-06
5.55296e-06
5.53836e-06
5.51503e-06
5.48494e-06
5.44979e-06
5.41097e-06
5.37034e-06
5.3328e-06
5.31024e-06
5.31225e-06
5.33057e-06
5.35798e-06
5.39031e-06
5.42492e-06
5.45991e-06
5.49379e-06
5.52534e-06
5.55351e-06
5.57745e-06
5.59644e-06
5.61001e-06
5.61773e-06
5.61971e-06
5.6153e-06
5.60621e-06
5.58806e-06
5.57421e-06
5.51442e-06
5.30521e-06
5.3057e-06
5.30657e-06
5.30674e-06
5.30452e-06
5.29962e-06
5.29622e-06
5.29804e-06
5.31369e-06
5.3466e-06
5.39517e-06
5.45172e-06
5.50233e-06
5.52988e-06
5.52053e-06
5.46922e-06
5.39394e-06
5.36707e-06
5.39951e-06
5.4505e-06
5.49847e-06
5.53457e-06
5.5561e-06
5.56325e-06
5.55756e-06
5.54109e-06
5.516e-06
5.48431e-06
5.4477e-06
5.40762e-06
5.36624e-06
5.32942e-06
5.31024e-06
5.31557e-06
5.33605e-06
5.36494e-06
5.39833e-06
5.43367e-06
5.46912e-06
5.50323e-06
5.53478e-06
5.56274e-06
5.58626e-06
5.60466e-06
5.6175e-06
5.62435e-06
5.62538e-06
5.61995e-06
5.6098e-06
5.59064e-06
5.57587e-06
5.51498e-06
5.30736e-06
5.30789e-06
5.3088e-06
5.30891e-06
5.30646e-06
5.30126e-06
5.29788e-06
5.30031e-06
5.31751e-06
5.35261e-06
5.40353e-06
5.46178e-06
5.51245e-06
5.53781e-06
5.52408e-06
5.46728e-06
5.39073e-06
5.37142e-06
5.40854e-06
5.46131e-06
5.50928e-06
5.54435e-06
5.56427e-06
5.56955e-06
5.56191e-06
5.54354e-06
5.51669e-06
5.48338e-06
5.44532e-06
5.40402e-06
5.36204e-06
5.32633e-06
5.31087e-06
5.31934e-06
5.34189e-06
5.37221e-06
5.40661e-06
5.44264e-06
5.47853e-06
5.51282e-06
5.54433e-06
5.57204e-06
5.59512e-06
5.61289e-06
5.62494e-06
5.6309e-06
5.63094e-06
5.62443e-06
5.61325e-06
5.5931e-06
5.5774e-06
5.51545e-06
5.3095e-06
5.30954e-06
5.31011e-06
5.31107e-06
5.31112e-06
5.30841e-06
5.30292e-06
5.29957e-06
5.3027e-06
5.32154e-06
5.35892e-06
5.41223e-06
5.47208e-06
5.52261e-06
5.54549e-06
5.52704e-06
5.46471e-06
5.38793e-06
5.37653e-06
5.41808e-06
5.47239e-06
5.52019e-06
5.55409e-06
5.5723e-06
5.57563e-06
5.566e-06
5.54572e-06
5.51708e-06
5.48217e-06
5.44266e-06
5.40017e-06
5.35779e-06
5.3236e-06
5.31211e-06
5.32356e-06
5.34808e-06
5.37978e-06
5.41514e-06
5.45183e-06
5.48811e-06
5.52256e-06
5.55399e-06
5.58141e-06
5.60399e-06
5.6211e-06
5.63234e-06
5.63737e-06
5.63635e-06
5.62878e-06
5.61658e-06
5.59543e-06
5.5788e-06
5.51583e-06
5.3117e-06
5.31175e-06
5.31238e-06
5.31338e-06
5.31335e-06
5.31038e-06
5.30458e-06
5.30129e-06
5.30523e-06
5.3258e-06
5.36555e-06
5.42126e-06
5.48263e-06
5.53279e-06
5.55286e-06
5.52938e-06
5.46154e-06
5.38574e-06
5.38239e-06
5.42811e-06
5.48373e-06
5.53117e-06
5.56376e-06
5.58018e-06
5.5815e-06
5.56983e-06
5.54761e-06
5.51718e-06
5.48065e-06
5.43971e-06
5.39611e-06
5.35353e-06
5.32136e-06
5.31393e-06
5.32822e-06
5.35463e-06
5.38764e-06
5.42393e-06
5.46124e-06
5.49788e-06
5.53244e-06
5.56376e-06
5.59084e-06
5.61289e-06
5.62929e-06
5.6397e-06
5.6437e-06
5.64163e-06
5.63302e-06
5.61978e-06
5.59763e-06
5.58006e-06
5.51612e-06
5.31416e-06
5.31393e-06
5.31401e-06
5.31468e-06
5.31573e-06
5.31562e-06
5.31236e-06
5.30626e-06
5.30306e-06
5.30791e-06
5.33031e-06
5.3725e-06
5.43062e-06
5.4934e-06
5.54295e-06
5.55988e-06
5.53106e-06
5.45783e-06
5.38435e-06
5.389e-06
5.43861e-06
5.49531e-06
5.54221e-06
5.57336e-06
5.58787e-06
5.58712e-06
5.57338e-06
5.5492e-06
5.51698e-06
5.47883e-06
5.43647e-06
5.39184e-06
5.34934e-06
5.31966e-06
5.31632e-06
5.33331e-06
5.36153e-06
5.3958e-06
5.43297e-06
5.47086e-06
5.50782e-06
5.54245e-06
5.57362e-06
5.60032e-06
5.62181e-06
5.63748e-06
5.64693e-06
5.64991e-06
5.64682e-06
5.63713e-06
5.62284e-06
5.59969e-06
5.58118e-06
5.51631e-06
5.31643e-06
5.3162e-06
5.3163e-06
5.31702e-06
5.31811e-06
5.31791e-06
5.31434e-06
5.30795e-06
5.30487e-06
5.31073e-06
5.33507e-06
5.37978e-06
5.44032e-06
5.50437e-06
5.55305e-06
5.56651e-06
5.53204e-06
5.45363e-06
5.38398e-06
5.39637e-06
5.44955e-06
5.5071e-06
5.55327e-06
5.58285e-06
5.59538e-06
5.59249e-06
5.57665e-06
5.55049e-06
5.51647e-06
5.47671e-06
5.43295e-06
5.3874e-06
5.34527e-06
5.31863e-06
5.31925e-06
5.33881e-06
5.36876e-06
5.40424e-06
5.44225e-06
5.48069e-06
5.51793e-06
5.5526e-06
5.58356e-06
5.60986e-06
5.63075e-06
5.64557e-06
5.65406e-06
5.65605e-06
5.65188e-06
5.64111e-06
5.62575e-06
5.60161e-06
5.58218e-06
5.51642e-06
5.31872e-06
5.31851e-06
5.31862e-06
5.31941e-06
5.32054e-06
5.32022e-06
5.31634e-06
5.30965e-06
5.30672e-06
5.31371e-06
5.34009e-06
5.3874e-06
5.45034e-06
5.51553e-06
5.56306e-06
5.57269e-06
5.53228e-06
5.44903e-06
5.38461e-06
5.40447e-06
5.46092e-06
5.51907e-06
5.56435e-06
5.59223e-06
5.60267e-06
5.5976e-06
5.57962e-06
5.55147e-06
5.51565e-06
5.47428e-06
5.42915e-06
5.38281e-06
5.34139e-06
5.31829e-06
5.32272e-06
5.34473e-06
5.37633e-06
5.41297e-06
5.45179e-06
5.49073e-06
5.52821e-06
5.56288e-06
5.5936e-06
5.61946e-06
5.63963e-06
5.65357e-06
5.66114e-06
5.66209e-06
5.65682e-06
5.64494e-06
5.62852e-06
5.60339e-06
5.58303e-06
5.51644e-06
5.32106e-06
5.32085e-06
5.32099e-06
5.32184e-06
5.32301e-06
5.32256e-06
5.31835e-06
5.31138e-06
5.30864e-06
5.31687e-06
5.34539e-06
5.39537e-06
5.46068e-06
5.52684e-06
5.57293e-06
5.57837e-06
5.53176e-06
5.44414e-06
5.3863e-06
5.41329e-06
5.47269e-06
5.5312e-06
5.57541e-06
5.60146e-06
5.60975e-06
5.60243e-06
5.58228e-06
5.55213e-06
5.51451e-06
5.47154e-06
5.42509e-06
5.37811e-06
5.3378e-06
5.31865e-06
5.3267e-06
5.35105e-06
5.38424e-06
5.42199e-06
5.46156e-06
5.50097e-06
5.53866e-06
5.57328e-06
5.60375e-06
5.62903e-06
5.64844e-06
5.66156e-06
5.66814e-06
5.668e-06
5.66163e-06
5.64863e-06
5.63115e-06
5.60504e-06
5.58376e-06
5.51638e-06
5.32386e-06
5.32342e-06
5.32323e-06
5.32339e-06
5.32431e-06
5.32552e-06
5.32493e-06
5.32036e-06
5.31312e-06
5.31063e-06
5.3202e-06
5.35098e-06
5.40369e-06
5.47133e-06
5.53829e-06
5.58262e-06
5.5835e-06
5.53046e-06
5.4391e-06
5.38903e-06
5.42279e-06
5.48483e-06
5.54347e-06
5.58643e-06
5.61054e-06
5.61658e-06
5.60697e-06
5.58464e-06
5.55247e-06
5.51304e-06
5.46848e-06
5.42077e-06
5.37335e-06
5.33458e-06
5.31971e-06
5.33119e-06
5.35776e-06
5.39247e-06
5.43128e-06
5.47157e-06
5.51142e-06
5.54926e-06
5.58382e-06
5.61389e-06
5.63857e-06
5.65727e-06
5.66948e-06
5.67504e-06
5.6738e-06
5.66629e-06
5.65218e-06
5.63362e-06
5.60654e-06
5.58435e-06
5.51623e-06
5.32625e-06
5.32583e-06
5.32564e-06
5.32584e-06
5.32682e-06
5.32806e-06
5.32732e-06
5.32238e-06
5.31489e-06
5.3127e-06
5.32373e-06
5.35687e-06
5.41236e-06
5.4823e-06
5.54985e-06
5.59209e-06
5.58802e-06
5.52838e-06
5.43405e-06
5.39277e-06
5.43296e-06
5.49731e-06
5.55584e-06
5.59739e-06
5.61944e-06
5.62317e-06
5.61122e-06
5.58666e-06
5.55248e-06
5.51125e-06
5.46511e-06
5.41621e-06
5.36858e-06
5.33182e-06
5.32143e-06
5.33617e-06
5.36486e-06
5.40103e-06
5.44085e-06
5.48182e-06
5.52205e-06
5.56005e-06
5.59441e-06
5.62404e-06
5.64815e-06
5.66607e-06
5.67734e-06
5.68183e-06
5.67947e-06
5.67081e-06
5.65557e-06
5.63595e-06
5.60791e-06
5.58481e-06
5.516e-06
5.32956e-06
5.32868e-06
5.32827e-06
5.32809e-06
5.32833e-06
5.32938e-06
5.33065e-06
5.32973e-06
5.32441e-06
5.31668e-06
5.31485e-06
5.32746e-06
5.36307e-06
5.42139e-06
5.49356e-06
5.56149e-06
5.60129e-06
5.59189e-06
5.52552e-06
5.42915e-06
5.39749e-06
5.44377e-06
5.51011e-06
5.5683e-06
5.60828e-06
5.62815e-06
5.62948e-06
5.61515e-06
5.58836e-06
5.55215e-06
5.50913e-06
5.46144e-06
5.41143e-06
5.36386e-06
5.32963e-06
5.3238e-06
5.34162e-06
5.37234e-06
5.40991e-06
5.4507e-06
5.4923e-06
5.53292e-06
5.57093e-06
5.60503e-06
5.63427e-06
5.65774e-06
5.67482e-06
5.68511e-06
5.68852e-06
5.68501e-06
5.67519e-06
5.65881e-06
5.63812e-06
5.60914e-06
5.58515e-06
5.5157e-06
5.332e-06
5.33113e-06
5.33075e-06
5.33059e-06
5.33085e-06
5.33198e-06
5.33327e-06
5.33216e-06
5.32644e-06
5.3185e-06
5.31709e-06
5.33141e-06
5.36958e-06
5.43079e-06
5.5051e-06
5.57317e-06
5.61017e-06
5.59505e-06
5.5219e-06
5.42462e-06
5.40318e-06
5.45518e-06
5.52319e-06
5.58081e-06
5.61905e-06
5.63664e-06
5.63551e-06
5.61876e-06
5.58972e-06
5.55148e-06
5.50667e-06
5.45745e-06
5.40646e-06
5.35926e-06
5.32809e-06
5.3268e-06
5.34755e-06
5.38021e-06
5.4191e-06
5.46082e-06
5.50306e-06
5.54391e-06
5.58187e-06
5.61577e-06
5.64454e-06
5.66732e-06
5.68353e-06
5.6928e-06
5.69509e-06
5.69041e-06
5.67941e-06
5.6619e-06
5.64015e-06
5.61023e-06
5.58535e-06
5.51532e-06
5.33448e-06
5.33362e-06
5.33326e-06
5.33312e-06
5.33342e-06
5.33463e-06
5.33594e-06
5.33461e-06
5.32848e-06
5.32036e-06
5.31946e-06
5.33559e-06
5.37643e-06
5.44055e-06
5.51691e-06
5.58486e-06
5.61868e-06
5.59746e-06
5.51755e-06
5.42067e-06
5.40984e-06
5.46716e-06
5.53653e-06
5.59335e-06
5.6297e-06
5.6449e-06
5.64124e-06
5.62204e-06
5.59074e-06
5.55047e-06
5.50387e-06
5.45317e-06
5.40134e-06
5.35486e-06
5.32732e-06
5.33039e-06
5.35393e-06
5.38844e-06
5.42861e-06
5.47125e-06
5.51397e-06
5.555e-06
5.59297e-06
5.62659e-06
5.65483e-06
5.67687e-06
5.69217e-06
5.70039e-06
5.70154e-06
5.69567e-06
5.68348e-06
5.66483e-06
5.64202e-06
5.61118e-06
5.58543e-06
5.51487e-06
5.33699e-06
5.33615e-06
5.33582e-06
5.33569e-06
5.33603e-06
5.33732e-06
5.33864e-06
5.33708e-06
5.33053e-06
5.32225e-06
5.32197e-06
5.34001e-06
5.38362e-06
5.45067e-06
5.52897e-06
5.59652e-06
5.62676e-06
5.59906e-06
5.51253e-06
5.41756e-06
5.41745e-06
5.47968e-06
5.55009e-06
5.6059e-06
5.64019e-06
5.6529e-06
5.64666e-06
5.62498e-06
5.5914e-06
5.5491e-06
5.50073e-06
5.4486e-06
5.3961e-06
5.35072e-06
5.32732e-06
5.33458e-06
5.36076e-06
5.39704e-06
5.43847e-06
5.48188e-06
5.52502e-06
5.56628e-06
5.60418e-06
5.63747e-06
5.66514e-06
5.6864e-06
5.70075e-06
5.70788e-06
5.70786e-06
5.70078e-06
5.6874e-06
5.66761e-06
5.64375e-06
5.612e-06
5.58539e-06
5.51435e-06
5.33953e-06
5.33872e-06
5.33842e-06
5.3383e-06
5.33869e-06
5.34006e-06
5.34138e-06
5.33956e-06
5.33258e-06
5.32418e-06
5.32462e-06
5.34468e-06
5.39116e-06
5.46116e-06
5.54126e-06
5.60811e-06
5.63435e-06
5.59983e-06
5.50692e-06
5.41544e-06
5.42599e-06
5.49271e-06
5.56385e-06
5.61841e-06
5.65052e-06
5.66064e-06
5.65176e-06
5.62756e-06
5.5917e-06
5.54738e-06
5.49725e-06
5.44376e-06
5.39078e-06
5.34695e-06
5.32812e-06
5.33933e-06
5.36803e-06
5.40604e-06
5.44859e-06
5.49268e-06
5.5363e-06
5.57772e-06
5.61549e-06
5.6484e-06
5.67546e-06
5.6959e-06
5.70925e-06
5.71527e-06
5.71405e-06
5.70574e-06
5.69116e-06
5.67023e-06
5.64532e-06
5.61268e-06
5.58522e-06
5.51376e-06
5.3421e-06
5.34133e-06
5.34106e-06
5.34096e-06
5.34139e-06
5.34285e-06
5.34416e-06
5.34206e-06
5.33464e-06
5.32616e-06
5.32742e-06
5.34962e-06
5.39906e-06
5.47201e-06
5.55375e-06
5.61958e-06
5.64141e-06
5.59971e-06
5.5008e-06
5.41469e-06
5.43545e-06
5.50621e-06
5.57776e-06
5.63088e-06
5.66065e-06
5.6681e-06
5.65652e-06
5.62978e-06
5.59163e-06
5.54529e-06
5.49343e-06
5.43866e-06
5.38545e-06
5.34365e-06
5.32968e-06
5.34463e-06
5.37577e-06
5.41534e-06
5.45892e-06
5.50376e-06
5.54778e-06
5.5893e-06
5.6269e-06
5.65938e-06
5.68577e-06
5.70535e-06
5.71767e-06
5.72254e-06
5.7201e-06
5.71055e-06
5.69476e-06
5.67269e-06
5.64674e-06
5.61323e-06
5.58494e-06
5.5131e-06
5.34471e-06
5.34398e-06
5.34374e-06
5.34365e-06
5.34414e-06
5.34568e-06
5.34697e-06
5.34457e-06
5.3367e-06
5.32819e-06
5.33038e-06
5.35484e-06
5.40732e-06
5.48321e-06
5.56643e-06
5.6309e-06
5.64786e-06
5.5987e-06
5.49429e-06
5.41535e-06
5.44579e-06
5.52015e-06
5.59181e-06
5.64327e-06
5.67056e-06
5.67525e-06
5.66093e-06
5.63164e-06
5.59119e-06
5.54284e-06
5.48928e-06
5.43332e-06
5.38015e-06