/*--------------------------------*- C++ -*----------------------------------*\
  =========                 |
  \\      /  F ield         | OpenFOAM: The Open Source CFD Toolbox
   \\    /   O peration     | Website:  https://openfoam.org
    \\  /    A nd           | Version:  7
     \\/     M anipulation  |
\*---------------------------------------------------------------------------*/
FoamFile
{
    version     2.0;
    format      ascii;
    class       volScalarField;
    location    "200";
    object      nuTilda;
}
// * * * * * * * * * * * * * * * * * * * * * * * * * * * * * * * * * * * * * //

dimensions      [0 2 -1 0 0 0 0];

internalField   nonuniform List<scalar> 
23023
(
3.4559e-05
3.45556e-05
3.45653e-05
3.45403e-05
3.45627e-05
3.45717e-05
3.45271e-05
3.45473e-05
3.45699e-05
3.45781e-05
3.45341e-05
3.45544e-05
3.45773e-05
3.45846e-05
3.45175e-05
3.45413e-05
3.45617e-05
3.45847e-05
3.45912e-05
3.45005e-05
3.45244e-05
3.45486e-05
3.45692e-05
3.45923e-05
3.45979e-05
3.44829e-05
3.45071e-05
3.45316e-05
3.45561e-05
3.45767e-05
3.46e-05
3.46045e-05
3.4466e-05
3.44891e-05
3.4514e-05
3.45389e-05
3.45638e-05
3.45844e-05
3.46078e-05
3.46113e-05
3.44507e-05
3.44715e-05
3.44955e-05
3.4521e-05
3.45465e-05
3.45716e-05
3.45923e-05
3.46157e-05
3.46181e-05
3.44385e-05
3.44554e-05
3.44773e-05
3.45021e-05
3.45283e-05
3.45542e-05
3.45795e-05
3.46002e-05
3.46237e-05
3.46249e-05
3.44421e-05
3.44604e-05
3.44834e-05
3.4509e-05
3.45358e-05
3.45621e-05
3.45877e-05
3.46083e-05
3.46317e-05
3.46317e-05
3.44336e-05
3.4446e-05
3.44656e-05
3.44897e-05
3.45162e-05
3.45436e-05
3.45701e-05
3.45959e-05
3.46164e-05
3.46399e-05
3.46386e-05
3.44327e-05
3.44361e-05
3.44502e-05
3.44712e-05
3.44963e-05
3.45235e-05
3.45515e-05
3.45784e-05
3.46043e-05
3.46247e-05
3.46481e-05
3.46455e-05
3.44435e-05
3.44334e-05
3.4439e-05
3.44548e-05
3.4477e-05
3.45032e-05
3.45311e-05
3.45596e-05
3.45868e-05
3.46129e-05
3.46331e-05
3.46564e-05
3.46524e-05
3.44662e-05
3.44418e-05
3.44345e-05
3.44423e-05
3.44597e-05
3.44832e-05
3.45103e-05
3.4539e-05
3.45679e-05
3.45954e-05
3.46216e-05
3.46416e-05
3.46647e-05
3.46593e-05
3.44635e-05
3.44406e-05
3.44361e-05
3.44459e-05
3.44649e-05
3.44896e-05
3.45176e-05
3.4547e-05
3.45764e-05
3.46042e-05
3.46304e-05
3.46501e-05
3.46731e-05
3.46663e-05
3.44902e-05
3.44608e-05
3.44398e-05
3.4438e-05
3.44499e-05
3.44704e-05
3.44964e-05
3.45253e-05
3.45553e-05
3.45852e-05
3.46131e-05
3.46393e-05
3.46588e-05
3.46815e-05
3.46732e-05
3.45166e-05
3.44878e-05
3.4458e-05
3.44396e-05
3.44404e-05
3.44542e-05
3.44763e-05
3.45034e-05
3.45332e-05
3.45638e-05
3.4594e-05
3.46221e-05
3.46483e-05
3.46675e-05
3.469e-05
3.46801e-05
3.45152e-05
3.44852e-05
3.44554e-05
3.44398e-05
3.44432e-05
3.44589e-05
3.44825e-05
3.45107e-05
3.45413e-05
3.45725e-05
3.46031e-05
3.46313e-05
3.46575e-05
3.46763e-05
3.46985e-05
3.4687e-05
3.45415e-05
3.45136e-05
3.44824e-05
3.4453e-05
3.44405e-05
3.44464e-05
3.4464e-05
3.4489e-05
3.45182e-05
3.45497e-05
3.45815e-05
3.46124e-05
3.46407e-05
3.46667e-05
3.46851e-05
3.47071e-05
3.46939e-05
3.45662e-05
3.45409e-05
3.45116e-05
3.44794e-05
3.44509e-05
3.44416e-05
3.445e-05
3.44694e-05
3.44958e-05
3.45261e-05
3.45583e-05
3.45906e-05
3.46218e-05
3.46502e-05
3.46761e-05
3.46941e-05
3.47157e-05
3.47007e-05
3.45892e-05
3.45668e-05
3.454e-05
3.45094e-05
3.44762e-05
3.44492e-05
3.44432e-05
3.4454e-05
3.44752e-05
3.45029e-05
3.45342e-05
3.45672e-05
3.46e-05
3.46314e-05
3.46598e-05
3.46855e-05
3.4703e-05
3.47243e-05
3.47076e-05
3.46097e-05
3.45908e-05
3.4567e-05
3.45389e-05
3.45069e-05
3.4473e-05
3.44482e-05
3.44453e-05
3.44583e-05
3.44813e-05
3.45103e-05
3.45427e-05
3.45763e-05
3.46095e-05
3.46412e-05
3.46695e-05
3.4695e-05
3.47121e-05
3.47329e-05
3.47143e-05
3.46125e-05
3.45922e-05
3.4567e-05
3.45374e-05
3.4504e-05
3.44697e-05
3.44477e-05
3.44479e-05
3.44631e-05
3.44878e-05
3.45181e-05
3.45513e-05
3.45856e-05
3.46193e-05
3.46511e-05
3.46794e-05
3.47046e-05
3.47211e-05
3.47415e-05
3.47211e-05
3.46312e-05
3.46152e-05
3.45933e-05
3.45666e-05
3.45356e-05
3.45009e-05
3.44666e-05
3.44477e-05
3.44509e-05
3.44683e-05
3.44946e-05
3.45261e-05
3.45603e-05
3.45952e-05
3.46292e-05
3.46612e-05
3.46893e-05
3.47143e-05
3.47302e-05
3.47501e-05
3.47278e-05
3.46462e-05
3.46351e-05
3.46175e-05
3.45942e-05
3.4566e-05
3.45335e-05
3.44976e-05
3.44637e-05
3.44483e-05
3.44543e-05
3.44739e-05
3.45017e-05
3.45345e-05
3.45695e-05
3.4605e-05
3.46393e-05
3.46714e-05
3.46994e-05
3.4724e-05
3.47393e-05
3.47587e-05
3.47344e-05
3.46514e-05
3.46388e-05
3.46196e-05
3.45948e-05
3.45651e-05
3.45311e-05
3.44941e-05
3.44611e-05
3.44494e-05
3.44582e-05
3.44798e-05
3.45092e-05
3.45431e-05
3.4579e-05
3.4615e-05
3.46496e-05
3.46817e-05
3.47096e-05
3.47339e-05
3.47485e-05
3.47672e-05
3.4741e-05
3.46632e-05
3.46565e-05
3.46422e-05
3.46215e-05
3.45951e-05
3.45638e-05
3.45284e-05
3.44904e-05
3.4459e-05
3.44511e-05
3.44626e-05
3.44862e-05
3.45171e-05
3.4552e-05
3.45887e-05
3.46253e-05
3.46601e-05
3.46922e-05
3.47198e-05
3.47437e-05
3.47576e-05
3.47758e-05
3.47475e-05
3.46694e-05
3.46696e-05
3.46613e-05
3.46454e-05
3.4623e-05
3.4595e-05
3.45623e-05
3.45254e-05
3.44866e-05
3.44575e-05
3.44532e-05
3.44674e-05
3.44929e-05
3.45253e-05
3.45613e-05
3.45987e-05
3.46357e-05
3.46708e-05
3.47029e-05
3.47302e-05
3.47536e-05
3.47668e-05
3.47843e-05
3.47539e-05
3.46772e-05
3.46758e-05
3.46658e-05
3.46483e-05
3.46243e-05
3.45947e-05
3.45604e-05
3.4522e-05
3.44828e-05
3.44567e-05
3.44559e-05
3.44727e-05
3.45e-05
3.45338e-05
3.45708e-05
3.46089e-05
3.46464e-05
3.46816e-05
3.47136e-05
3.47406e-05
3.47636e-05
3.47759e-05
3.47928e-05
3.47603e-05
3.46784e-05
3.46848e-05
3.46818e-05
3.46702e-05
3.4651e-05
3.46253e-05
3.45941e-05
3.45582e-05
3.45184e-05
3.44792e-05
3.44565e-05
3.44592e-05
3.44783e-05
3.45075e-05
3.45426e-05
3.45806e-05
3.46194e-05
3.46572e-05
3.46926e-05
3.47245e-05
3.47511e-05
3.47735e-05
3.47851e-05
3.48012e-05
3.47665e-05
3.46723e-05
3.46874e-05
3.46923e-05
3.46876e-05
3.46743e-05
3.46533e-05
3.46259e-05
3.45931e-05
3.45556e-05
3.45145e-05
3.44757e-05
3.44569e-05
3.44629e-05
3.44845e-05
3.45154e-05
3.45518e-05
3.45907e-05
3.46301e-05
3.46683e-05
3.47037e-05
3.47355e-05
3.47617e-05
3.47835e-05
3.47942e-05
3.48095e-05
3.47727e-05
3.46825e-05
3.46963e-05
3.46996e-05
3.46932e-05
3.46781e-05
3.46554e-05
3.46263e-05
3.45918e-05
3.45527e-05
3.45104e-05
3.44726e-05
3.44579e-05
3.44672e-05
3.4491e-05
3.45236e-05
3.45612e-05
3.46011e-05
3.46411e-05
3.46795e-05
3.4715e-05
3.47465e-05
3.47724e-05
3.47935e-05
3.48033e-05
3.48179e-05
3.47788e-05
3.46694e-05
3.46927e-05
3.47051e-05
3.47068e-05
3.46986e-05
3.46816e-05
3.46571e-05
3.46263e-05
3.45901e-05
3.45494e-05
3.45062e-05
3.447e-05
3.44596e-05
3.44719e-05
3.4498e-05
3.45322e-05
3.4571e-05
3.46117e-05
3.46522e-05
3.4691e-05
3.47264e-05
3.47577e-05
3.4783e-05
3.48036e-05
3.48124e-05
3.48261e-05
3.47847e-05
3.46478e-05
3.46807e-05
3.47029e-05
3.47137e-05
3.47137e-05
3.47037e-05
3.46849e-05
3.46586e-05
3.4626e-05
3.45881e-05
3.45458e-05
3.45018e-05
3.44679e-05
3.44618e-05
3.44771e-05
3.45053e-05
3.45412e-05
3.45811e-05
3.46226e-05
3.46636e-05
3.47026e-05
3.4738e-05
3.4769e-05
3.47938e-05
3.48136e-05
3.48214e-05
3.48342e-05
3.47906e-05
3.46598e-05
3.4692e-05
3.4713e-05
3.47223e-05
3.47204e-05
3.47085e-05
3.46878e-05
3.46597e-05
3.46253e-05
3.45858e-05
3.45419e-05
3.44975e-05
3.44666e-05
3.44647e-05
3.44828e-05
3.45131e-05
3.45505e-05
3.45916e-05
3.46338e-05
3.46753e-05
3.47144e-05
3.47497e-05
3.47803e-05
3.48045e-05
3.48236e-05
3.48304e-05
3.48423e-05
3.47963e-05
3.46305e-05
3.4672e-05
3.47034e-05
3.4723e-05
3.47306e-05
3.47269e-05
3.47131e-05
3.46905e-05
3.46605e-05
3.46244e-05
3.45831e-05
3.45377e-05
3.44932e-05
3.44661e-05
3.44681e-05
3.4489e-05
3.45213e-05
3.45602e-05
3.46023e-05
3.46453e-05
3.46871e-05
3.47263e-05
3.47615e-05
3.47918e-05
3.48153e-05
3.48336e-05
3.48394e-05
3.48503e-05
3.4802e-05
3.45945e-05
3.46431e-05
3.46844e-05
3.47148e-05
3.4733e-05
3.47388e-05
3.47332e-05
3.47174e-05
3.46928e-05
3.46609e-05
3.4623e-05
3.458e-05
3.45333e-05
3.44892e-05
3.44663e-05
3.44721e-05
3.44957e-05
3.45299e-05
3.45702e-05
3.46133e-05
3.46569e-05
3.46991e-05
3.47385e-05
3.47734e-05
3.48032e-05
3.48262e-05
3.48436e-05
3.48482e-05
3.48581e-05
3.48075e-05
3.45564e-05
3.46067e-05
3.46559e-05
3.46969e-05
3.47262e-05
3.47428e-05
3.47468e-05
3.47392e-05
3.47214e-05
3.46948e-05
3.4661e-05
3.46213e-05
3.45765e-05
3.45286e-05
3.44855e-05
3.44672e-05
3.44767e-05
3.45029e-05
3.45389e-05
3.45806e-05
3.46246e-05
3.46689e-05
3.47114e-05
3.47507e-05
3.47854e-05
3.48148e-05
3.4837e-05
3.48535e-05
3.4857e-05
3.48659e-05
3.48128e-05
3.45257e-05
3.45671e-05
3.46192e-05
3.46689e-05
3.47094e-05
3.47376e-05
3.47525e-05
3.47546e-05
3.4745e-05
3.47251e-05
3.46965e-05
3.46608e-05
3.46192e-05
3.45727e-05
3.45237e-05
3.44822e-05
3.44688e-05
3.44818e-05
3.45105e-05
3.45483e-05
3.45913e-05
3.46363e-05
3.46811e-05
3.47238e-05
3.47631e-05
3.47976e-05
3.48264e-05
3.48478e-05
3.48634e-05
3.48658e-05
3.48735e-05
3.4818e-05
3.45206e-05
3.45334e-05
3.45783e-05
3.46321e-05
3.46822e-05
3.47221e-05
3.47489e-05
3.47621e-05
3.47622e-05
3.47504e-05
3.47284e-05
3.46978e-05
3.46602e-05
3.46167e-05
3.45685e-05
3.45188e-05
3.44796e-05
3.44711e-05
3.44874e-05
3.45185e-05
3.45581e-05
3.46023e-05
3.46482e-05
3.46935e-05
3.47365e-05
3.47757e-05
3.48098e-05
3.4838e-05
3.48587e-05
3.48732e-05
3.48744e-05
3.48811e-05
3.48231e-05
3.45673e-05
3.45235e-05
3.45418e-05
3.45901e-05
3.46455e-05
3.46957e-05
3.47347e-05
3.47601e-05
3.47715e-05
3.47695e-05
3.47556e-05
3.47314e-05
3.46988e-05
3.46592e-05
3.46139e-05
3.4564e-05
3.45138e-05
3.44778e-05
3.44741e-05
3.44937e-05
3.4527e-05
3.45683e-05
3.46137e-05
3.46603e-05
3.47061e-05
3.47493e-05
3.47884e-05
3.48221e-05
3.48497e-05
3.48695e-05
3.4883e-05
3.48829e-05
3.48884e-05
3.48281e-05
3.45651e-05
3.45271e-05
3.45509e-05
3.46023e-05
3.46591e-05
3.47094e-05
3.47475e-05
3.47713e-05
3.47807e-05
3.47765e-05
3.47604e-05
3.47341e-05
3.46994e-05
3.46578e-05
3.46106e-05
3.45592e-05
3.45089e-05
3.44768e-05
3.44777e-05
3.45004e-05
3.4536e-05
3.45789e-05
3.46254e-05
3.46728e-05
3.4719e-05
3.47623e-05
3.48012e-05
3.48344e-05
3.48614e-05
3.48803e-05
3.48928e-05
3.48914e-05
3.48957e-05
3.48328e-05
3.46417e-05
3.45627e-05
3.45314e-05
3.45606e-05
3.46152e-05
3.46731e-05
3.47232e-05
3.47602e-05
3.47823e-05
3.47896e-05
3.47833e-05
3.47649e-05
3.47364e-05
3.46996e-05
3.4656e-05
3.4607e-05
3.45541e-05
3.45043e-05
3.44767e-05
3.44819e-05
3.45076e-05
3.45454e-05
3.45898e-05
3.46374e-05
3.46855e-05
3.47321e-05
3.47754e-05
3.48141e-05
3.48469e-05
3.48731e-05
3.4891e-05
3.49024e-05
3.48997e-05
3.49028e-05
3.48374e-05
3.46996e-05
3.4642e-05
3.45605e-05
3.45364e-05
3.4571e-05
3.46285e-05
3.46874e-05
3.47371e-05
3.47729e-05
3.47932e-05
3.47984e-05
3.47898e-05
3.47691e-05
3.47384e-05
3.46995e-05
3.46539e-05
3.46029e-05
3.45488e-05
3.44999e-05
3.44774e-05
3.44868e-05
3.45154e-05
3.45552e-05
3.46011e-05
3.46497e-05
3.46985e-05
3.47454e-05
3.47887e-05
3.48272e-05
3.48594e-05
3.48848e-05
3.49017e-05
3.4912e-05
3.49079e-05
3.49097e-05
3.48419e-05
3.47055e-05
3.46414e-05
3.45587e-05
3.45423e-05
3.45822e-05
3.46423e-05
3.4702e-05
3.47512e-05
3.47856e-05
3.4804e-05
3.48069e-05
3.4796e-05
3.4773e-05
3.474e-05
3.46989e-05
3.46513e-05
3.45985e-05
3.45433e-05
3.4496e-05
3.44789e-05
3.44923e-05
3.45237e-05
3.45654e-05
3.46128e-05
3.46624e-05
3.47118e-05
3.47589e-05
3.48022e-05
3.48403e-05
3.48719e-05
3.48965e-05
3.49124e-05
3.49215e-05
3.49159e-05
3.49165e-05
3.48462e-05
3.47373e-05
3.47107e-05
3.46401e-05
3.45574e-05
3.4549e-05
3.4594e-05
3.46565e-05
3.47168e-05
3.47654e-05
3.47982e-05
3.48145e-05
3.48152e-05
3.48018e-05
3.47764e-05
3.47412e-05
3.46979e-05
3.46483e-05
3.45937e-05
3.45377e-05
3.44928e-05
3.44811e-05
3.44984e-05
3.45325e-05
3.45761e-05
3.46248e-05
3.46754e-05
3.47253e-05
3.47727e-05
3.48158e-05
3.48536e-05
3.48845e-05
3.49082e-05
3.4923e-05
3.49308e-05
3.49239e-05
3.49231e-05
3.48503e-05
3.47357e-05
3.47474e-05
3.47153e-05
3.46381e-05
3.4557e-05
3.45565e-05
3.46064e-05
3.46712e-05
3.47319e-05
3.47796e-05
3.48107e-05
3.48249e-05
3.48232e-05
3.48073e-05
3.47795e-05
3.4742e-05
3.46966e-05
3.46449e-05
3.45886e-05
3.4532e-05
3.44903e-05
3.44842e-05
3.45051e-05
3.45417e-05
3.45872e-05
3.46372e-05
3.46886e-05
3.4739e-05
3.47866e-05
3.48296e-05
3.48669e-05
3.48971e-05
3.49199e-05
3.49336e-05
3.49401e-05
3.49317e-05
3.49295e-05
3.48542e-05
3.4704e-05
3.47493e-05
3.47573e-05
3.47191e-05
3.46353e-05
3.45576e-05
3.45649e-05
3.46195e-05
3.46864e-05
3.47472e-05
3.47938e-05
3.48231e-05
3.48351e-05
3.48308e-05
3.48125e-05
3.47822e-05
3.47424e-05
3.46948e-05
3.46411e-05
3.45831e-05
3.45265e-05
3.44888e-05
3.44879e-05
3.45124e-05
3.45515e-05
3.45987e-05
3.46499e-05
3.47022e-05
3.4753e-05
3.48007e-05
3.48435e-05
3.48803e-05
3.49098e-05
3.49316e-05
3.4944e-05
3.49493e-05
3.49393e-05
3.49358e-05
3.4858e-05
3.46515e-05
3.4719e-05
3.47628e-05
3.47667e-05
3.4722e-05
3.4632e-05
3.45593e-05
3.45743e-05
3.46333e-05
3.47019e-05
3.47627e-05
3.4808e-05
3.48354e-05
3.4845e-05
3.48382e-05
3.48173e-05
3.47846e-05
3.47423e-05
3.46926e-05
3.46369e-05
3.45773e-05
3.45211e-05
3.44882e-05
3.44924e-05
3.45202e-05
3.45617e-05
3.46106e-05
3.4663e-05
3.4716e-05
3.47673e-05
3.4815e-05
3.48575e-05
3.48937e-05
3.49224e-05
3.49432e-05
3.49544e-05
3.49583e-05
3.49468e-05
3.49418e-05
3.48616e-05
3.45912e-05
3.46658e-05
3.47342e-05
3.47763e-05
3.47757e-05
3.47241e-05
3.46281e-05
3.45619e-05
3.45844e-05
3.46477e-05
3.47178e-05
3.47783e-05
3.48223e-05
3.48476e-05
3.48546e-05
3.48452e-05
3.48217e-05
3.47865e-05
3.47419e-05
3.46899e-05
3.46322e-05
3.45713e-05
3.45161e-05
3.44886e-05
3.44976e-05
3.45287e-05
3.45724e-05
3.46229e-05
3.46765e-05
3.47301e-05
3.47817e-05
3.48294e-05
3.48716e-05
3.49073e-05
3.49351e-05
3.49548e-05
3.49647e-05
3.49671e-05
3.49541e-05
3.49477e-05
3.4865e-05
3.45353e-05
3.46034e-05
3.46807e-05
3.47497e-05
3.47897e-05
3.47841e-05
3.47253e-05
3.46239e-05
3.45654e-05
3.45955e-05
3.46627e-05
3.4734e-05
3.47941e-05
3.48364e-05
3.48595e-05
3.4864e-05
3.48519e-05
3.48257e-05
3.4788e-05
3.4741e-05
3.46868e-05
3.46271e-05
3.45651e-05
3.45115e-05
3.44898e-05
3.45034e-05
3.45376e-05
3.45835e-05
3.46356e-05
3.46902e-05
3.47445e-05
3.47964e-05
3.4844e-05
3.48859e-05
3.49208e-05
3.49477e-05
3.49663e-05
3.49749e-05
3.49759e-05
3.49612e-05
3.49533e-05
3.48682e-05
3.44928e-05
3.45446e-05
3.46161e-05
3.46959e-05
3.47654e-05
3.48029e-05
3.47919e-05
3.47255e-05
3.46194e-05
3.45699e-05
3.46074e-05
3.46782e-05
3.47506e-05
3.48099e-05
3.48505e-05
3.48712e-05
3.48731e-05
3.48582e-05
3.48293e-05
3.4789e-05
3.47397e-05
3.46833e-05
3.46217e-05
3.45588e-05
3.45075e-05
3.4492e-05
3.451e-05
3.45472e-05
3.45952e-05
3.46487e-05
3.47043e-05
3.47592e-05
3.48113e-05
3.48588e-05
3.49002e-05
3.49344e-05
3.49604e-05
3.49777e-05
3.4985e-05
3.49845e-05
3.49682e-05
3.49588e-05
3.48712e-05
3.4468e-05
3.44992e-05
3.45544e-05
3.46294e-05
3.47116e-05
3.47812e-05
3.48158e-05
3.47991e-05
3.47247e-05
3.46151e-05
3.45755e-05
3.46202e-05
3.46943e-05
3.47674e-05
3.48259e-05
3.48645e-05
3.48827e-05
3.48818e-05
3.48642e-05
3.48325e-05
3.47897e-05
3.47379e-05
3.46793e-05
3.46158e-05
3.45524e-05
3.45044e-05
3.4495e-05
3.45172e-05
3.45572e-05
3.46072e-05
3.46622e-05
3.47187e-05
3.47741e-05
3.48264e-05
3.48737e-05
3.49146e-05
3.49481e-05
3.4973e-05
3.49891e-05
3.49949e-05
3.49929e-05
3.4975e-05
3.4964e-05
3.4874e-05
3.44618e-05
3.44722e-05
3.4506e-05
3.45647e-05
3.46432e-05
3.47277e-05
3.47972e-05
3.48285e-05
3.48055e-05
3.4723e-05
3.46109e-05
3.4582e-05
3.46337e-05
3.47109e-05
3.47845e-05
3.48418e-05
3.48784e-05
3.4894e-05
3.48902e-05
3.48697e-05
3.48353e-05
3.47898e-05
3.47357e-05
3.46749e-05
3.46096e-05
3.45461e-05
3.45021e-05
3.44989e-05
3.4525e-05
3.45678e-05
3.46197e-05
3.46761e-05
3.47334e-05
3.47893e-05
3.48417e-05
3.48888e-05
3.49291e-05
3.49617e-05
3.49855e-05
3.50004e-05
3.50047e-05
3.50011e-05
3.49815e-05
3.4969e-05
3.48766e-05
3.44665e-05
3.44647e-05
3.44766e-05
3.45132e-05
3.45755e-05
3.46575e-05
3.47443e-05
3.48133e-05
3.48409e-05
3.4811e-05
3.47202e-05
3.46074e-05
3.45897e-05
3.46481e-05
3.47281e-05
3.48018e-05
3.48578e-05
3.48921e-05
3.49049e-05
3.48983e-05
3.48748e-05
3.48376e-05
3.47896e-05
3.4733e-05
3.467e-05
3.46031e-05
3.454e-05
3.45009e-05
3.45036e-05
3.45335e-05
3.45789e-05
3.46327e-05
3.46903e-05
3.47485e-05
3.48048e-05
3.48572e-05
3.49039e-05
3.49437e-05
3.49754e-05
3.49981e-05
3.50115e-05
3.50144e-05
3.50092e-05
3.49879e-05
3.49737e-05
3.4879e-05
3.44754e-05
3.44692e-05
3.44676e-05
3.44812e-05
3.45208e-05
3.45868e-05
3.46724e-05
3.47612e-05
3.48294e-05
3.48528e-05
3.48157e-05
3.47165e-05
3.46047e-05
3.45985e-05
3.46633e-05
3.47456e-05
3.48194e-05
3.48737e-05
3.49056e-05
3.49156e-05
3.49059e-05
3.48795e-05
3.48395e-05
3.47888e-05
3.47299e-05
3.46647e-05
3.45963e-05
3.45342e-05
3.45009e-05
3.4509e-05
3.45426e-05
3.45906e-05
3.46461e-05
3.47049e-05
3.47638e-05
3.48205e-05
3.48728e-05
3.49192e-05
3.49583e-05
3.49891e-05
3.50105e-05
3.50226e-05
3.50239e-05
3.5017e-05
3.4994e-05
3.49783e-05
3.48812e-05
3.44852e-05
3.44783e-05
3.4472e-05
3.44706e-05
3.44861e-05
3.45288e-05
3.45986e-05
3.46878e-05
3.47784e-05
3.48455e-05
3.48642e-05
3.48193e-05
3.47119e-05
3.46032e-05
3.46085e-05
3.46792e-05
3.47636e-05
3.4837e-05
3.48896e-05
3.4919e-05
3.4926e-05
3.49132e-05
3.48838e-05
3.48409e-05
3.47876e-05
3.47262e-05
3.46589e-05
3.45894e-05
3.45288e-05
3.45018e-05
3.45153e-05
3.45524e-05
3.46027e-05
3.46599e-05
3.47198e-05
3.47795e-05
3.48364e-05
3.48887e-05
3.49347e-05
3.4973e-05
3.50027e-05
3.50229e-05
3.50335e-05
3.50332e-05
3.50247e-05
3.5e-05
3.49826e-05
3.48832e-05
3.44913e-05
3.44886e-05
3.44812e-05
3.44748e-05
3.44738e-05
3.44913e-05
3.45372e-05
3.46111e-05
3.47037e-05
3.4796e-05
3.48616e-05
3.48751e-05
3.4822e-05
3.47065e-05
3.46034e-05
3.46196e-05
3.46959e-05
3.4782e-05
3.48548e-05
3.49054e-05
3.4932e-05
3.4936e-05
3.49201e-05
3.48876e-05
3.48419e-05
3.47859e-05
3.47221e-05
3.46527e-05
3.45823e-05
3.45241e-05
3.45038e-05
3.45222e-05
3.45627e-05
3.46153e-05
3.46741e-05
3.47351e-05
3.47954e-05
3.48526e-05
3.49047e-05
3.49502e-05
3.49877e-05
3.50164e-05
3.50352e-05
3.50443e-05
3.50424e-05
3.50322e-05
3.50057e-05
3.49866e-05
3.4885e-05
3.44945e-05
3.44951e-05
3.44921e-05
3.44841e-05
3.44776e-05
3.4477e-05
3.44968e-05
3.45462e-05
3.46241e-05
3.47202e-05
3.48139e-05
3.48775e-05
3.48854e-05
3.48235e-05
3.47004e-05
3.4605e-05
3.46318e-05
3.47132e-05
3.48008e-05
3.48727e-05
3.49211e-05
3.49449e-05
3.49456e-05
3.49265e-05
3.48909e-05
3.48423e-05
3.47837e-05
3.47175e-05
3.46461e-05
3.45751e-05
3.45201e-05
3.45068e-05
3.453e-05
3.45736e-05
3.46284e-05
3.46888e-05
3.47508e-05
3.48116e-05
3.48689e-05
3.49208e-05
3.49658e-05
3.50024e-05
3.50299e-05
3.50474e-05
3.5055e-05
3.50514e-05
3.50394e-05
3.50111e-05
3.49904e-05
3.48866e-05
3.4497e-05
3.44984e-05
3.4499e-05
3.44956e-05
3.4487e-05
3.44805e-05
3.44805e-05
3.45026e-05
3.45556e-05
3.46376e-05
3.47372e-05
3.48321e-05
3.48932e-05
3.48949e-05
3.4824e-05
3.46939e-05
3.46081e-05
3.46451e-05
3.47313e-05
3.48198e-05
3.48906e-05
3.49367e-05
3.49574e-05
3.49549e-05
3.49325e-05
3.48938e-05
3.48423e-05
3.4781e-05
3.47124e-05
3.46391e-05
3.4568e-05
3.45171e-05
3.45107e-05
3.45384e-05
3.45851e-05
3.4642e-05
3.47038e-05
3.47668e-05
3.48281e-05
3.48855e-05
3.49372e-05
3.49815e-05
3.50172e-05
3.50435e-05
3.50596e-05
3.50655e-05
3.50602e-05
3.50465e-05
3.50163e-05
3.49939e-05
3.4888e-05
3.45001e-05
3.45008e-05
3.45024e-05
3.45029e-05
3.44991e-05
3.44899e-05
3.44834e-05
3.4484e-05
3.45088e-05
3.45655e-05
3.46518e-05
3.47547e-05
3.48505e-05
3.49087e-05
3.49037e-05
3.48232e-05
3.4687e-05
3.46126e-05
3.46594e-05
3.47499e-05
3.48392e-05
3.49085e-05
3.4952e-05
3.49696e-05
3.49638e-05
3.4938e-05
3.48962e-05
3.48418e-05
3.47778e-05
3.47068e-05
3.46318e-05
3.45611e-05
3.45152e-05
3.45155e-05
3.45475e-05
3.45971e-05
3.46561e-05
3.47193e-05
3.47831e-05
3.48449e-05
3.49023e-05
3.49536e-05
3.49972e-05
3.50319e-05
3.5057e-05
3.50716e-05
3.50759e-05
3.50688e-05
3.50532e-05
3.50213e-05
3.49972e-05
3.48893e-05
3.4504e-05
3.45048e-05
3.45064e-05
3.45068e-05
3.45026e-05
3.44929e-05
3.44863e-05
3.44877e-05
3.45153e-05
3.45759e-05
3.46665e-05
3.47727e-05
3.4869e-05
3.49239e-05
3.49115e-05
3.48212e-05
3.468e-05
3.46184e-05
3.46748e-05
3.47692e-05
3.48588e-05
3.49264e-05
3.49672e-05
3.49815e-05
3.49722e-05
3.49431e-05
3.4898e-05
3.48407e-05
3.47741e-05
3.47007e-05
3.46243e-05
3.45545e-05
3.45145e-05
3.45212e-05
3.45574e-05
3.46098e-05
3.46706e-05
3.47351e-05
3.47998e-05
3.48619e-05
3.49193e-05
3.49702e-05
3.5013e-05
3.50467e-05
3.50704e-05
3.50834e-05
3.50861e-05
3.50771e-05
3.50597e-05
3.5026e-05
3.50003e-05
3.48904e-05
3.4508e-05
3.45079e-05
3.45088e-05
3.45105e-05
3.45108e-05
3.45062e-05
3.44959e-05
3.44893e-05
3.44917e-05
3.45222e-05
3.45869e-05
3.46819e-05
3.47912e-05
3.48877e-05
3.49387e-05
3.49184e-05
3.4818e-05
3.46732e-05
3.46257e-05
3.46912e-05
3.47889e-05
3.48785e-05
3.49443e-05
3.49821e-05
3.4993e-05
3.49802e-05
3.49476e-05
3.48994e-05
3.48391e-05
3.47698e-05
3.46942e-05
3.46165e-05
3.45483e-05
3.45151e-05
3.45278e-05
3.45679e-05
3.46229e-05
3.46856e-05
3.47514e-05
3.48168e-05
3.48792e-05
3.49365e-05
3.49869e-05
3.50289e-05
3.50614e-05
3.50837e-05
3.50952e-05
3.5096e-05
3.50851e-05
3.5066e-05
3.50305e-05
3.50031e-05
3.48913e-05
3.45119e-05
3.45119e-05
3.45129e-05
3.45147e-05
3.45149e-05
3.45097e-05
3.44989e-05
3.44923e-05
3.44959e-05
3.45295e-05
3.45984e-05
3.46978e-05
3.48102e-05
3.49064e-05
3.4953e-05
3.49243e-05
3.48135e-05
3.46669e-05
3.46344e-05
3.47085e-05
3.48092e-05
3.48985e-05
3.49621e-05
3.49968e-05
3.50041e-05
3.49877e-05
3.49517e-05
3.49002e-05
3.4837e-05
3.47651e-05
3.46872e-05
3.46085e-05
3.45427e-05
3.45167e-05
3.45352e-05
3.4579e-05
3.46366e-05
3.47011e-05
3.4768e-05
3.48341e-05
3.48967e-05
3.49538e-05
3.50037e-05
3.50448e-05
3.50761e-05
3.5097e-05
3.51067e-05
3.51057e-05
3.5093e-05
3.5072e-05
3.50348e-05
3.50057e-05
3.4892e-05
3.45165e-05
3.4516e-05
3.45159e-05
3.4517e-05
3.45189e-05
3.4519e-05
3.45133e-05
3.45019e-05
3.44954e-05
3.45004e-05
3.45372e-05
3.46105e-05
3.47143e-05
3.48295e-05
3.49252e-05
3.49668e-05
3.49291e-05
3.48079e-05
3.46614e-05
3.46445e-05
3.47267e-05
3.483e-05
3.49186e-05
3.49797e-05
3.50111e-05
3.50148e-05
3.49947e-05
3.49552e-05
3.49005e-05
3.48344e-05
3.47598e-05
3.46798e-05
3.46005e-05
3.45379e-05
3.45195e-05
3.45435e-05
3.45909e-05
3.46509e-05
3.4717e-05
3.4785e-05
3.48517e-05
3.49145e-05
3.49714e-05
3.50206e-05
3.50607e-05
3.50908e-05
3.51101e-05
3.5118e-05
3.51152e-05
3.51007e-05
3.50778e-05
3.50388e-05
3.50081e-05
3.48926e-05
3.45206e-05
3.452e-05
3.45201e-05
3.45212e-05
3.45232e-05
3.45231e-05
3.4517e-05
3.45049e-05
3.44985e-05
3.45051e-05
3.45453e-05
3.46232e-05
3.47315e-05
3.48493e-05
3.49439e-05
3.498e-05
3.49326e-05
3.48013e-05
3.46573e-05
3.4656e-05
3.47458e-05
3.48512e-05
3.49387e-05
3.49972e-05
3.50252e-05
3.50251e-05
3.50013e-05
3.49582e-05
3.49003e-05
3.48312e-05
3.4754e-05
3.4672e-05
3.45926e-05
3.4534e-05
3.45234e-05
3.45525e-05
3.46033e-05
3.46656e-05
3.47334e-05
3.48024e-05
3.48696e-05
3.49325e-05
3.4989e-05
3.50375e-05
3.50767e-05
3.51053e-05
3.5123e-05
3.51292e-05
3.51245e-05
3.51081e-05
3.50834e-05
3.50426e-05
3.50102e-05
3.4893e-05
3.45247e-05
3.45242e-05
3.45242e-05
3.45255e-05
3.45276e-05
3.45273e-05
3.45206e-05
3.45079e-05
3.45017e-05
3.45102e-05
3.4554e-05
3.46365e-05
3.47492e-05
3.48694e-05
3.49625e-05
3.49924e-05
3.49349e-05
3.47936e-05
3.46546e-05
3.4669e-05
3.47658e-05
3.48727e-05
3.49589e-05
3.50145e-05
3.50388e-05
3.50349e-05
3.50073e-05
3.49607e-05
3.48995e-05
3.48274e-05
3.47476e-05
3.46638e-05
3.45848e-05
3.45313e-05
3.45283e-05
3.45623e-05
3.46164e-05
3.46809e-05
3.47502e-05
3.48201e-05
3.48878e-05
3.49507e-05
3.50069e-05
3.50547e-05
3.50926e-05
3.51197e-05
3.51358e-05
3.51402e-05
3.51336e-05
3.51153e-05
3.50887e-05
3.50461e-05
3.5012e-05
3.48933e-05
3.45289e-05
3.45284e-05
3.45285e-05
3.45299e-05
3.4532e-05
3.45316e-05
3.45242e-05
3.4511e-05
3.4505e-05
3.45155e-05
3.45631e-05
3.46505e-05
3.47676e-05
3.48898e-05
3.4981e-05
3.50041e-05
3.49359e-05
3.4785e-05
3.46542e-05
3.46833e-05
3.47865e-05
3.48946e-05
3.49791e-05
3.50316e-05
3.50521e-05
3.50443e-05
3.50128e-05
3.49626e-05
3.48981e-05
3.48231e-05
3.47408e-05
3.46554e-05
3.45773e-05
3.45298e-05
3.45342e-05
3.45729e-05
3.46301e-05
3.46967e-05
3.47674e-05
3.48382e-05
3.49063e-05
3.49691e-05
3.50249e-05
3.50717e-05
3.51083e-05
3.51341e-05
3.51484e-05
3.5151e-05
3.51425e-05
3.51222e-05
3.50937e-05
3.50494e-05
3.50136e-05
3.48934e-05
3.45341e-05
3.45332e-05
3.45327e-05
3.45328e-05
3.45343e-05
3.45366e-05
3.45359e-05
3.45279e-05
3.45141e-05
3.45084e-05
3.45211e-05
3.45727e-05
3.4665e-05
3.47865e-05
3.49106e-05
3.49992e-05
3.50149e-05
3.49355e-05
3.47758e-05
3.4656e-05
3.46991e-05
3.48079e-05
3.49167e-05
3.49993e-05
3.50484e-05
3.5065e-05
3.50531e-05
3.50177e-05
3.49639e-05
3.48962e-05
3.48182e-05
3.47334e-05
3.46467e-05
3.45702e-05
3.45297e-05
3.45411e-05
3.45843e-05
3.46444e-05
3.4713e-05
3.47851e-05
3.48567e-05
3.4925e-05
3.49878e-05
3.50429e-05
3.50887e-05
3.51241e-05
3.51483e-05
3.51609e-05
3.51616e-05
3.51511e-05
3.51289e-05
3.50985e-05
3.50524e-05
3.5015e-05
3.48934e-05
3.45384e-05
3.45375e-05
3.4537e-05
3.45372e-05
3.45388e-05
3.45412e-05
3.45402e-05
3.45316e-05
3.45172e-05
3.45119e-05
3.45271e-05
3.45829e-05
3.46802e-05
3.4806e-05
3.49315e-05
3.50171e-05
3.50247e-05
3.49336e-05
3.47661e-05
3.46597e-05
3.47161e-05
3.48301e-05
3.49391e-05
3.50193e-05
3.50649e-05
3.50775e-05
3.50615e-05
3.50221e-05
3.49647e-05
3.48936e-05
3.48128e-05
3.47256e-05
3.46378e-05
3.45637e-05
3.4531e-05
3.4549e-05
3.45963e-05
3.46592e-05
3.47298e-05
3.48031e-05
3.48755e-05
3.49441e-05
3.50066e-05
3.50609e-05
3.51057e-05
3.51399e-05
3.51624e-05
3.51732e-05
3.5172e-05
3.51595e-05
3.51353e-05
3.5103e-05
3.50552e-05
3.50162e-05
3.48932e-05
3.45446e-05
3.45428e-05
3.45419e-05
3.45414e-05
3.45417e-05
3.45434e-05
3.45458e-05
3.45446e-05
3.45353e-05
3.45204e-05
3.45155e-05
3.45334e-05
3.45936e-05
3.4696e-05
3.4826e-05
3.49527e-05
3.50346e-05
3.50334e-05
3.49303e-05
3.47562e-05
3.46655e-05
3.47344e-05
3.48528e-05
3.49616e-05
3.50392e-05
3.50811e-05
3.50895e-05
3.50692e-05
3.50259e-05
3.49648e-05
3.48905e-05
3.48068e-05
3.47173e-05
3.46289e-05
3.45579e-05
3.45335e-05
3.45578e-05
3.46091e-05
3.46747e-05
3.47471e-05
3.48216e-05
3.48947e-05
3.49634e-05
3.50254e-05
3.50791e-05
3.51228e-05
3.51555e-05
3.51764e-05
3.51853e-05
3.51821e-05
3.51676e-05
3.51414e-05
3.51072e-05
3.50577e-05
3.50171e-05
3.48928e-05
3.4549e-05
3.45472e-05
3.45463e-05
3.45459e-05
3.45462e-05
3.45481e-05
3.45506e-05
3.4549e-05
3.4539e-05
3.45236e-05
3.45193e-05
3.45401e-05
3.46048e-05
3.47125e-05
3.48466e-05
3.4974e-05
3.50516e-05
3.50409e-05
3.49255e-05
3.47464e-05
3.46731e-05
3.47539e-05
3.48761e-05
3.49843e-05
3.5059e-05
3.50969e-05
3.5101e-05
3.50765e-05
3.50291e-05
3.49644e-05
3.48868e-05
3.48002e-05
3.47086e-05
3.462e-05
3.45531e-05
3.45372e-05
3.45674e-05
3.46226e-05
3.46908e-05
3.47649e-05
3.48406e-05
3.49141e-05
3.49827e-05
3.50444e-05
3.50973e-05
3.51399e-05
3.51711e-05
3.51903e-05
3.51973e-05
3.5192e-05
3.51755e-05
3.51473e-05
3.51112e-05
3.506e-05
3.50178e-05
3.48923e-05
3.45535e-05
3.45517e-05
3.45509e-05
3.45505e-05
3.45508e-05
3.45529e-05
3.45554e-05
3.45535e-05
3.45427e-05
3.45269e-05
3.45232e-05
3.45472e-05
3.46167e-05
3.47296e-05
3.48676e-05
3.49954e-05
3.50681e-05
3.50472e-05
3.49194e-05
3.4737e-05
3.46826e-05
3.47745e-05
3.49e-05
3.5007e-05
3.50786e-05
3.51123e-05
3.5112e-05
3.50831e-05
3.50317e-05
3.49633e-05
3.48825e-05
3.4793e-05
3.46995e-05
3.46113e-05
3.45494e-05
3.45422e-05
3.4578e-05
3.46368e-05
3.47074e-05
3.47833e-05
3.48598e-05
3.49336e-05
3.50023e-05
3.50636e-05
3.51156e-05
3.51569e-05
3.51865e-05
3.52039e-05
3.5209e-05
3.52017e-05
3.51831e-05
3.51529e-05
3.51149e-05
3.50621e-05
3.50182e-05
3.48917e-05
3.4558e-05
3.45562e-05
3.45555e-05
3.45551e-05
3.45555e-05
3.45577e-05
3.45603e-05
3.4558e-05
3.45464e-05
3.45303e-05
3.45273e-05
3.45547e-05
3.46291e-05
3.47474e-05
3.48892e-05
3.50167e-05
3.50839e-05
3.50522e-05
3.49118e-05
3.47284e-05
3.46939e-05
3.47961e-05
3.49242e-05
3.50298e-05
3.50979e-05
3.51273e-05
3.51224e-05
3.50892e-05
3.50337e-05
3.49616e-05
3.48775e-05
3.47853e-05
3.46901e-05
3.46028e-05
3.4547e-05
3.45483e-05
3.45894e-05
3.46516e-05
3.47246e-05
3.48019e-05
3.48793e-05
3.49535e-05
3.50221e-05
3.50828e-05
3.51338e-05
3.51738e-05
3.52019e-05
3.52174e-05
3.52205e-05
3.52111e-05
3.51904e-05
3.51582e-05
3.51184e-05
3.50639e-05
3.50184e-05
3.48909e-05
3.45625e-05
3.45608e-05
3.45601e-05
3.45598e-05
3.45603e-05
3.45626e-05
3.45652e-05
3.45625e-05
3.45501e-05
3.45337e-05
3.45317e-05
3.45627e-05
3.46422e-05
3.47659e-05
3.49111e-05
3.50381e-05
3.50989e-05
3.50557e-05
3.49029e-05
3.47209e-05
3.4707e-05
3.48188e-05
3.49489e-05
3.50526e-05
3.51169e-05
3.51419e-05
3.51323e-05
3.50946e-05
3.50351e-05
3.49593e-05
3.48719e-05
3.47771e-05
3.46804e-05
3.45947e-05
3.45461e-05
3.45555e-05
3.46016e-05
3.46672e-05
3.47423e-05
3.48209e-05
3.48991e-05
3.49737e-05
3.50421e-05
3.51021e-05
3.51521e-05
3.51907e-05
3.52171e-05
3.52307e-05
3.52317e-05
3.52202e-05
3.51975e-05
3.51632e-05
3.51216e-05
3.50654e-05
3.50184e-05
3.489e-05
3.45671e-05
3.45655e-05
3.45649e-05
3.45645e-05
3.45652e-05
3.45677e-05
3.45703e-05
3.45671e-05
3.45538e-05
3.45371e-05
3.45362e-05
3.45711e-05
3.46559e-05
3.4785e-05
3.49335e-05
3.50593e-05
3.51131e-05
3.50577e-05
3.48928e-05
3.47151e-05
3.47219e-05
3.48424e-05
3.49739e-05
3.50753e-05
3.51356e-05
3.51559e-05
3.51416e-05
3.50994e-05
3.50358e-05
3.49563e-05
3.48658e-05
3.47683e-05
3.46706e-05
3.45872e-05
3.45468e-05
3.45637e-05
3.46147e-05
3.46834e-05
3.47604e-05
3.48404e-05
3.49193e-05
3.49941e-05
3.50622e-05
3.51216e-05
3.51704e-05
3.52076e-05
3.52322e-05
3.52439e-05
3.52428e-05
3.52291e-05
3.52043e-05
3.5168e-05
3.51245e-05
3.50667e-05
3.50182e-05
3.4889e-05
3.45718e-05
3.45702e-05
3.45697e-05
3.45694e-05
3.45701e-05
3.45727e-05
3.45753e-05
3.45717e-05
3.45576e-05
3.45407e-05
3.45411e-05
3.458e-05
3.46703e-05
3.48047e-05
3.49563e-05
3.50802e-05
3.51263e-05
3.50582e-05
3.48816e-05
3.47115e-05
3.47385e-05
3.48669e-05
3.49992e-05
3.50979e-05
3.5154e-05
3.51694e-05
3.51503e-05
3.51036e-05
3.50358e-05
3.49527e-05
3.4859e-05
3.47591e-05
3.46606e-05