/*--------------------------------*- C++ -*----------------------------------*\
  =========                 |
  \\      /  F ield         | OpenFOAM: The Open Source CFD Toolbox
   \\    /   O peration     | Website:  https://openfoam.org
    \\  /    A nd           | Version:  7
     \\/     M anipulation  |
\*---------------------------------------------------------------------------*/
FoamFile
{
    version     2.0;
    format      ascii;
    class       volScalarField;
    location    "200";
    object      p;
}
// * * * * * * * * * * * * * * * * * * * * * * * * * * * * * * * * * * * * * //

dimensions      [0 2 -2 0 0 0 0];

internalField   nonuniform List<scalar> 
23023
(
6.52312
5.14486
6.48414
7.71144
5.09198
6.44431
7.62298
7.63075
5.03758
6.4037
7.53254
7.54888
4.98174
6.36234
8.09704
7.4409
7.46591
4.92453
6.32026
7.99591
7.99545
7.34814
7.38189
4.86599
6.2775
7.88679
7.88833
7.89276
7.25433
7.29687
4.80618
6.23409
7.50235
7.77429
7.77965
7.78904
7.15952
7.21089
4.74514
6.19003
6.97497
7.38667
7.66072
7.66993
7.68435
7.06374
7.12399
4.68291
6.14538
6.25206
6.85732
7.26995
7.54615
7.55924
7.57872
6.96704
7.03623
4.61951
6.10013
6.13384
6.73863
7.15224
7.43063
7.4476
7.47219
6.86949
6.94762
4.55499
6.05433
5.24255
6.01459
6.619
7.0336
7.31416
7.33503
7.36481
6.7711
6.85821
4.48938
6.00799
4.17459
5.12415
5.89438
6.49846
6.91403
7.19676
7.22159
7.25663
6.67193
6.76801
4.42271
5.96114
2.93728
4.05849
5.00474
5.7733
6.37703
6.79354
7.07847
7.10731
7.14768
6.57199
6.67705
4.35501
5.9138
1.53305
2.82508
3.94138
4.88443
5.65135
6.25471
6.67215
6.95932
6.99226
7.03802
6.47132
6.58534
4.28633
5.86601
1.42648
2.71186
3.82335
4.76329
5.52854
6.13152
6.54989
6.83935
6.87647
6.92766
6.36992
6.49291
4.2167
5.81779
-0.129272
1.31892
2.59773
3.70449
4.64132
5.40489
6.00746
6.4268
6.71863
6.75998
6.81663
6.26782
6.39978
4.14616
5.76917
-1.83161
-0.229204
1.21047
2.48277
3.58482
4.51855
5.28041
5.88257
6.3029
6.59718
6.64282
6.70496
6.16505
6.30598
4.07476
5.72016
-1.92198
-0.330032
1.10121
2.36702
3.46437
4.39499
5.15512
5.75686
6.17824
6.47504
6.52501
6.59265
6.06161
6.21154
4.00253
5.67078
-3.74395
-2.01313
-0.431661
0.991165
2.2505
3.34317
4.27065
5.02902
5.63035
6.05286
6.35226
6.40659
6.47972
5.95755
6.1165
3.92949
5.62104
-5.67451
-3.82317
-2.105
-0.534026
0.880371
2.13325
3.22123
4.14555
4.90213
5.50309
5.92679
6.22886
6.28757
6.3662
5.85287
6.02086
3.85569
5.57097
-7.68712
-5.73956
-3.90302
-2.19754
-0.637101
0.768865
2.0153
3.09858
4.01968
4.77446
5.37511
5.80008
6.10487
6.16796
6.25209
5.74761
5.92466
3.78115
5.52056
-9.74813
-7.73564
-5.80506
-3.98344
-2.29071
-0.740857
0.656691
1.89668
2.97521
3.89306
4.64604
5.24645
5.67278
5.98031
6.04779
6.13742
5.64178
5.82793
3.70589
5.46985
-9.7777
-7.78435
-5.87095
-4.06439
-2.38452
-0.845256
0.543879
1.7774
2.85113
3.76569
4.51691
5.11715
5.5449
5.8552
5.92705
6.0222
5.53542
5.73068
3.62994
5.41883
-11.8243
-9.80715
-7.8332
-5.93719
-4.14587
-2.47891
-0.950258
0.430449
1.65746
2.72633
3.63758
4.3871
4.98727
5.41648
5.72955
5.80578
5.90646
5.42854
5.63293
3.55331
5.36753
-13.8247
-11.832
-9.83646
-7.88219
-6.00381
-4.22784
-2.57386
-1.05584
0.316414
1.53686
2.60083
3.50878
4.25667
4.85683
5.28753
5.60336
5.68397
5.79023
5.32117
5.53469
3.47603
5.31596
-13.8085
-11.8392
-9.86562
-7.93133
-6.07079
-4.3103
-2.66934
-1.16197
0.201785
1.41561
2.47463
3.37931
4.12565
4.72585
5.15806
5.47665
5.56165
5.67351
5.21332
5.43598
3.39813
5.26415
-15.6767
-13.7915
-11.8461
-9.89464
-7.98064
-6.13813
-4.39322
-2.76533
-1.26864
0.0865645
1.2937
2.34775
3.24921
3.99408
4.59436
5.02808
5.34942
5.43884
5.55633
5.10501
5.33681
3.31963
5.21211
-17.3648
-15.6334
-13.7737
-11.8524
-9.92358
-8.03013
-6.20582
-4.47657
-2.8618
-1.37583
-0.0292443
1.17114
2.22023
3.11852
3.86198
4.46237
4.89758
5.22168
5.31556
5.43872
4.99625
5.2372
3.24056
5.15986
-17.2939
-15.5888
-13.755
-11.8584
-9.95246
-8.07981
-6.27384
-4.56034
-2.95873
-1.48354
-0.145638
1.04795
2.09208
2.98729
3.72939
4.32989
4.76658
5.09347
5.19183
5.32068
4.88705
5.13715
3.16095
5.10743
-18.6898
-17.2212
-15.543
-13.7354
-11.8639
-9.98129
-8.12968
-6.3422
-4.64451
-3.05611
-1.59176
-0.26262
0.924134
1.96336
2.85555
3.59632
4.19692
4.63509
4.96479
5.06767
5.20223
4.77742
5.0367
3.08083
5.05481
-19.7241
-18.5882
-17.1468
-15.4959
-13.7152
-11.8692
-10.0101
-8.17974
-6.41087
-4.72906
-3.15393
-1.7005
-0.38019
0.799716
1.83409
2.72331
3.46277
4.06345
4.50312
4.83567
4.9431
5.08337
4.66739
4.93586
3.00022
5.00203
-19.5942
-18.4844
-17.0706
-15.4477
-13.6942
-11.8741
-10.0389
-8.22999
-6.47983
-4.81397
-3.25216
-1.80975
-0.498342
0.674729
1.70431
2.59062
3.32875
3.92951
4.37069
4.70614
4.81813
4.96413
4.55696
4.83465
2.91915
4.94908
-20.1293
-19.4614
-18.3784
-16.9928
-15.3983
-13.6726
-11.8788
-10.0678
-8.28043
-6.54907
-4.89921
-3.35083
-1.91952
-0.617061
0.5492
1.57405
2.45747
3.19427
3.7951
4.23782
4.5762
4.69278
4.8445
4.44614
4.73309
2.83765
4.89597
-20.0698
-19.969
-19.3258
-18.2702
-16.9133
-15.348
-13.6505
-11.8833
-10.0966
-8.33103
-6.61856
-4.9848
-3.44993
-2.02982
-0.736333
0.423164
1.44334
2.32387
3.05932
3.66023
4.10453
4.44589
4.56705
4.72449
4.33496
4.63122
2.75574
4.84269
-19.8854
-19.8053
-19.1873
-18.1598
-16.8324
-15.2966
-13.6278
-11.8875
-10.1255
-8.38179
-6.6883
-5.07072
-3.54947
-2.14064
-0.856133
0.296659
1.3122
2.18983
2.9239
3.52492
3.97086
4.3152
4.44095
4.60412
4.22345
4.52905
2.67343
4.78925
-19.0779
-19.697
-19.6383
-19.0461
-18.0474
-16.75
-15.2443
-13.6046
-11.8916
-10.1544
-8.43268
-6.75827
-5.15697
-3.64946
-2.25198
-0.976427
0.169713
1.18063
2.05534
2.78805
3.38921
3.83681
4.18415
4.31448
4.48342
4.11163
4.42659
2.59073
4.73565
-17.4076
-18.8694
-19.5044
-19.4678
-18.9024
-17.933
-16.6663
-15.1912
-13.581
-11.8955
-10.1833
-8.4837
-6.82846
-5.24357
-3.74991
-2.36381
-1.09718
0.0423499
1.04864
1.92042
2.65176
3.2531
3.70239
4.05274
4.18765
4.36238
3.99951
4.32386
2.50765
4.68187
-14.741
-17.1862
-18.6563
-19.3078
-19.2942
-18.7561
-17.8169
-16.5813
-15.1373
-13.5569
-11.8993
-10.2122
-8.53484
-6.89889
-5.33054
-3.85083
-2.47612
-1.21837
-0.085412
0.916239
1.78506
2.51506
3.11662
3.56763
3.92098
4.06049
4.24105
3.88712
4.22087
2.42419
4.62793
-10.968
-14.5153
-16.9595
-18.4387
-19.1073
-19.1174
-18.6075
-17.6989
-16.4952
-15.0827
-13.5325
-11.9029
-10.2411
-8.58609
-6.96957
-5.41788
-3.9522
-2.58888
-1.33995
-0.213565
0.783421
1.64927
2.37797
2.97979
3.43252
3.78888
3.933
4.11943
3.77448
4.11762
2.34037
4.57382
-6.03301
-10.7481
-14.2838
-16.7276
-18.2164
-18.9032
-18.9378
-18.4566
-17.5793
-16.4079
-15.0274
-13.5077
-11.9063
-10.27
-8.63746
-7.0405
-5.50561
-4.05401
-2.70204
-1.46191
-0.3421
0.650185
1.51308
2.24051
2.84263
3.29708
3.65643
3.80519
3.99756
3.66159
4.0141
2.25617
4.51956
0.0198386
-5.82977
-10.5222
-14.0466
-16.4906
-17.9899
-18.6955
-18.7553
-18.3035
-17.4582
-16.3196
-14.9714
-13.4825
-11.9095
-10.2989
-8.68896
-7.11171
-5.59374
-4.15625
-2.81559
-1.58422
-0.471024
0.516536
1.3765
2.10271
2.70513
3.16129
3.52365
3.67711
3.87546
3.54847
3.91033
2.17161
4.46516
0.195593
-5.62079
-10.2904
-13.8039
-16.2487
-17.7592
-18.4845
-18.57
-18.1484
-17.3356
-16.2303
-14.9148
-13.4569
-11.9126
-10.3278
-8.74059
-7.18322
-5.68226
-4.25888
-2.92949
-1.70689
-0.60034
0.382489
1.23955
1.96458
2.56731
3.02517
3.39057
3.54877
3.75312
3.4351
3.80629
2.0867
4.41063
7.13006
0.376388
-5.40603
-10.0528
-13.5558
-16.0021
-17.5245
-18.2701
-18.3822
-17.9913
-17.2115
-16.14
-14.8576
-13.4311
-11.9156
-10.3566
-8.7924
-7.25505
-5.77116
-4.36186
-3.04372
-1.82992
-0.730044
0.24806
1.10227
1.82613
2.42916
2.88872
3.25719
3.42018
3.63057
3.32149
3.70198
2.00144
4.35599
14.5744
7.27279
0.562302
-5.1856
-9.80957
-13.3026
-15.751
-17.286
-18.0526
-18.1919
-17.8323
-17.0862
-16.0488
-14.7998
-13.4049
-11.9184
-10.3855
-8.84439
-7.3272
-5.86042
-4.46517
-3.15827
-1.9533
-0.860132
0.113271
0.964658
1.68737
2.29068
2.75195
3.12355
3.29137
3.50781
3.20764
3.5974
1.91587
4.30125
14.6715
7.41924
0.753274
-4.95973
-9.56108
-13.0445
-15.4955
-17.0438
-17.832
-17.9992
-17.6715
-16.9595
-15.9568
-14.7415
-13.3783
-11.921
-10.4144
-8.89659
-7.39967
-5.95001
-4.56879
-3.27313
-2.07703
-0.990588
-0.0218569
0.826742
1.5483
2.15188
2.61488
2.98966
3.16236
3.38484
3.09353
3.49257
1.82999
4.24642
21.9612
14.7706
7.56951
0.949097
-4.72867
-9.30747
-12.7817
-15.2359
-16.798
-17.6085
-17.8042
-17.5091
-16.8317
-15.8639
-14.6826
-13.3515
-11.9235
-10.4434
-8.94903
-7.47245
-6.0399
-4.67268
-3.38831
-2.20113
-1.1214
-0.157302
0.688533
1.40891
2.01276
2.47753
2.85555
3.03315
3.26164
2.97917
3.38748
1.74383
4.19153
28.3726
22.0087
14.8718
7.72359
1.14957
-4.49258
-9.0489
-12.5142
-14.9722
-16.5488
-17.3822
-17.607
-17.345
-16.7027
-15.7703
-14.6233
-13.3243
-11.9259
-10.4724
-9.00171
-7.54553
-6.13006
-4.77685
-3.5038
-2.32558
-1.25255
-0.293038
0.550031
1.26921
1.87333
2.33992
2.72123
2.90373
3.13822
2.86456
3.28215
1.65741
4.13656
33.1138
28.3682
22.056
14.9751
7.8813
1.35455
-4.25162
-8.78552
-12.2423
-14.7046
-16.2963
-17.1533
-17.4078
-17.1794
-16.5726
-15.6759
-14.5634
-13.2969
-11.9282
-10.5016
-9.05464
-7.61886
-6.22046
-4.88128
-3.61963
-2.45037
-1.38401
-0.429055
0.411232
1.12919
1.7336
2.20208
2.58671
2.77411
3.01456
2.74969
3.17661
1.57075
4.08154
35.5522
33.0611
28.3614
22.1033
15.0805
8.04251
1.56391
-4.00592
-8.51748
-11.9662
-14.4332
-16.0406
-16.9218
-17.2066
-17.0124
-16.4415
-15.5808
-14.503
-13.2692
-11.9305
-10.5309
-9.1078
-7.69244
-6.31109
-4.98599
-3.73578
-2.57549
-1.51575
-0.565348
0.272128
0.988854
1.59361
2.06402
2.45201
2.64429
2.89066
2.63459
3.07086
1.48387
4.02646
35.3938
35.4577
33.004
28.3525
22.1508
15.1878
8.2071
1.77755
-3.75562
-8.24493
-11.6858
-14.1582
-15.7818
-16.6878
-17.0036
-16.8439
-16.3093
-15.4849
-14.4422
-13.2412
-11.9327
-10.5604
-9.16118
-7.76621
-6.40194
-5.09097
-3.85225
-2.70091
-1.64775
-0.701919
0.132716
0.848216
1.45336
1.92578
2.31713
2.51424
2.76652
2.51926
2.96493
1.39679
3.97132
32.8185
35.2664
35.3576
32.9429
28.3416
22.1984
15.297
8.37502
1.99535
-3.50086
-7.96802
-11.4015
-13.8796
-15.5201
-16.4515
-16.7987
-16.6741
-16.1762
-15.3884
-14.381
-13.213
-11.935
-10.59
-9.21474
-7.84016
-6.49301
-5.19625
-3.96903
-2.82661
-1.78002
-0.838773
-0.00700554
0.707292
1.31289
1.78735
2.18205
2.38396
2.64215
2.40372
2.85883
1.30951
3.91612
28.533
32.6689
35.133
35.2521
32.878
28.3287
22.246
15.4081
8.54621
2.21719
-3.24178
-7.68687
-11.1132
-13.5977
-15.2556
-16.213
-16.5921
-16.503
-16.0421
-15.2912
-14.3193
-13.1847
-11.9373
-10.6198
-9.26846
-7.91428
-6.5843
-5.30181
-4.08611
-2.95257
-1.91254
-0.975917
-0.147035
0.566105
1.17223
1.64875
2.04677
2.25345
2.51754
2.28799
2.75259
1.22205
3.86084
23.6921
28.3735
32.5141
34.994
35.1416
32.8092
28.3139
22.2937
15.5212
8.72057
2.44294
-2.9785
-7.40162
-10.8212
-13.3125
-14.9884
-15.9724
-16.3839
-16.3307
-15.9072
-15.1934
-14.2573
-13.1562
-11.9397
-10.6497
-9.3223
-7.98855
-6.67582
-5.40767
-4.20347
-3.07877
-2.04532
-1.11336
-0.287362
0.424681
1.03139
1.50998
1.91128
2.1227
2.39273
2.1721
2.6462
1.1344
3.80548
19.6389
23.5351
28.2105
32.3543
34.8494
35.026
32.7367
28.2973
22.3416
15.6361
8.89802
2.67252
-2.71114
-7.11241
-10.5256
-13.0242
-14.7187
-15.7297
-16.174
-16.1572
-15.7713
-15.095
-14.1949
-13.1277
-11.9421
-10.6797
-9.37625
-8.06298
-6.7676
-5.51381
-4.32107
-3.2052
-2.17837
-1.25111
-0.427967
0.283049
0.890381
1.37102
1.77557
1.99172
2.26772
2.05605
2.53969
1.04656
3.75004
17.4664
19.4958
23.3772
28.0443
32.1898
34.6994
34.9054
32.6607
28.279
22.3897
15.7528
9.0785
2.90583
-2.43983
-6.81934
-10.2265
-12.7329
-14.4465
-15.4851
-15.9627
-15.9825
-15.6347
-14.9961
-14.1322
-13.099
-11.9445
-10.7098
-9.4303
-8.1376
-6.85964
-5.6202
-4.43889
-3.33187
-2.3117
-1.38916
-0.568825
0.141233
0.749212
1.23187
1.63962
1.86051
2.14253
1.93986
2.43305
0.958544
3.6945
17.5403
17.3454
19.3546
23.2187
27.875
32.0205
34.5442
34.7801
32.5812
28.2589
22.438
15.8713
9.26193
3.14275
-2.16467
-6.52256
-9.92404
-12.4388
-14.1719
-15.2385
-15.7499
-15.8067
-15.4972
-14.8966
-14.0692
-13.0703
-11.947
-10.7399
-9.48444
-8.2124
-6.95193
-5.72684
-4.55693
-3.45877
-2.44532
-1.5275
-0.709908
-0.000746222
0.60788
1.09251
1.50343
1.72909
2.01719
1.82355
2.32627
0.87032
3.63891
19.3082
17.4441
17.2281
19.2152
23.0595
27.7027
31.8465
34.3837
34.6501
32.4984
28.2374
22.4864
15.9915
9.44824
3.38322
-1.88577
-6.22218
-9.61836
-12.1419
-13.8951
-14.9902
-15.5357
-15.6299
-15.359
-14.7966
-14.0061
-13.0416
-11.9495
-10.77
-9.53868
-8.28741
-7.04446
-5.83369
-4.67518
-3.58592
-2.57923
-1.6661
-0.851187
-0.142877
0.466373
0.952928
1.36702
1.59748
1.8917
1.70713
2.21935
0.781955
3.58322
21.6798
19.2329
17.3522
17.1145
19.0777
22.8996
27.5272
31.6679
34.2181
34.5156
32.4124
28.2143
22.5351
16.1135
9.6374
3.62713
-1.60324
-5.91834
-9.30959
-11.8423
-13.6161
-14.7401
-15.3202
-15.4521
-15.22
-14.6962
-13.9427
-13.0128
-11.952
-10.8002
-9.59305
-8.36263
-7.13722
-5.94074
-4.79362
-3.71334
-2.71344
-1.80495
-0.992634
-0.285156
0.324676
0.813109
1.23038
1.4657
1.76611
1.59056
2.11236
0.69338
3.52715
23.7691
21.6159
19.1615
17.2647
17.0045
18.9419
22.7389
27.3488
31.4848
34.0477
34.3768
32.3234
28.1898
22.5841
16.2372
9.82934
3.87441
-1.3172
-5.61116
-8.99784
-11.5402
-13.335
-14.4883
-15.1033
-15.2733
-15.0804
-14.5954
-13.8791
-12.9839
-11.9545
-10.8304
-9.64755
-8.43807
-7.23018
-6.04797
-4.91229
-3.84104
-2.84793
-1.94402
-1.13423
-0.427589
0.182771
0.673054
1.09353
1.33378
1.64038
1.47396
2.00519
0.604116
3.47071
25.3623
23.7059
21.555
19.0939
17.1814
16.8981
18.8077
22.5775
27.1674
31.2973
33.8726
34.2338
32.2313
28.1638
22.6333
16.3627
10.024
4.12496
-1.02777
-5.30077
-8.68324
-11.2357
-13.0519
-14.235
-14.8853
-15.0936
-14.9401
-14.4942
-13.8154
-12.9549
-11.9569
-10.8607
-9.70222
-8.51372
-7.32332
-6.15537
-5.03119
-3.96903
-2.98267
-2.08326
-1.27596
-0.570191
0.0406426
0.532762
0.956497
1.2017
1.51462
1.3572
1.89724
0.514301
3.41457
26.7657
25.2929
23.645
21.497
19.0302
17.1023
16.795
18.675
22.4152
26.983
31.1056
33.6928
34.0867
32.1364
28.1367
22.6829
16.4898
10.2214
4.37869
-0.735064
-4.98729
-8.3659
-10.9289
-12.7669
-13.9801
-14.666
-14.913
-14.7993
-14.3927
-13.7515
-12.9258
-11.9592
-10.891
-9.75706
-8.58955
-7.41662
-6.26295
-5.15034
-4.09729
-3.11765
-2.22265
-1.41783
-0.712979
-0.101723
0.392251
0.81928
1.0696
1.38874
1.2396
1.78861
0.425139
3.35892
26.6894
25.2258
23.5864
21.4419
18.97
17.0271
16.6952
18.5439
22.2522
26.7958
30.9098
33.5085
33.9357
32.0388
28.1082
22.7328
16.6187
10.4213
4.6355
-0.439192
-4.67085
-8.04594
-10.6198
-12.4801
-13.7238
-14.4456
-14.7316
-14.6579
-14.2908
-13.6875
-12.8966
-11.9615
-10.9214
-9.81208
-8.66556
-7.51006
-6.37072
-5.26975
-4.22583
-3.25282
-2.36218
-1.55984
-0.855976
-0.244324
0.251511
0.682009
0.937369
1.26196
1.12128
1.68075
0.336869
3.30342
28.2435
26.6157
25.161
23.53
21.3895
18.9133
16.9557
16.5986
18.4142
22.0883
26.6058
30.7099
33.3199
33.7809
31.9385
28.0787
22.7831
16.7492
10.6238
4.89531
-0.140284
-4.35157
-7.72346
-10.3086
-12.1914
-13.4661
-14.2241
-14.5493
-14.5159
-14.1887
-13.6232
-12.8673
-11.9638
-10.9519
-9.86726
-8.7417
-7.60365
-6.4787
-5.38944
-4.35462
-3.38816
-2.50183
-1.70202
-0.999192
-0.387184
0.110677
0.54459
0.80421
1.13443
1.00383
1.57391
0.248864
3.24793
28.1657
26.5444
25.0982
23.4758
21.3397
18.86
16.8881
16.505
18.2859
21.9237
26.4131
30.506
33.127
33.6224
31.8356
28.0481
22.8338
16.8814
10.8289
5.15799
0.161541
-4.02956
-7.39853
-9.99527
-11.9011
-13.2069
-14.0016
-14.3663
-14.3736
-14.0864
-13.5587
-12.8378
-11.966
-10.9825
-9.92259
-8.81796
-7.69738
-6.58691
-5.5094
-4.48362
-3.52364
-2.64161
-1.84437
-1.14267
-0.530176
-0.0303461
0.406195
0.670279
1.00787
0.88748
1.46727
0.160873
3.19245
29.9635
28.0905
26.4755
25.0375
23.4235
21.2925
18.81
16.8241
16.4145
18.1589
21.7582
26.2176
30.2982
32.9301
33.4603
31.7304
28.0165
22.885
17.0152
11.0363
5.42346
0.466171
-3.70491
-7.07125
-9.67995
-11.6091
-12.9465
-13.778
-14.1826
-14.2307
-13.9837
-13.494
-12.8082
-11.9683
-11.0133
-9.97804
-8.89432
-7.79127
-6.69537
-5.62962
-4.61281
-3.65924
-2.78151
-1.98695
-1.28629
-0.673405
-0.172406
0.267003
0.537409
0.882524
0.771322
1.36053
0.0729917
3.13705
29.8863
28.0179
26.4088
24.9787
23.3732
21.2476
18.7631
16.7636
16.3268
18.0332
21.5919
26.0195
30.0868
32.7292
33.2948
31.6228
27.984
22.9367
17.1507
11.2461
5.6916
0.773513
-3.37771
-6.74172
-9.36272
-11.3156
-12.6848
-13.5535
-13.9982
-14.0875
-13.8807
-13.4291
-12.7785
-11.9707
-11.0442
-10.0336
-8.97078
-7.88535
-6.80409
-5.75008
-4.74215
-3.79493
-2.92159
-2.12966
-1.43019
-0.817738
-0.315298
0.128952
0.405847
0.757365
0.655033
1.25384
-0.0146633
3.08176
29.8117
27.9479
26.3443
24.9217
23.3246
21.205
18.7193
16.7066
16.2419
17.9086
21.4247
25.8188
29.8717
32.5244
33.1261
31.5131
27.9506
22.9889
17.2877
11.4581
5.96233
1.08347
-3.04807
-6.41001
-9.04363
-11.0205
-12.4219
-13.328
-13.8133
-13.9439
-13.7774
-13.364
-12.7487
-11.9731
-11.0751
-10.0892
-9.04736
-7.97964
-6.91308
-5.87074
-4.8716
-3.93076
-3.06176
-2.27265
-1.57525
-0.962954
-0.457003
-0.00770828
0.274493
0.632047
0.538775
1.14734
-0.102065
3.02656
29.7397
27.8802
26.2818
24.8665
23.2778
21.1647
18.6785
16.6528
16.1596
17.7851
21.2567
25.6155
29.6532
32.316
32.9541
31.4012
27.9165
23.0416
17.4263
11.6724
6.23556
1.39594
-2.71606
-6.07619
-8.72276
-10.724
-12.1578
-13.1018
-13.6278
-13.7999
-13.6738
-13.2986
-12.7189
-11.9757
-11.1062
-10.1449
-9.12406
-8.07416
-7.02231
-5.99157
-5.00117
-4.06661
-3.20216
-2.41682
-1.72123
-1.10697
-0.59726
-0.144138
0.142982
0.506754
0.422698
1.04105
-0.189228
2.97145
31.6869
29.6703
27.8148
26.2213
24.813
23.2327
21.1265
18.6405
16.6023
16.08
17.6627
21.0879
25.4099
29.4312
32.104
32.7791
31.2873
27.8817
23.0948
17.5664
11.8888
6.51119
1.71084
-2.38176
-5.74034
-8.40017
-10.426
-11.8926
-12.8747
-13.4417
-13.6554
-13.5698
-13.2331
-12.6891
-11.9782
-11.1373
-10.2006
-9.20093
-8.16893
-7.13177
-6.11254
-5.13074
-4.20265
-3.34372
-2.56194
-1.86603
-1.24951
-0.737272
-0.280711
0.0115129
0.381641
0.306812
0.934941
-0.276156
2.91641
31.6154
29.6033
27.7515
26.1627
24.761
23.1892
21.0904
18.6054
16.5548
16.0029
17.5413
20.9182
25.2019
29.206
31.8885
32.6012
31.1715
27.8461
23.1486
17.7079
12.1072
6.78914
2.02811
-2.04524
-5.40255
-8.07592
-10.1267
-11.6263
-12.6469
-13.2551
-13.5106
-13.4655
-13.1674
-12.6593
-11.9809
-11.1684
-10.2564
-9.27798
-8.26394
-7.24142
-6.23353
-5.26043
-4.33977
-3.48622
-2.70589
-2.00938
-1.39182
-0.877409
-0.417207
-0.119758
0.256706
0.191091
0.829015
-0.36284
2.86145
33.6669
31.5464
29.5385
27.6904
26.1059
24.7106
23.1471
21.0562
18.5729
16.5104
15.9282
17.4209
20.7477
24.9915
28.9775
31.6697
32.4204
31.0538
27.81
23.2029
17.8509
12.3277
7.06937
2.34768
-1.70658
-5.06287
-7.75007
-9.82602
-11.3591
-12.4184
-13.068
-13.3652
-13.361
-13.1016
-12.6295
-11.9835
-11.1996
-10.3123
-9.35524
-8.3592
-7.35115
-6.35462
-5.39113
-4.47776
-3.62755
-2.84844
-2.15253
-1.53425
-1.01743
-0.55347
-0.250847
0.131914
0.075536
0.723287
-0.44927
2.80657
33.5957
31.4799
29.476
27.6313
26.0508
24.6615
23.1065
21.024
18.5431
16.4689
15.8558
17.3013
20.5765
24.7789
28.7459
31.4475
32.2368
30.9345
27.7733
23.2577
17.9953
12.55
7.35179
2.66946
-1.36586
-4.72138
-7.42268
-9.52413
-11.091
-12.1892
-12.8804
-13.2195
-13.2561
-13.0358
-12.5998
-11.9862
-11.2307
-10.3684
-9.43275
-8.4546
-7.46102
-6.47663
-5.52258
-4.61456
-3.76751
-2.99085
-2.29583
-1.67653
-1.15716
-0.68953
-0.381802
0.00726516
-0.0398309
0.617771
-0.535442
2.75176
33.527
31.4156
29.4156
27.5742
25.9974
24.6139
23.0673
20.9936
18.5158
16.4302
15.7856
17.1826
20.4044
24.564
28.5112
31.2222
32.0507
30.8134
27.7361
23.313
18.141
12.7743
7.63635
2.99339
-1.02316
-4.37815
-7.0938
-9.22106
-10.8219
-11.9594
-12.6922
-13.0733
-13.1511
-12.9699
-12.57
-11.9888
-11.2619
-10.4246
-9.51043
-8.5502
-7.57175
-6.5993
-5.6528
-4.75001
-3.9074
-3.13345
-2.43897
-1.81849
-1.29665
-0.825448
-0.512628
-0.117216
-0.15499
0.512475
-0.621354
2.69701
33.4607
31.3536
29.3572
27.5188
25.9455
24.5675
23.0293
20.965
18.4909
16.3943
15.7176
17.0648
20.2315
24.347
28.2735
30.9938
31.862
30.6908
27.6983
23.3688
18.288
13.0004
7.92298
3.31939
-0.678552
-4.03322
-6.76349
-8.91687
-10.5521
-11.729
-12.5035
-12.9268
-13.0459
-12.904
-12.5402
-11.9914
-11.2931
-10.4809
-9.58835
-8.64664
-7.68305
-6.72069
-5.78166
-4.88543
-4.04754
-3.27592
-2.58174
-1.96015
-1.43598
-0.961238
-0.643302
-0.241506
-0.26993
0.407399
-0.707004
2.64232
33.3968
31.2937
29.3007
27.4653
25.8952
24.5224
22.9927
20.9382
18.4685
16.361
15.6516
16.9477
20.0579
24.1279
28.0329
30.7624
31.6709
30.5666
27.6601
23.4252
18.4363
13.2283
8.21163
3.64739
-0.332098
-3.68667
-6.43182
-8.61163
-10.2814
-11.4979
-12.3142
-12.7799
-12.9405
-12.838
-12.5104
-11.9939
-11.3244
-10.5375
-9.66707
-8.7436
-7.7931
-6.84072
-5.91049
-5.02113
-4.18759
-3.41803
-2.7242
-2.10159
-1.57515
-1.09688
-0.773802
-0.365589
-0.384645
0.302545
-0.792393
2.5877
33.3352
31.2358
29.2461
27.4134
25.8463
24.4785
22.9572
20.9131
18.4484
16.3302
15.5876
16.8313
19.8834
23.9066
27.7895
30.5282
31.4774
30.4411
27.6215
23.4821
18.5859
13.4579
8.50223
3.97731
0.0161363
-3.33853
-6.09885
-8.3054
-10.01
-11.2661
-12.1244
-12.6327
-12.835
-12.772
-12.4804
-11.9964
-11.3559
-10.5948
-9.7463
-8.83939
-7.9018
-6.96067
-6.0396
-5.15679
-4.32733
-3.55982
-2.86639
-2.24285
-1.71416
-1.23237
-0.90411
-0.489453
-0.499128
0.197913
-0.877516
2.53313
33.2757
31.1798
29.1933
27.3632
25.7988
24.4358
22.923
20.8896
18.4305
16.3019
15.5256
16.7157
19.7082
23.6832
27.5434
30.2913
31.2818
30.3141
27.5825
23.5395
18.7367
13.6892
8.79471
4.3091
0.366096
-2.98889
-5.76465
-7.99822
-9.73784
-11.0337
-11.9341
-12.4852
-12.7295
-12.7058
-12.4504
-11.9989
-11.3879
-10.6525
-9.82451
-8.93395
-8.01038
-7.08085
-6.16868
-5.2922
-4.46677
-3.70132
-3.00834
-2.38391
-1.85302
-1.36768
-1.03421
-0.613086
-0.613378
0.0935034
-0.962371
2.47863
33.2182
31.1257
29.1422
27.3146
25.7527
24.3941
22.8899
20.8677
18.4148
16.2759
15.4654
16.6007
19.5321
23.4578
27.2945
30.0517
31.084
30.1859
27.5431
23.5974
18.8887
13.9222
9.08902
4.64268
0.717723
-2.63779
-5.42928
-7.69013
-9.46489
-10.8006
-11.7434
-12.3375
-12.6238
-12.6396
-12.4203
-12.0017
-11.4202
-10.7095
-9.9017
-9.02838
-8.11911
-7.20096
-6.29754
-5.42736
-4.60594
-3.84254
-3.15005
-2.52479
-1.9917
-1.50281
-1.16409
-0.73648
-0.727391
-0.0106844
-1.04695
2.4242
33.1627
31.0733
29.0927
27.2675
25.7078
24.3536
22.858
20.8473
18.4012
16.2523
15.407
16.4863
19.3552
23.2304
27.0431
29.8095
30.8841
30.0564
27.5034
23.6559
19.042
14.1568
9.3851
4.97801
1.07096
-2.28531
-5.09281
-7.38116
-9.19118
-10.5669
-11.5523
-12.1897
-12.518
-12.5732
-12.3901
-12.0046
-11.4518
-10.7656
-9.97882
-9.1229
-8.2277
-7.32086
-6.42623
-5.56231
-4.74482
-3.98346
-3.29152
-2.66548
-2.13022
-1.63772
-1.29372
-0.859628
-0.841169
-0.114649
-1.13125
2.36984
33.1091
31.0226
29.0449
27.2218
25.6642
24.314
22.8271
20.8284
18.3896
16.2308
15.3503
16.3725
19.1775
23.0011
26.7893
29.5649
30.6823
29.9256
27.4633
23.7149
19.1964
14.393
9.68288
5.31501
1.42576
-1.9315
-4.75529
-7.07131
-8.9167
-10.3327
-11.3609
-12.0417
-12.4121
-12.5064
-12.3597
-12.007
-11.4831
-10.8219
-10.056
-9.21718
-8.33602
-7.44061
-6.55477
-5.69701
-4.88338
-4.1241
-3.43278
-2.80601
-2.26854
-1.77241
-1.4231
-0.982525
-0.95471
-0.218389
-1.21525
2.31556
33.0573
30.9735
28.9985
27.1776
25.6218
24.2755
22.7972
20.8109
18.3799
16.2115
15.2953
16.2592
18.9989
22.7699
26.533
29.318
30.4786
29.7938
27.423
23.7744
19.3521
14.6307
9.98231
5.65366
1.78205
-1.57645
-4.41676
-6.76058
-8.64148
-10.0978
-11.1693
-11.8936
-12.3055
-12.4392
-12.329
-12.0093
-11.5145
-10.8782
-10.1329
-9.31111
-8.44416
-7.56027
-6.68312
-5.83139
-5.0216
-4.26446
-3.57384
-2.94636
-2.40666
-1.90684
-1.55221
-1.10517
-1.06802
-0.3219
-1.29895
2.26135
33.0072
30.926
28.9536
27.1347
25.5806
24.2379
22.7683
20.7948
18.3721
16.1943
15.2418
16.1463
18.8195
22.5368
26.2744
29.0687
30.2731
29.6608
27.3824
23.8345
19.5088
14.8699
10.2833
5.99388
2.13977
-1.22022
-4.07724
-6.449
-8.3655
-9.86266
-10.9773
-11.7446
-12.1982
-12.3719
-12.2984
-12.0119
-11.5462
-10.9344
-10.2094
-9.40481
-8.55223
-7.67981
-6.81123
-5.96544
-5.1595
-4.40457
-3.71471
-3.08651
-2.54454
-2.04101
-1.68105
-1.22757
-1.18109
-0.425175
-1.38234
2.20724
32.9587
30.88
28.9101
27.0931
25.5405
24.2013
22.7404
20.7799
18.3661
16.1791
15.1899
16.0338
18.6392
22.3019
26.0136
28.8173
30.0658
29.5268
27.3417
23.8952
19.6667
15.1105
10.5859
6.33564
2.49884
-0.862853
-3.73676
-6.1365
-8.089
-9.62705
-10.7843
-11.5946
-12.0912
-12.3049
-12.2683
-12.0149
-11.5777
-10.9901
-10.2856
-9.49838
-8.66022
-7.79919
-6.93903
-6.09913
-5.29709
-4.54445
-3.85538
-3.22645
-2.68216
-2.17489
-1.80962
-1.34971
-1.29392
-0.528206
-1.46539
2.15321
32.9119
30.8354
28.868
27.0528
25.5014
24.1655
22.7133
20.7663
18.3618
16.1658
15.1394
15.9217
18.4581
22.0654
25.7506
28.5638
29.8568
29.3918
27.3007
23.9564
19.8257
15.3525
10.89
6.67886
2.85921
-0.504416
-3.39528
-5.82336
-7.81185
-9.38986
-10.5901
-11.4453
-11.9848
-12.2384
-12.2384
-12.0177
-11.609
-11.0455
-10.3616
-9.59185
-8.76809
-7.91834
-7.0665
-6.23246
-5.43438
-4.68411
-3.99586
-3.36615
-2.81951
-2.30848
-1.9379
-1.47161
-1.40651
-0.630984
-1.5481
2.09929
32.8665
30.7922
28.8272
27.0138
25.4634
24.1305
22.6871
20.7539
18.3593
16.1544
15.0902
15.8099
18.2761
21.8271
25.4856
28.3082
29.6462
29.2559
27.2597
24.0182
19.9858
15.5959
11.1956
7.0235
3.22079
-0.144875
-3.05306
-5.50935
-7.53266
-9.15134
-10.397
-11.2972
-11.8789
-12.1721
-12.2086
-12.0205
-11.6399
-11.1006
-10.4374
-9.68522
-8.87583
-8.03721
-7.1936
-6.36544
-5.5714
-4.82356
-4.13611
-3.50559
-2.95655
-2.44177
-2.06591
-1.59326
-1.51886
-0.733501
-1.63045
2.04547
32.8227
30.7503
28.7876
26.9758
25.4264
24.0964
22.6617
20.7427
18.3584
16.1448
15.0423
15.6983
18.0934
21.5873
25.2186
28.0506
29.434
29.1191
27.2186
24.0806
20.1469
15.8405
11.5026
7.36946
3.58359
0.215467
-2.70983
-5.19286
-7.25186
-8.91445
-10.2057
-11.1496
-11.7731
-12.1059
-12.1788
-12.0231
-11.6707
-11.1555
-10.5131
-9.77849
-8.98339
-8.15578
-7.32032
-6.49808
-5.70816
-4.96279
-4.27613
-3.64474
-3.09327
-2.57475
-2.19364
-1.71465
-1.63095
-0.835736
-1.71242
1.99175
32.7803
30.7097
28.7493
26.939
25.3903
24.063
22.637
20.7326
18.3591
16.1369
14.9956
15.587
17.9099
21.3459
24.9496
27.7911
29.2204
28.9815
27.1774
24.1436
20.309
16.0865
11.8109
7.71674
3.94726
0.576906
-2.36375
-4.87447
-6.97313
-8.67992
-10.0151
-11.0021
-11.6673
-12.0398
-12.1491
-12.0256
-11.7011
-11.2102
-10.5887
-9.87166
-9.09072
-8.27398
-7.44664
-6.63039
-5.84468
-5.10179
-4.41588
-3.78358
-3.22966
-2.70741
-2.3211
-1.8358
-1.74277
-0.937677
-1.794
1.93814
32.7392
30.6704
28.7121
26.9033
25.3551
24.0303
22.613
20.7236
18.3614
16.1306
14.9501
15.4759
17.7256
21.1031
24.6787
27.5298
29.0052
28.8432
27.1362
24.2071
20.4721
16.3336
12.1206
8.06499
4.31209
0.941428
-2.01558
-4.55856
-6.69733
-8.44632
-9.82455
-10.8545
-11.5617
-11.9738
-12.1195
-12.028
-11.7313
-11.2646
-10.6641
-9.9647
-9.19776
-8.39178
-7.57258
-6.7624
-5.98096
-5.24056
-4.55534
-3.92207
-3.36571
-2.83977
-2.44829
-1.95668
-1.85431
-1.03931
-1.87516
1.88464
32.6995
30.6322
28.676
26.8686
25.3208
23.9982
22.5898
20.7156
18.3652
16.1259
14.9056
15.3651
17.5407
20.8587
24.406
27.2666
28.7888
28.7041
27.0949
24.2712
20.6361
16.582
12.4313
8.41446
4.68013
1.30812
-1.67025
-4.24604
-6.42265
-8.21286
-9.63401
-10.707
-11.4563
-11.9082
-12.0898
-12.03
-11.7612
-11.319
-10.7395
-10.0576
-9.30447
-8.50917
-7.69814
-6.89412
-6.117
-5.37905
-4.69446
-4.0602
-3.50141
-2.97183
-2.57519
-2.07729
-1.96556
-1.14063
-1.95591
1.83125
32.661
30.5952
28.641
26.835
25.2873
23.9668
22.5672
20.7087
18.3705
16.1228
14.8622
15.2544
17.3551
20.613
24.1315
27.0017
28.5711
28.5645
27.0537
24.3358
20.8011
16.8314
12.7432
8.76713
5.05026
1.67156
-1.32873
-3.93474
-6.14821
-7.97955
-9.44366
-10.5599
-11.3513
-11.8426
-12.06
-12.0318
-11.7909
-11.3732
-10.8149
-10.1502
-9.41079
-8.62613
-7.82335
-7.02558
-6.25279
-5.51724
-4.83323
-4.19796
-3.63677
-3.10358
-2.70181
-2.19761
-2.0765
-1.2416
-2.03621
1.77797
32.6238
30.5593
28.6071
26.8022
25.2546
23.9359
22.5453
20.7029
18.3771
16.121
14.8197
15.144
17.1687
20.3658
23.8552
26.7352
28.3521
28.4243
27.0125
24.4009
20.9668
17.082
13.0582
9.12172
5.41674
2.03085
-0.988437
-3.62372
-5.87412
-7.74661
-9.25364
-10.4131
-11.2465
-11.7772
-12.03
-12.0334
-11.8205
-11.4274
-10.8901
-10.2425
-9.51669
-8.74266
-7.94823
-7.15678
-6.38831
-5.6551
-4.97162
-4.33535
-3.77179
-3.23503
-2.82815
-2.31764
-2.18711
-1.34223
-2.11606
1.72479
32.5877
30.5244
28.5741
26.7705
25.2226
23.9057
22.524
20.698
18.3851
16.1206
14.7783
15.0337
16.9817
20.1173
23.5772
26.467
28.132
28.2835
26.9712
24.4665
21.1335
17.3353
13.3749
9.47237
5.7788
2.38892
-0.64838
-3.31324
-5.60067
-7.51413
-9.064
-10.2667
-11.1421
-11.7118
-11.9998
-12.0347
-11.85
-11.4816
-10.9651
-10.3345
-9.62213
-8.8588
-8.0728
-7.28771
-6.52352
-5.79259
-5.1096
-4.47234
-3.90646
-3.36616
-2.95418
-2.43736
-2.29738
-1.44249
-2.19544
1.67174
32.5527
30.4905
28.5421
26.7396
25.1913
23.8759
22.5034
20.6941
18.3944
16.1216
14.7377
14.9237
16.7941
19.8674
23.2975
26.1974
27.9109
28.1421
26.93
24.5326
21.3023
17.5898
13.6875
9.81846
6.13964
2.74683
-0.308992
-3.0037
-5.32793
-7.28209
-8.87474
-10.1207
-11.0379
-11.6464
-11.9694
-12.0359
-11.8794
-11.5357
-11.0399
-10.4261
-9.72712
-8.97455
-8.19708
-7.41837
-6.6584
-5.92969
-5.24717
-4.60894
-4.04078
-3.49699
-3.0799
-2.55675
-2.40729
-1.54237
-2.27434
1.61879
32.5188
30.4575
28.5111
26.7095
25.1607
23.8467
22.4835
20.6911
18.4049
16.1238
14.6981
14.8138
16.6057
19.6161
23.0163
25.9263
27.6887
28.0003
26.8889
24.5999
21.4718
17.8405
13.9957
10.1634
6.50036
3.10401
0.0292324
-2.69515
-5.0558
-7.05047
-8.68593
-9.97513
-10.934
-11.5808
-11.9388
-12.0369
-11.9087
-11.5896
-11.1144
-10.5172
-9.83165
-9.08994
-8.32107
-7.54872
-6.79291
-6.06634
-5.3843
-4.74515
-4.17477
-3.62749
-3.20529
-2.67579
-2.51684
-1.64187
-2.35275
1.56596
32.4859
30.4255
28.4809
26.6803
25.1306
23.8181
22.4641
20.6891
18.4165
16.1272
14.6593
14.7041
16.4167
19.3635
22.7335
25.6538
27.4656
27.8581
26.8478
24.6673
21.6381
18.0873
14.3028
10.5081
6.86029
3.45989
0.366204