/*--------------------------------*- C++ -*----------------------------------*\
  =========                 |
  \\      /  F ield         | OpenFOAM: The Open Source CFD Toolbox
   \\    /   O peration     | Website:  https://openfoam.org
    \\  /    A nd           | Version:  7
     \\/     M anipulation  |
\*---------------------------------------------------------------------------*/
FoamFile
{
    version     2.0;
    format      ascii;
    class       surfaceScalarField;
    location    "200";
    object      phi;
}
// * * * * * * * * * * * * * * * * * * * * * * * * * * * * * * * * * * * * * //

dimensions      [0 3 -1 0 0 0 0];

internalField   nonuniform List<scalar> 
45693
(
-0.00163728
0.0629174
-0.00163217
0.0614494
-0.00157168
0.0629136
-0.00162899
0.059965
-0.00156677
0.0614445
-0.0015088
0.06291
0.0584106
-0.0015637
0.0599619
-0.00150409
0.0614398
-0.0014483
0.0629066
-0.00156058
0.0584075
-0.00150113
0.059959
-0.00144379
0.0614353
-0.00139029
0.0629033
-0.00155781
0.056893
-0.00149813
0.0584045
-0.00144094
0.0599561
-0.00138597
0.061431
-0.00133466
0.0629002
-0.00155518
0.0553915
-0.00149544
0.0568903
-0.00143804
0.0584016
-0.00138321
0.0599534
-0.00133051
0.0614268
-0.00128121
0.0628972
-0.00155276
0.0539486
-0.00149289
0.055389
-0.00143544
0.0568877
-0.00138042
0.0583988
-0.00132786
0.0599507
-0.00127724
0.0614229
-0.0012299
0.0628944
-0.00155053
0.0525373
-0.00149053
0.0539462
-0.00143296
0.0553865
-0.0013779
0.0568852
-0.00132517
0.0583961
-0.00127469
0.0599482
-0.0012261
0.0614191
-0.00118062
0.0628917
-0.00154852
0.0511486
-0.00148836
0.0525352
-0.00143067
0.0539439
-0.0013755
0.0553841
-0.00132273
0.0568828
-0.00127209
0.0583935
-0.00122364
0.0599457
-0.00117698
0.0614154
-0.00113338
0.0628892
0.0498077
-0.0014864
0.0511466
-0.00142855
0.052533
-0.00137328
0.0539417
-0.00132041
0.0553818
-0.00126973
0.0568804
-0.00122113
0.058391
-0.00117461
0.0599433
-0.0011299
0.0614119
-0.00108802
0.0628868
-0.00148466
0.0498059
-0.00142663
0.0511447
-0.00137121
0.052531
-0.00131825
0.0539395
-0.00126748
0.0553795
-0.00121886
0.0568782
-0.0011722
0.0583886
-0.00112761
0.059941
-0.00108469
0.0614086
-0.00104445
0.0628845
-0.00148318
0.0484878
-0.00142493
0.0498042
-0.00136933
0.0511428
-0.00131623
0.052529
-0.00126538
0.0539374
-0.00121667
0.0553773
-0.00117
0.056876
-0.00112529
0.0583863
-0.00108249
0.0599388
-0.00104127
0.0614054
-0.00100267
0.0628823
-0.00148197
0.0472043
-0.00142346
0.0484863
-0.00136766
0.0498026
-0.0013144
0.051141
-0.00126342
0.052527
-0.00121464
0.0539354
-0.00116789
0.0553752
-0.00112317
0.0568739
-0.00108025
0.058384
-0.00103915
0.0599367
-0.000999624
0.0614024
-0.000962528
0.0628803
-0.00148108
0.0459547
-0.00142226
0.0472031
-0.00136621
0.0484849
-0.00131275
0.0498009
-0.00126163
0.0511392
-0.00121273
0.0525251
-0.00116591
0.0539334
-0.00112112
0.0553732
-0.0010782
0.0568718
-0.001037
0.0583819
-0.000997589
0.0599347
-0.000959616
0.0613995
-0.000923973
0.0628783
0.0447245
-0.00142135
0.0459538
-0.00136501
0.0472019
-0.00131132
0.0484834
-0.00126001
0.0497993
-0.00121098
0.0511374
-0.00116405
0.0525232
-0.0011192
0.0539315
-0.00107622
0.0553712
-0.00103502
0.0568698
-0.000995515
0.0583798
-0.000957658
0.0599327
-0.000921191
0.0613967
-0.000887008
0.0628765
-0.00142077
0.044724
-0.00136409
0.0459529
-0.00131013
0.0472007
-0.0012586
0.048482
-0.00120939
0.0497977
-0.00116234
0.0511357
-0.00111739
0.0525214
-0.00107436
0.0539296
-0.0010331
0.0553693
-0.000993604
0.0568679
-0.000955662
0.0583778
-0.000919308
0.0599309
-0.000884351
0.061394
-0.000851533
0.0628747
-0.00142056
0.043533
-0.00136349
0.0447234
-0.00130921
0.0459519
-0.00125742
0.0471996
-0.001208
0.0484806
-0.00116079
0.0497962
-0.00111572
0.0511341
-0.0010726
0.0525197
-0.00103129
0.0539278
-0.000991752
0.0553674
-0.000953818
0.0568661
-0.000917388
0.0583759
-0.00088254
0.059929
-0.000848995
0.0613915
-0.000817449
0.0628731
0.0423435
-0.00136323
0.0435327
-0.00130858
0.0447227
-0.00125649
0.045951
-0.00120683
0.0471984
-0.00115942
0.0484793
-0.0011142
0.0497946
-0.00107098
0.0511324
-0.00102959
0.052518
-0.000990001
0.0539261
-0.000952027
0.0553656
-0.000915608
0.0568643
-0.000880694
0.0583741
-0.000847255
0.0599273
-0.000815026
0.0613891
-0.000784705
0.0628715
-0.00136335
0.0423437
-0.00130828
0.0435324
-0.00125584
0.0447221
-0.00120589
0.0459501
-0.00115825
0.0471972
-0.00111286
0.0484779
-0.00106949
0.0497932
-0.001028
0.0511308
-0.000988341
0.0525163
-0.00095033
0.0539244
-0.000913878
0.0553639
-0.000878977
0.0568626
-0.000845479
0.0583723
-0.000813353
0.0599256
-0.000782393
0.0613867
-0.000753353
0.06287
-0.00136389
0.0411801
-0.00130834
0.0423437
-0.0012555
0.0435321
-0.00120522
0.0447214
-0.00115732
0.0459491
-0.0011117
0.0471961
-0.00106816
0.0484766
-0.00102655
0.0497917
-0.000986794
0.0511293
-0.000948718
0.0525147
-0.000912234
0.0539227
-0.000877305
0.0553622
-0.000843824
0.0568609
-0.000811646
0.0583706
-0.000780786
0.059924
-0.000751147
0.0613845
-0.000723192
0.0628686
-0.00136489
0.0400249
-0.00130881
0.0411806
-0.00125551
0.0423437
-0.00120486
0.0435317
-0.00115663
0.0447207
-0.00111076
0.0459482
-0.00106702
0.0471949
-0.00102524
0.0484753
-0.000985372
0.0497903
-0.000947211
0.0511278
-0.000910668
0.0525131
-0.000875712
0.0539211
-0.000842208
0.0553606
-0.00081005
0.0568593
-0.000779146
0.0583689
-0.000749603
0.0599225
-0.000721089
0.0613824
-0.000694274
0.0628673
-0.00136639
0.0388807
-0.00130971
0.0400259
-0.00125591
0.0411809
-0.00120482
0.0423437
-0.00115624
0.0435313
-0.00111007
0.04472
-0.00106609
0.0459473
-0.00102411
0.0471938
-0.000984094
0.048474
-0.000945821
0.0497889
-0.000909201
0.0511263
-0.000874192
0.0525116
-0.000840666
0.0539196
-0.00080849
0.0553591
-0.000777607
0.0568578
-0.000748027
0.0583674
-0.000719606
0.059921
-0.000692269
0.0613804
-0.000666449
0.0628661
0.037739
-0.0013111
0.0388821
-0.00125672
0.0400267
-0.00120515
0.0411813
-0.00115615
0.0423436
-0.00110964
0.0435309
-0.00106538
0.0447193
-0.00102318
0.0459463
-0.000982979
0.0471927
-0.000944567
0.0484728
-0.000907843
0.0497875
-0.000872764
0.0511249
-0.000839192
0.0525101
-0.000806998
0.0539181
-0.000776101
0.0553576
-0.000746545
0.0568563
-0.000718092
0.0583658
-0.000690845
0.0599196
-0.000664538
0.0613785
-0.000639867
0.0628649
-0.00131301
0.0377409
-0.001258
0.0388834
-0.00120588
0.0400274
-0.00115642
0.0411815
-0.00110952
0.0423435
-0.00106493
0.0435305
-0.00102246
0.0447186
-0.000982048
0.0459454
-0.000943467
0.0471916
-0.000906614
0.0484715
-0.000871439
0.0497862
-0.000837802
0.0511235
-0.000805567
0.0525087
-0.000774657
0.0539167
-0.000745091
0.0553561
-0.000716664
0.0568549
-0.000689392
0.0583644
-0.000663171
0.0599182
-0.000638046
0.0613767
-0.000614178
0.0628638
-0.00131548
0.0365991
-0.00125978
0.0377427
-0.00120705
0.0388845
-0.00115707
0.0400281
-0.00110973
0.0411818
-0.00106476
0.0423433
-0.00102199
0.04353
-0.000981324
0.0447179
-0.000942541
0.0459445
-0.000905529
0.0471905
-0.000870234
0.0484703
-0.000836509
0.0497849
-0.000804216
0.0511221
-0.00077327
0.0525073
-0.000743694
0.0539153
-0.000715262
0.0553547
-0.000688017
0.0568535
-0.000661776
0.058363
-0.000636734
0.0599169
-0.000612444
0.061375
-0.000589684
0.0628627
0.0354548
-0.0012621
0.0366014
-0.00120871
0.0377443
-0.00115815
0.0388856
-0.0011103
0.0400286
-0.00106492
0.0411819
-0.00102179
0.0423431
-0.000980833
0.0435295
-0.000941812
0.0447172
-0.000904609
0.0459435
-0.000869165
0.0471894
-0.000835328
0.0484692
-0.000802955
0.0497837
-0.000771957
0.0511208
-0.00074235
0.052506
-0.000713911
0.0539139
-0.000686664
0.0553533
-0.000660452
0.0568522
-0.000635395
0.0583617
-0.000611186
0.0599156
-0.000588033
0.0613733
-0.000566033
0.0628617
-0.00126498
0.0354577
-0.00121088
0.0366036
-0.00115969
0.0377459
-0.00111129
0.0388866
-0.00106543
0.0400291
-0.0010219
0.041182
-0.000980601
0.0423429
-0.000941303
0.043529
-0.000903876
0.0447164
-0.000868253
0.0459426
-0.000834277
0.0471884
-0.000801799
0.048468
-0.000770727
0.0497824
-0.000741073
0.0511196
-0.000712608
0.0525047
-0.000685358
0.0539126
-0.000659148
0.055352
-0.000634121
0.0568509
-0.000609901
0.0583604
-0.000586826
0.0599144
-0.000564463
0.0613717
-0.000543428
0.0628608
-0.00126844
0.0343032
-0.0012136
0.0354604
-0.00116172
0.0366056
-0.00111272
0.0377473
-0.00106632
0.0388875
-0.00102234
0.0400296
-0.000980659
0.0411821
-0.000941042
0.0423426
-0.000903353
0.0435285
-0.000867518
0.0447157
-0.000833373
0.0459417
-0.000800765
0.0471873
-0.000769596
0.0484669
-0.000739875
0.0497812
-0.000711368
0.0511183
-0.000684096
0.0525034
-0.000657886
0.0539113
-0.000632864
0.0553508
-0.000608675
0.0568497
-0.000585594
0.0583591
-0.000563305
0.0599133
-0.000541934
0.0613703
-0.000521718
0.0628599
0.0331365
-0.00121688
0.0343065
-0.00116428
0.035463
-0.00111462
0.0366075
-0.00106764
0.0377486
-0.00102315
0.0388883
-0.000981039
0.04003
-0.000941057
0.0411821
-0.000903065
0.0423424
-0.000866981
0.0435279
-0.000832637
0.044715
-0.00079987
0.0459408
-0.00076858
0.0471863
-0.000738769
0.0484658
-0.000710201
0.0497801
-0.000682892
0.0511171
-0.000656664
0.0525022
-0.000631645
0.0539101
-0.000607464
0.0553496
-0.000584415
0.0568485
-0.000562124
0.058358
-0.000540824
0.0599122
-0.000520297
0.0613688
-0.000500803
0.0628591
-0.00122073
0.0331404
-0.00116739
0.0343096
-0.00111703
0.0354654
-0.00106942
0.0366093
-0.00102437
0.0377498
-0.000981775
0.038889
-0.000941379
0.0400303
-0.00090304
0.0411821
-0.000866669
0.042342
-0.000832089
0.0435274
-0.000799134
0.0447142
-0.000767696
0.0459399
-0.000737771
0.0471853
-0.00070912
0.0484647
-0.000681755
0.0497789
-0.000655495
0.0511159
-0.000630461
0.052501
-0.000606287
0.0539089
-0.000583247
0.0553484
-0.00056099
0.0568474
-0.000539691
0.0583568
-0.000519233
0.0599111
-0.000499453
0.0613675
-0.000480784
0.0628584
-0.00122511
0.0319572
-0.00117105
0.033144
-0.00111997
0.0343125
-0.00107169
0.0354677
-0.00102603
0.036611
-0.0009829
0.037751
-0.000942041
0.0388897
-0.000903308
0.0400306
-0.000866607
0.041182
-0.000831755
0.0423417
-0.000798578
0.0435268
-0.000766961
0.0447135
-0.000736897
0.0459391
-0.000708141
0.0471843
-0.000680699
0.0484636
-0.000654389
0.0497778
-0.000629327
0.0511148
-0.000605141
0.0524999
-0.00058211
0.0539078
-0.000559865
0.0553473
-0.000538601
0.0568463
-0.000518148
0.0583557
-0.000498433
0.0599101
-0.000479501
0.0613662
-0.000461561
0.0628576
0.0307585
-0.00117524
0.0319614
-0.00112345
0.0331475
-0.00107448
0.0343153
-0.00102817
0.0354698
-0.000984449
0.0366125
-0.000943076
0.037752
-0.0009039
0.0388903
-0.000866824
0.0400308
-0.000831658
0.0411819
-0.000798223
0.0423414
-0.000766397
0.0435263
-0.000736166
0.0447128
-0.000707279
0.0459382
-0.000679739
0.0471834
-0.000653358
0.0484626
-0.00062825
0.0497767
-0.000604041
0.0511137
-0.000581002
0.0524988
-0.000558768
0.0539067
-0.000537519
0.0553462
-0.0005171
0.0568452
-0.000497393
0.0583547
-0.000478524
0.0599091
-0.000460342
0.061365
-0.000443084
0.0628569
-0.00117991
0.0307632
-0.00112745
0.0319654
-0.00107778
0.0331508
-0.0010308
0.0343179
-0.000986453
0.0354718
-0.000944518
0.036614
-0.00090485
0.0377529
-0.000867351
0.0388908
-0.000831828
0.0400309
-0.000798096
0.0411818
-0.000766025
0.042341
-0.000735595
0.0435257
-0.000706551
0.044712
-0.000678889
0.0459374
-0.000652417
0.0471824
-0.000627245
0.0484616
-0.000602995
0.0497757
-0.000579936
0.0511126
-0.000557697
0.0524977
-0.00053646
0.0539057
-0.000516058
0.0553452
-0.000496387
0.0568442
-0.000477528
0.0583537
-0.000459407
0.0599082
-0.000441927
0.0613638
-0.000425404
0.0628563
-0.00118497
0.0295427
-0.00113192
0.0307677
-0.00108159
0.0319692
-0.00103393
0.0331539
-0.000988934
0.0343204
-0.000946398
0.0354737
-0.000906191
0.0366153
-0.000868221
0.0377538
-0.000832295
0.0388913
-0.000798222
0.0400311
-0.000765868
0.0411816
-0.000735207
0.0423406
-0.000705976
0.0435251
-0.000678166
0.0447113
-0.00065158
0.0459365
-0.000626323
0.0471815
-0.000602014
0.0484606
-0.000578918
0.0497747
-0.000556663
0.0511116
-0.000535424
0.0524966
-0.000515037
0.0539046
-0.000495384
0.0553441
-0.000476562
0.0568432
-0.000458453
0.0583528
-0.000441032
0.0599073
-0.000424306
0.0613627
-0.00040832
0.0628557
0.028307
-0.00113678
0.0295476
-0.00108587
0.0307719
-0.00103756
0.0319729
-0.000991905
0.0331569
-0.000948738
0.0343228
-0.000907951
0.0354755
-0.000869465
0.0366165
-0.000833088
0.0377546
-0.000798631
0.0388917
-0.000765954
0.0400311
-0.000735025
0.0411814
-0.000705574
0.0423402
-0.000677588
0.0435245
-0.000650863
0.0447106
-0.000625499
0.0459357
-0.000601112
0.0471806
-0.000577962
0.0484597
-0.000555675
0.0497737
-0.000534422
0.0511106
-0.000514035
0.0524956
-0.000494399
0.0539036
-0.000475597
0.0553432
-0.000457525
0.0568423
-0.000440119
0.0583518
-0.000423449
0.0599064
-0.000407279
0.0613617
-0.000392035
0.0628552
-0.00114191
0.0283121
-0.00109054
0.0295523
-0.00104165
0.030776
-0.000995361
0.0319763
-0.000951554
0.0331597
-0.000910157
0.034325
-0.000871113
0.0354771
-0.00083424
0.0366177
-0.000799352
0.0377553
-0.000766309
0.0388921
-0.000735072
0.0400312
-0.000705367
0.0411812
-0.000677174
0.0423398
-0.000650282
0.043524
-0.000624788
0.0447099
-0.000600301
0.0459349
-0.000577079
0.0471797
-0.000554743
0.0484587
-0.000533462
0.0497727
-0.000513065
0.0511096
-0.000493432
0.0524947
-0.000474647
0.0539027
-0.000456597
0.0553423
-0.000439228
0.0568414
-0.000422576
0.058351
-0.000406459
0.0599056
-0.000391047
0.0613607
-0.000376346
0.0628546
-0.00114711
0.0270587
-0.00109549
0.0283171
-0.00104614
0.0295568
-0.000999273
0.0307799
-0.000954842
0.0319796
-0.000912823
0.0331624
-0.00087319
0.0343271
-0.000835781
0.0354786
-0.000800418
0.0366188
-0.000766963
0.037756
-0.000735377
0.0388924
-0.00070538
0.0400312
-0.000676945
0.041181
-0.000649858
0.0423394
-0.000624207
0.0435234
-0.000599598
0.0447092
-0.000576283
0.0459341
-0.00055388
0.0471789
-0.000532555
0.0484578
-0.000512133
0.0497718
-0.000492492
0.0511087
-0.000473713
0.0524937
-0.000455682
0.0539018
-0.000438336
0.0553414
-0.00042172
0.0568406
-0.000405623
0.0583501
-0.000390263
0.0599048
-0.00037541
0.0613598
-0.000361315
0.0628541
-0.00115213
0.0257969
-0.00110053
0.0270637
-0.00105091
0.0283218
-0.00100358
0.0295611
-0.000958578
0.0307837
-0.00091595
0.0319827
-0.000875713
0.0331649
-0.000837735
0.034329
-0.000801856
0.0354801
-0.000767946
0.0366197
-0.000735967
0.0377566
-0.000705637
0.0388926
-0.000676925
0.0400312
-0.000649609
0.0411808
-0.000623773
0.0423389
-0.000599017
0.0435228
-0.000575587
0.0447085
-0.000553098
0.0459333
-0.000531711
0.047178
-0.000511249
0.0484569
-0.000491588
0.0497709
-0.000472804
0.0511078
-0.00045478
0.0524928
-0.000437454
0.0539009
-0.000420863
0.0553405
-0.000404803
0.0568398
-0.000389464
0.0583493
-0.00037466
0.0599041
-0.000360429
0.0613589
-0.000346847
0.0628537
-0.00115661
0.0245362
-0.00110543
0.0258018
-0.0010558
0.0270686
-0.00100818
0.0283264
-0.000962707
0.0295652
-0.000919517
0.0307873
-0.000878684
0.0319857
-0.00084012
0.0331673
-0.000803693
0.0343308
-0.000769287
0.0354814
-0.000736872
0.0366206
-0.000706168
0.0377571
-0.000677139
0.0388928
-0.000649559
0.0400311
-0.000623507
0.0411805
-0.000598576
0.0423385
-0.000575007
0.0435222
-0.000552411
0.0447078
-0.000530944
0.0459325
-0.000510425
0.0471772
-0.000490728
0.0484561
-0.000471926
0.04977
-0.0004539
0.0511069
-0.000436584
0.052492
-0.000420014
0.0539001
-0.000403979
0.0553397
-0.000388677
0.056839
-0.000373896
0.0583486
-0.000359712
0.0599033
-0.000346007
0.061358
-0.000332976
0.0628533
-0.00116016
0.0232898
-0.00110984
0.0245406
-0.00106057
0.0258065
-0.00101291
0.0270734
-0.000967134
0.0283309
-0.000923473
0.0295692
-0.000882086
0.0307907
-0.000842942
0.0319885
-0.000805946
0.0331695
-0.000771011
0.0343326
-0.000738121
0.0354827
-0.000707
0.0366215
-0.000677613
0.0377576
-0.000649732
0.038893
-0.000623429
0.0400311
-0.000598294
0.0411802
-0.00057456
0.042338
-0.000551833
0.0435216
-0.000530266
0.0447071
-0.000509673
0.0459318
-0.000489924
0.0471764
-0.00047109
0.0484552
-0.000453049
0.0497692
-0.000435733
0.0511061
-0.000419174
0.0524911
-0.000403162
0.0538992
-0.000387885
0.0553389
-0.000373142
0.0568382
-0.000358981
0.0583478
-0.000345322
0.0599027
-0.000332182
0.0613572
-0.000319659
0.0628529
-0.00116229
0.0220801
-0.00111339
0.0232933
-0.00106491
0.0245449
-0.00101755
0.0258112
-0.000971712
0.0270779
-0.000927733
0.0283351
-0.000885875
0.0295729
-0.000846185
0.0307939
-0.000808623
0.0319912
-0.000773139
0.0331717
-0.000739739
0.0343342
-0.00070816
0.0354838
-0.000678375
0.0366222
-0.000650153
0.037758
-0.000623564
0.0388931
-0.000598191
0.040031
-0.000574263
0.0411799
-0.000551381
0.0423376
-0.000529691
0.0435211
-0.000509004
0.0447064
-0.000489186
0.0459311
-0.000470305
0.0471756
-0.000452236
0.0484544
-0.000434907
0.0497683
-0.000418351
0.0511052
-0.000402352
0.0524903
-0.000387099
0.0538985
-0.000372382
0.0553381
-0.000358258
0.0568375
-0.000344624
0.0583471
-0.000331527
0.059902
-0.000318908
0.0613565
-0.000306876
0.0628525
0.020932
-0.0011156
0.0220823
-0.00106844
0.0232968
-0.00102182
0.0245492
-0.000976234
0.0258157
-0.000932159
0.0270824
-0.000889971
0.0283392
-0.000849812
0.0295766
-0.000811713
0.030797
-0.000775677
0.0319937
-0.000741745
0.0331737
-0.000709676
0.0343357
-0.000679453
0.0354849
-0.00065085
0.0366229
-0.000623936
0.0377584
-0.00059829
0.0388932
-0.000574137
0.0400308
-0.000551072
0.0411796
-0.000529235
0.0423371
-0.000508433
0.0435205
-0.000488528
0.0447058
-0.000469583
0.0459303
-0.000451471
0.0471748
-0.000434117
0.0484536
-0.000417551
0.0497675
-0.000401556
0.0511044
-0.000386317
0.0524895
-0.000371625
0.0538977
-0.000357528
0.0553374
-0.000343932
0.0568368
-0.000330861
0.0583465
-0.000318283
0.0599014
-0.000306165
0.0613558
-0.000294601
0.0628522
-0.00111603
0.0209324
-0.00107072
0.0220846
-0.00102534
0.0233004
-0.00098042
0.0245534
-0.000936556
0.0258201
-0.000894247
0.0270866
-0.000853748
0.0283432
-0.000815182
0.02958
-0.000778619
0.0307999
-0.000744151
0.0319961
-0.000711567
0.0331756
-0.000680872
0.0343371
-0.000651849
0.0354859
-0.00062457
0.0366236
-0.000598615
0.0377587
-0.000574204
0.0388933
-0.000550925
0.0400307
-0.000528915
0.0411793
-0.000507975
0.0423367
-0.000487962
0.0435199
-0.000468935
0.0447051
-0.000450764
0.0459296
-0.000433371
0.0471741
-0.000416783
0.0484529
-0.000400782
0.0497668
-0.000385549
0.0511037
-0.000370871
0.0524888
-0.0003568
0.053897
-0.000343231
0.0553367
-0.000330197
0.0568361
-0.000317646
0.0583458
-0.000305568
0.0599008
-0.000293929
0.0613551
-0.000282819
0.0628518
-0.00111433
0.0198753
-0.00107131
0.020933
-0.00102768
0.022087
-0.000983916
0.0233038
-0.000940658
0.0245575
-0.000898519
0.0258244
-0.000857876
0.0270908
-0.000818962
0.0283469
-0.000781934
0.0295834
-0.00074695
0.0308027
-0.000713845
0.0319984
-0.000682652
0.0331773
-0.000653175
0.0343384
-0.000625495
0.0354868
-0.000599192
0.0366241
-0.000574485
0.037759
-0.000550961
0.0388933
-0.000528749
0.0400305
-0.000507645
0.0411789
-0.000487502
0.0423362
-0.000468374
0.0435194
-0.000450127
0.0447045
-0.00043268
0.0459289
-0.000416056
0.0471734
-0.000400036
0.0484521
-0.000384798
0.049766
-0.000370129
0.0511029
-0.000356074
0.0524881
-0.000342531
0.0538963
-0.000329526
0.055336
-0.000317011
0.0568355
-0.000304961
0.0583452
-0.00029336
0.0599002
-0.000282186
0.0613545
-0.000271512
0.0628515
0.0189451
-0.00106983
0.0198738
-0.0010284
0.0209337
-0.000986306
0.0220893
-0.000944127
0.0233073
-0.000902536
0.0245615
-0.000862024
0.0258285
-0.000822944
0.0270947
-0.000785561
0.0283506
-0.000750116
0.0295865
-0.000716506
0.0308054
-0.000684807
0.0320006
-0.00065485
0.033179
-0.000626733
0.0343397
-0.000600045
0.0354877
-0.000575007
0.0366247
-0.000551202
0.0377592
-0.000528756
0.0388933
-0.000507461
0.0400303
-0.000487163
0.0411786
-0.000467913
0.0423357
-0.000449571
0.0435188
-0.000432054
0.0447039
-0.00041538
0.0459283
-0.000399329
0.0471727
-0.000384075
0.0484514
-0.000369403
0.0497653
-0.000355357
0.0511022
-0.000341832
0.0524874
-0.000328853
0.0538956
-0.000316367
0.0553354
-0.000304353
0.0568349
-0.00029278
0.0583446
-0.000281642
0.0598997
-0.000270914
0.0613539
-0.000260649
0.0628513
-0.00106619
0.0189414
-0.00102715
0.0198726
-0.000987158
0.0209345
-0.00094656
0.0220918
-0.000905973
0.0233108
-0.000865953
0.0245654
-0.000826967
0.0258325
-0.0007894
0.0270986
-0.000753596
0.028354
-0.000719529
0.0295895
-0.000687336
0.0308079
-0.000656887
0.0320026
-0.000628308
0.0331806
-0.0006012
0.0343408
-0.000575793
0.0354885
-0.000551671
0.0366251
-0.000528959
0.0377594
-0.000507443
0.0388933
-0.000486964
0.0400301
-0.000467568
0.0411783
-0.000449111
0.0423353
-0.000431505
0.0435183
-0.000414766
0.0447033
-0.000398668
0.0459276
-0.000383386
0.047172
-0.0003687
0.0484507
-0.000354654
0.0497646
-0.00034114
0.0511015
-0.000328179
0.0524867
-0.00031572
0.0538949
-0.000303735
0.0553348
-0.000292198
0.0568343
-0.000281089
0.0583441
-0.000270395
0.0598991
-0.000260084
0.0613533
-0.000250225
0.062851
-0.00106059
0.01816
-0.00102377
0.018938
-0.000986111
0.0198715
-0.000947533
0.0209355
-0.000908442
0.0220942
-0.000869353
0.0233142
-0.000830807
0.0245693
-0.0007933
0.0258364
-0.000757294
0.0271023
-0.000722863
0.0283574
-0.000690219
0.0295924
-0.000659288
0.0308103
-0.000630233
0.0320045
-0.000602678
0.0331821
-0.000576869
0.0343419
-0.000552395
0.0354892
-0.000529381
0.0366256
-0.00050761
0.0377596
-0.000486921
0.0388933
-0.000467354
0.0400299
-0.000448759
0.0411779
-0.000431045
0.0423348
-0.000414223
0.0435177
-0.000398065
0.0447027
-0.000382741
0.045927
-0.00036803
0.0471713
-0.000353973
0.04845
-0.00034046
0.0497639
-0.000327511
0.0511009
-0.000315071
0.052486
-0.000303114
0.0538943
-0.000291606
0.0553342
-0.000280532
0.0568338
-0.000269868
0.0583436
-0.00025959
0.0598987
-0.000249693
0.0613528
-0.000240215
0.0628508
-0.00105367
0.0175438
-0.00101847
0.0181548
-0.000983001
0.0189349
-0.000946682
0.0198707
-0.000909526
0.0209366
-0.00087185
0.0220967
-0.000834166
0.0233175
-0.000797047
0.024573
-0.000761071
0.0258402
-0.000726424
0.0271058
-0.000693413
0.0283606
-0.000662037
0.0295952
-0.000632511
0.0308126
-0.000604495
0.0320064
-0.000578256
0.0331835
-0.000553395
0.0343429
-0.000530044
0.0354899
-0.000507986
0.0366259
-0.000487056
0.0377597
-0.000467289
0.0388932
-0.000448533
0.0400297
-0.000430689
0.0411776
-0.000413766
0.0423344
-0.00039753
0.0435172
-0.000382149
0.0447021
-0.000367401
0.0459263
-0.000353321
0.0471707
-0.000339799
0.0484494
-0.000326853
0.0497632
-0.000314427
0.0511002
-0.00030249
0.0524854
-0.000291009
0.0538937
-0.000279965
0.0553336
-0.000269336
0.0568332
-0.000259087
0.0583431
-0.000249221
0.0598982
-0.000239714
0.0613523
-0.00023061
0.0628506
-0.00104639
0.0170869
-0.00101184
0.0175371
-0.000977995
0.0181497
-0.000943828
0.0189321
-0.000908861
0.01987
-0.000873036
0.0209378
-0.000836684
0.0220993
-0.000800361
0.0233208
-0.000764726
0.0245767
-0.000730079
0.0258439
-0.000696839
0.0271093
-0.000665094
0.0283636
-0.00063513
0.0295978
-0.000606655
0.0308148
-0.00057997
0.0320081
-0.000554695
0.0331848
-0.000530974
0.0343438
-0.000508594
0.0354905
-0.000487389
0.0366263
-0.000467393
0.0377598
-0.000448448
0.0388931
-0.000430451
0.0400295
-0.000413406
0.0411772
-0.000397075
0.0423339
-0.000381622
0.0435167
-0.000366821
0.0447015
-0.000352707
0.0459257
-0.000339166
0.04717
-0.000326213
0.0484487
-0.000313791
0.0497626
-0.000301868
0.0510996
-0.000290409
0.0524848
-0.000279392
0.0538932
-0.000268792
0.0553331
-0.000258579
0.0568327
-0.000248742
0.0583426
-0.000239264
0.0598977
-0.000230138
0.0613518
-0.000221384
0.0628504
-0.00103982
0.0167575
-0.0010048
0.0170798
-0.000971647
0.0175308
-0.000939106
0.018145
-0.000906252
0.0189295
-0.000872547
0.0198695
-0.000837963
0.0209391
-0.000802893
0.0221018
-0.000767991
0.0233241
-0.00073364
0.0245802
-0.000700374
0.0258474
-0.000668387
0.0271126
-0.000638055
0.0283665
-0.000609148
0.0296003
-0.000582017
0.0308168
-0.00055631
0.0320097
-0.00053219
0.033186
-0.000509456
0.0343447
-0.000487943
0.035491
-0.000467687
0.0366266
-0.000448524
0.0377599
-0.000430348
0.038893
-0.000413158
0.0400292
-0.000396713
0.0411768
-0.00038117
0.0423335
-0.000366302
0.0435161
-0.00035214
0.0447009
-0.000338567
0.0459251
-0.000325598
0.0471694
-0.000313171
0.0484481
-0.000301254
0.049762
-0.00028981
0.051099
-0.000278815
0.0524842
-0.000268243
0.0538926
-0.000258058
0.0553325
-0.000248256
0.0568322
-0.000238808
0.0583421
-0.00022971
0.0598973
-0.00022094
0.0613514
-0.000212533
0.0628502
-0.00103491
0.0165074
-0.000998387
0.0167511
-0.000964836
0.017073
-0.000933035
0.0175247
-0.000901808
0.0181406
-0.000870174
0.0189271
-0.00083764
0.0198692
-0.000804257
0.0209404
-0.000770532
0.0221043
-0.000736852
0.0233273
-0.00070384
0.0245837
-0.000671802
0.0258508
-0.000641219
0.0271157
-0.000611944
0.0283693
-0.000584389
0.0296027
-0.000558247
0.0308187
-0.000533711
0.0320112
-0.000510593
0.0331871
-0.000488741
0.0343455
-0.000468191
0.0354915
-0.000448779
0.0366268
-0.000430397
0.03776
-0.000413038
0.0388929
-0.000396456
0.040029
-0.000380805
0.0411765
-0.000365854
0.042333
-0.000351629
0.0435156
-0.000338012
0.0447004
-0.000325014
0.0459245
-0.000312573
0.0471688
-0.000300653
0.0484475
-0.000289216
0.0497614
-0.000278237
0.0510984
-0.000267687
0.0524837
-0.000257531
0.0538921
-0.000247758
0.055332
-0.000238344
0.0568318
-0.000229276
0.0583417
-0.000220532
0.0598969
-0.000212115
0.0613509
-0.000204026
0.0628501
-0.00103227
0.0162769
-0.000993546
0.0165026
-0.000958582
0.0167449
-0.000926455
0.0170664
-0.000896007
0.0175189
-0.000865999
0.0181364
-0.000835494
0.0189249
-0.00080409
0.019869
-0.000771972
0.0209419
-0.000739395
0.0221069
-0.000706997
0.0233305
-0.000675173
0.0245871
-0.000644517
0.0258541
-0.000614981
0.0271188
-0.00058706
0.028372
-0.000560503
0.0296049
-0.000535544
0.0308206
-0.000512024
0.0320126
-0.000489804
0.0331882
-0.000468928
0.0343462
-0.000449237
0.035492
-0.000430618
0.036627
-0.000413062
0.03776
-0.000396321
0.0388928
-0.000380541
0.0400287
-0.000365488
0.0411761
-0.000351185
0.0423326
-0.00033751
0.0435151
-0.000324472
0.0446998
-0.000312005
0.045924
-0.000300073
0.0471682
-0.000288635
0.0484469
-0.000277664
0.0497608
-0.000267131
0.0510979
-0.000256997
0.0524831
-0.000247252
0.0538916
-0.000237867
0.0553316
-0.000228832
0.0568313
-0.000220119
0.0583413
-0.000211728
0.0598965
-0.000203634
0.0613506
-0.00019587
0.0628499
-0.00103199
0.0160091
-0.000990882
0.0162742
-0.000953811
0.0164978
-0.000920359
0.0167388
-0.000889655
0.0170601
-0.000860464
0.0175134
-0.00083158
0.0181325
-0.000802161
0.018923
-0.000771951
0.019869
-0.000740903
0.0209434
-0.000709536
0.0221094
-0.000678271
0.0233336
-0.000647793
0.0245903
-0.000618163
0.0258573
-0.000589975
0.0271217
-0.000563053
0.0283746
-0.000537688
0.0296071
-0.000513757
0.0308223
-0.000491148
0.032014
-0.000469919
0.0331892
-0.000449917
0.0343469
-0.000431031
0.0354924
-0.000413251
0.0366272
-0.000396323
0.03776
-0.000380392
0.0388926
-0.000365217
0.0400284
-0.000350819
0.0411757
-0.00033707
0.0423321
-0.000323978
0.0435146
-0.000311475
0.0446993
-0.00029952
0.0459234
-0.000288072
0.0471677
-0.000277101
0.0484464
-0.000266578
0.0497603
-0.000256461
0.0510973
-0.000246739
0.0524826
-0.000237382
0.0538911
-0.000228376
0.0553311
-0.000219696
0.0568309
-0.000211334
0.0583409
-0.000203265
0.0598961
-0.000195502
0.0613502
-0.000188034
0.0628498
-0.0010336
0.0156579
-0.000990518
0.0160087
-0.000951132
0.0162715
-0.000915658
0.0164931
-0.000883716
0.0167328
-0.000854337
0.017054
-0.000826305
0.0175081
-0.000798501
0.0181288
-0.00077023
0.0189213
-0.00074102
0.0198691
-0.000711105
0.0209449
-0.000680802
0.0221119
-0.00065083
0.0233366
-0.000621343
0.0245935
-0.000593043
0.0258604
-0.000565848
0.0271245
-0.000540121
0.028377
-0.000515793
0.0296091
-0.000492786
0.0308239
-0.000471182
0.0320152
-0.00045084
0.0331901
-0.000431657
0.0343476
-0.000413622
0.0354928
-0.00039648
0.0366274
-0.000380373
0.03776
-0.000365055
0.0388925
-0.000350542
0.0400281
-0.000336704
0.0411754
-0.000323544
0.0423317
-0.00031099
0.0435142
-0.000299001
0.0446988
-0.000287533
0.0459229
-0.000276555
0.0471671
-0.000266033
0.0484458
-0.000255927
0.0497597
-0.000246224
0.0510968
-0.00023689
0.0524821
-0.000227911
0.0538906
-0.00021926
0.0553307
-0.00021093
0.0568305
-0.000202892
0.0583405
-0.000195151
0.0598958
-0.000187688
0.0613498
-0.000180507
0.0628497
-0.00103619
0.0152015
-0.000992025
0.0156595
-0.000950689
0.0160083
-0.000912967
0.0162688
-0.000879088
0.0164885
-0.000848555
0.0167271
-0.000820401
0.0170481
-0.00079348
0.0175031
-0.000766814
0.0181254
-0.000739497
0.0189198
-0.000711349
0.0198694
-0.000682423
0.0209466
-0.000653348
0.0221145
-0.000624316
0.0233396
-0.000596128
0.0245966
-0.000568803
0.0258633
-0.000542799
0.0271271
-0.000518113
0.0283793
-0.000494717
0.029611
-0.000472728
0.0308255
-0.000452025
0.0320164
-0.000432516
0.0331909
-0.000414197
0.0343481
-0.000396813
0.0354931
-0.000380503
0.0366275
-0.000365018
0.0377599
-0.000350369
0.0388923
-0.000336423
0.0400279
-0.000323179
0.041175
-0.000310561
0.0423313
-0.000298526
0.0435137
-0.000287027
0.0446983
-0.000276031
0.0459223
-0.000265503
0.0471666
-0.000255401
0.0484453
-0.000245709
0.0497592
-0.000236393
0.0510963
-0.000227438
0.0524817
-0.000218815
0.0538902
-0.000210514
0.0553303
-0.000202506
0.0568301
-0.000194796
0.0583402
-0.000187355
0.0598955
-0.000180183
0.0613495
-0.00017329
0.0628495
-0.00103864
0.0146551
-0.000994506
0.015204
-0.000952086
0.0156609
-0.000912448
0.0160078
-0.000876388
0.0162661
-0.000844001
0.0164839
-0.000814776
0.0167214
-0.000787796
0.0170424
-0.000762043
0.0174983
-0.000736319
0.0181222
-0.000710016
0.0189184
-0.000682787
0.0198698
-0.000655014
0.0209482
-0.000626815
0.022117
-0.000599036
0.0233425
-0.000571792
0.0245996
-0.000545645
0.0258662
-0.000520677
0.0271297
-0.000496928
0.0283815
-0.000474559
0.0296129
-0.000453483
0.030827
-0.000433627
0.0320175
-0.000414996
0.0331917
-0.00039734
0.0343487
-0.000380798
0.0354934
-0.000365121
0.0366276
-0.000350314
0.0377599
-0.00033624
0.0388921
-0.000322894
0.0400276
-0.000310198
0.0411746
-0.000298103
0.0423308
-0.000286562
0.0435132
-0.000275538
0.0446978
-0.000264994
0.0459218
-0.000254887
0.0471661
-0.0002452
0.0484448