/*--------------------------------*- C++ -*----------------------------------*\
  =========                 |
  \\      /  F ield         | OpenFOAM: The Open Source CFD Toolbox
   \\    /   O peration     | Website:  https://openfoam.org
    \\  /    A nd           | Version:  7
     \\/     M anipulation  |
\*---------------------------------------------------------------------------*/
FoamFile
{
    version     2.0;
    format      ascii;
    class       volVectorField;
    location    "200";
    object      U;
}
// * * * * * * * * * * * * * * * * * * * * * * * * * * * * * * * * * * * * * //

dimensions      [0 1 -1 0 0 0 0];

internalField   nonuniform List<vector> 
23023
(
(50.1423 12.2005 0)
(49.9037 12.2976 0)
(50.1518 12.1998 0)
(49.8229 12.3845 0)
(49.9142 12.2966 0)
(50.1614 12.1991 0)
(49.7114 12.4492 0)
(49.8327 12.3838 0)
(49.925 12.2956 0)
(50.1712 12.1984 0)
(49.7209 12.4485 0)
(49.8428 12.3832 0)
(49.936 12.2947 0)
(50.1811 12.1977 0)
(49.6331 12.5152 0)
(49.7307 12.4479 0)
(49.853 12.3826 0)
(49.9471 12.2938 0)
(50.1911 12.1971 0)
(49.5446 12.5778 0)
(49.6421 12.5146 0)
(49.7407 12.4472 0)
(49.8635 12.382 0)
(49.9585 12.293 0)
(50.2012 12.1965 0)
(49.4652 12.6406 0)
(49.5528 12.5772 0)
(49.6514 12.514 0)
(49.7509 12.4466 0)
(49.8742 12.3815 0)
(49.9701 12.2921 0)
(50.2114 12.1959 0)
(49.3906 12.7028 0)
(49.4725 12.64 0)
(49.5614 12.5767 0)
(49.661 12.5135 0)
(49.7614 12.4461 0)
(49.8851 12.3809 0)
(49.9818 12.2914 0)
(50.2218 12.1954 0)
(49.3232 12.7652 0)
(49.3967 12.7023 0)
(49.48 12.6395 0)
(49.5702 12.5761 0)
(49.6708 12.5129 0)
(49.7722 12.4455 0)
(49.8962 12.3804 0)
(49.9938 12.2906 0)
(50.2323 12.1949 0)
(49.2628 12.8276 0)
(49.3281 12.7647 0)
(49.4032 12.7018 0)
(49.4879 12.6389 0)
(49.5792 12.5756 0)
(49.6809 12.5124 0)
(49.7831 12.4449 0)
(49.9076 12.3799 0)
(50.0059 12.2899 0)
(50.2429 12.1944 0)
(49.2665 12.8271 0)
(49.3334 12.7643 0)
(49.41 12.7013 0)
(49.496 12.6384 0)
(49.5886 12.5751 0)
(49.6912 12.5119 0)
(49.7943 12.4444 0)
(49.9191 12.3794 0)
(50.0182 12.2892 0)
(50.2536 12.1939 0)
(49.2128 12.8893 0)
(49.2704 12.8267 0)
(49.339 12.7638 0)
(49.4171 12.7008 0)
(49.5044 12.6379 0)
(49.5982 12.5746 0)
(49.7018 12.5114 0)
(49.8057 12.4439 0)
(49.9308 12.379 0)
(50.0307 12.2885 0)
(50.2644 12.1935 0)
(49.1679 12.951 0)
(49.2153 12.8889 0)
(49.2746 12.8263 0)
(49.3449 12.7633 0)
(49.4245 12.7003 0)
(49.5132 12.6374 0)
(49.6081 12.5741 0)
(49.7126 12.5109 0)
(49.8174 12.4434 0)
(49.9427 12.3785 0)
(50.0434 12.2879 0)
(50.2752 12.1931 0)
(49.1328 13.0115 0)
(49.1689 12.9506 0)
(49.2181 12.8886 0)
(49.2792 12.8258 0)
(49.3511 12.7629 0)
(49.4321 12.6998 0)
(49.5222 12.637 0)
(49.6183 12.5736 0)
(49.7237 12.5105 0)
(49.8292 12.443 0)
(49.9548 12.3781 0)
(50.0562 12.2873 0)
(50.2862 12.1927 0)
(49.1085 13.0703 0)
(49.1321 13.0113 0)
(49.1701 12.9503 0)
(49.2213 12.8882 0)
(49.2841 12.8254 0)
(49.3576 12.7624 0)
(49.4401 12.6994 0)
(49.5315 12.6365 0)
(49.6287 12.5731 0)
(49.735 12.51 0)
(49.8413 12.4425 0)
(49.9671 12.3777 0)
(50.0691 12.2867 0)
(50.2973 12.1923 0)
(49.1061 13.0701 0)
(49.1318 13.011 0)
(49.1717 12.95 0)
(49.2247 12.8878 0)
(49.2893 12.825 0)
(49.3644 12.762 0)
(49.4484 12.6989 0)
(49.541 12.6361 0)
(49.6394 12.5727 0)
(49.7465 12.5096 0)
(49.8536 12.4421 0)
(49.9796 12.3773 0)
(50.0823 12.2862 0)
(50.3084 12.1919 0)
(49.0919 13.1264 0)
(49.104 13.07 0)
(49.1317 13.0108 0)
(49.1737 12.9497 0)
(49.2285 12.8874 0)
(49.2949 12.8246 0)
(49.3716 12.7616 0)
(49.457 12.6985 0)
(49.5509 12.6356 0)
(49.6503 12.5723 0)
(49.7583 12.5092 0)
(49.866 12.4417 0)
(49.9922 12.3769 0)
(50.0955 12.2857 0)
(50.3197 12.1916 0)
(49.0908 13.1791 0)
(49.088 13.1263 0)
(49.1022 13.0698 0)
(49.132 13.0105 0)
(49.1759 12.9494 0)
(49.2326 12.8871 0)
(49.3007 12.8242 0)
(49.379 12.7611 0)
(49.4659 12.6981 0)
(49.561 12.6352 0)
(49.6615 12.5719 0)
(49.7703 12.5088 0)
(49.8787 12.4412 0)
(50.005 12.3765 0)
(50.109 12.2852 0)
(50.331 12.1913 0)
(49.085 13.1791 0)
(49.0843 13.1263 0)
(49.1007 13.0696 0)
(49.1326 13.0102 0)
(49.1785 12.949 0)
(49.2371 12.8867 0)
(49.3069 12.8238 0)
(49.3868 12.7607 0)
(49.4751 12.6977 0)
(49.5714 12.6348 0)
(49.673 12.5715 0)
(49.7825 12.5084 0)
(49.8916 12.4409 0)
(50.018 12.3762 0)
(50.1225 12.2847 0)
(50.3424 12.191 0)
(49.0964 13.227 0)
(49.0794 13.1791 0)
(49.081 13.1262 0)
(49.0996 13.0694 0)
(49.1336 13.01 0)
(49.1815 12.9487 0)
(49.2419 12.8864 0)
(49.3134 12.8234 0)
(49.3949 12.7604 0)
(49.4846 12.6973 0)
(49.5821 12.6344 0)
(49.6847 12.5711 0)
(49.795 12.508 0)
(49.9047 12.4405 0)
(50.0311 12.3758 0)
(50.1362 12.2842 0)
(50.3538 12.1907 0)
(49.1236 13.2685 0)
(49.0889 13.2272 0)
(49.0742 13.1792 0)
(49.0781 13.1261 0)
(49.0988 13.0692 0)
(49.1349 13.0097 0)
(49.1847 12.9484 0)
(49.247 12.886 0)
(49.3203 12.8231 0)
(49.4033 12.76 0)
(49.4944 12.6969 0)
(49.5931 12.6341 0)
(49.6966 12.5707 0)
(49.8076 12.5076 0)
(49.9179 12.4401 0)
(50.0444 12.3755 0)
(50.15 12.2838 0)
(50.3653 12.1904 0)
(49.1682 13.3019 0)
(49.1141 13.2688 0)
(49.0817 13.2273 0)
(49.0693 13.1792 0)
(49.0754 13.126 0)
(49.0983 13.0691 0)
(49.1365 13.0095 0)
(49.1884 12.9481 0)
(49.2525 12.8857 0)
(49.3275 12.8227 0)
(49.412 12.7596 0)
(49.5045 12.6965 0)
(49.6043 12.6337 0)
(49.7088 12.5703 0)
(49.8205 12.5073 0)
(49.9314 12.4398 0)
(50.0578 12.3752 0)
(50.164 12.2834 0)
(50.3769 12.1902 0)
(49.2316 13.3252 0)
(49.1566 13.3024 0)
(49.1048 13.2691 0)
(49.0747 13.2274 0)
(49.0647 13.1792 0)
(49.0731 13.1259 0)
(49.0982 13.0689 0)
(49.1385 13.0092 0)
(49.1923 12.9478 0)
(49.2583 12.8853 0)
(49.335 12.8223 0)
(49.421 12.7593 0)
(49.5148 12.6962 0)
(49.6158 12.6333 0)
(49.7212 12.57 0)
(49.8336 12.507 0)
(49.945 12.4395 0)
(50.0714 12.3749 0)
(50.178 12.283 0)
(50.3885 12.19 0)
(49.2179 13.3259 0)
(49.1452 13.3029 0)
(49.0958 13.2694 0)
(49.0681 13.2275 0)
(49.0605 13.1791 0)
(49.0711 13.1257 0)
(49.0985 13.0687 0)
(49.1408 13.0089 0)
(49.1966 12.9475 0)
(49.2645 12.885 0)
(49.3428 12.822 0)
(49.4304 12.7589 0)
(49.5255 12.6958 0)
(49.6276 12.633 0)
(49.7339 12.5697 0)
(49.8469 12.5066 0)
(49.9588 12.4391 0)
(50.0852 12.3746 0)
(50.1922 12.2826 0)
(50.4002 12.1897 0)
(49.2995 13.3371 0)
(49.2045 13.3266 0)
(49.1341 13.3033 0)
(49.0871 13.2696 0)
(49.0618 13.2276 0)
(49.0565 13.1791 0)
(49.0695 13.1256 0)
(49.099 13.0684 0)
(49.1435 13.0087 0)
(49.2013 12.9472 0)
(49.2709 12.8847 0)
(49.3509 12.8217 0)
(49.44 12.7586 0)
(49.5364 12.6955 0)
(49.6396 12.6327 0)
(49.7468 12.5693 0)
(49.8604 12.5063 0)
(49.9728 12.4388 0)
(50.099 12.3743 0)
(50.2065 12.2823 0)
(50.4119 12.1895 0)
(49.4026 13.3335 0)
(49.284 13.338 0)
(49.1912 13.3272 0)
(49.1232 13.3037 0)
(49.0787 13.2698 0)
(49.0558 13.2277 0)
(49.0529 13.1791 0)
(49.0682 13.1255 0)
(49.1 13.0682 0)
(49.1465 13.0084 0)
(49.2063 12.9469 0)
(49.2778 12.8843 0)
(49.3594 12.8213 0)
(49.4499 12.7582 0)
(49.5476 12.6952 0)
(49.6519 12.6323 0)
(49.7599 12.569 0)
(49.8742 12.506 0)
(49.987 12.4385 0)
(50.1131 12.3741 0)
(50.2209 12.2819 0)
(50.4237 12.1893 0)
(49.3851 13.3346 0)
(49.2686 13.3388 0)
(49.1782 13.3278 0)
(49.1126 13.304 0)
(49.0706 13.27 0)
(49.0502 13.2277 0)
(49.0497 13.179 0)
(49.0673 13.1253 0)
(49.1013 13.068 0)
(49.1499 13.0081 0)
(49.2116 12.9466 0)
(49.2849 12.884 0)
(49.3682 12.821 0)
(49.4602 12.7579 0)
(49.5591 12.6948 0)
(49.6644 12.632 0)
(49.7733 12.5687 0)
(49.8881 12.5058 0)
(50.0013 12.4383 0)
(50.1272 12.3738 0)
(50.2354 12.2816 0)
(50.4355 12.1891 0)
(49.5088 13.3139 0)
(49.3678 13.3357 0)
(49.2535 13.3396 0)
(49.1654 13.3283 0)
(49.1023 13.3044 0)
(49.0627 13.2702 0)
(49.0448 13.2278 0)
(49.0468 13.1789 0)
(49.0667 13.1252 0)
(49.1029 13.0678 0)
(49.1536 13.0079 0)
(49.2173 12.9463 0)
(49.2924 12.8837 0)
(49.3773 12.8207 0)
(49.4707 12.7576 0)
(49.5709 12.6945 0)
(49.6772 12.6317 0)
(49.7869 12.5684 0)
(49.9021 12.5055 0)
(50.0157 12.438 0)
(50.1415 12.3736 0)
(50.25 12.2813 0)
(50.4473 12.189 0)
(49.6553 13.2731 0)
(49.4896 13.3153 0)
(49.3505 13.3367 0)
(49.2385 13.3403 0)
(49.1528 13.3288 0)
(49.0923 13.3047 0)
(49.0553 13.2703 0)
(49.0399 13.2278 0)
(49.0442 13.1789 0)
(49.0665 13.125 0)
(49.1049 13.0676 0)
(49.1577 13.0076 0)
(49.2234 12.946 0)
(49.3002 12.8835 0)
(49.3867 12.8204 0)
(49.4816 12.7573 0)
(49.583 12.6942 0)
(49.6902 12.6314 0)
(49.8007 12.5681 0)
(49.9164 12.5052 0)
(50.0304 12.4377 0)
(50.1558 12.3733 0)
(50.2647 12.281 0)
(50.4592 12.1888 0)
(49.6346 13.2747 0)
(49.4705 13.3165 0)
(49.3335 13.3377 0)
(49.2237 13.341 0)
(49.1405 13.3292 0)
(49.0826 13.3049 0)
(49.0481 13.2705 0)
(49.0352 13.2278 0)
(49.042 13.1788 0)
(49.0666 13.1249 0)
(49.1073 13.0674 0)
(49.1622 13.0074 0)
(49.2297 12.9458 0)
(49.3084 12.8832 0)
(49.3965 12.8201 0)
(49.4927 12.757 0)
(49.5953 12.6939 0)
(49.7035 12.6311 0)
(49.8147 12.5679 0)
(49.9309 12.505 0)
(50.0451 12.4375 0)
(50.1703 12.3731 0)
(50.2794 12.2807 0)
(50.471 12.1886 0)
(49.8024 13.2113 0)
(49.6139 13.2762 0)
(49.4514 13.3177 0)
(49.3165 13.3386 0)
(49.2091 13.3416 0)
(49.1285 13.3297 0)
(49.0731 13.3052 0)
(49.0412 13.2706 0)
(49.0309 13.2278 0)
(49.0402 13.1787 0)
(49.0671 13.1247 0)
(49.11 13.0672 0)
(49.167 13.0071 0)
(49.2365 12.9455 0)
(49.3169 12.8829 0)
(49.4066 12.8198 0)
(49.5041 12.7567 0)
(49.6079 12.6936 0)
(49.717 12.6309 0)
(49.8289 12.5676 0)
(49.9455 12.5047 0)
(50.06 12.4372 0)
(50.1849 12.3729 0)
(50.2942 12.2804 0)
(50.483 12.1885 0)
(49.9915 13.1224 0)
(49.7805 13.213 0)
(49.5931 13.2777 0)
(49.4325 13.3188 0)
(49.2997 13.3394 0)
(49.1948 13.3422 0)
(49.1167 13.3301 0)
(49.064 13.3054 0)
(49.0347 13.2707 0)
(49.027 13.2278 0)
(49.0387 13.1786 0)
(49.068 13.1245 0)
(49.1131 13.0669 0)
(49.1722 13.0069 0)
(49.2436 12.9452 0)
(49.3257 12.8826 0)
(49.4169 12.8195 0)
(49.5159 12.7564 0)
(49.6207 12.6934 0)
(49.7308 12.6306 0)
(49.8434 12.5674 0)
(49.9604 12.5045 0)
(50.0751 12.437 0)
(50.1996 12.3727 0)
(50.3092 12.2802 0)
(50.4949 12.1883 0)
(49.9689 13.1244 0)
(49.7584 13.2148 0)
(49.5724 13.279 0)
(49.4136 13.3199 0)
(49.2831 13.3402 0)
(49.1807 13.3428 0)
(49.1053 13.3304 0)
(49.0552 13.3056 0)
(49.0286 13.2707 0)
(49.0234 13.2278 0)
(49.0376 13.1785 0)
(49.0692 13.1244 0)
(49.1165 13.0667 0)
(49.1777 13.0067 0)
(49.251 12.945 0)
(49.3349 12.8823 0)
(49.4276 12.8193 0)
(49.5279 12.7562 0)
(49.6339 12.6931 0)
(49.7448 12.6304 0)
(49.858 12.5671 0)
(49.9753 12.5042 0)
(50.0903 12.4368 0)
(50.2145 12.3725 0)
(50.3241 12.28 0)
(50.5068 12.1882 0)
(50.1764 13.0081 0)
(49.946 13.1264 0)
(49.7362 13.2164 0)
(49.5516 13.2804 0)
(49.3948 13.3209 0)
(49.2667 13.3409 0)
(49.1669 13.3433 0)
(49.0941 13.3307 0)
(49.0467 13.3058 0)
(49.0228 13.2708 0)
(49.0201 13.2277 0)
(49.0368 13.1783 0)
(49.0708 13.1242 0)
(49.1204 13.0665 0)
(49.1836 13.0064 0)
(49.2588 12.9447 0)
(49.3444 12.8821 0)
(49.4386 12.819 0)
(49.5402 12.7559 0)
(49.6473 12.6929 0)
(49.759 12.6301 0)
(49.8728 12.5669 0)
(49.9905 12.504 0)
(50.1056 12.4366 0)
(50.2294 12.3723 0)
(50.3392 12.2797 0)
(50.5188 12.1881 0)
(50.3981 12.8624 0)
(50.1534 13.0103 0)
(49.9229 13.1283 0)
(49.7139 13.218 0)
(49.5309 13.2816 0)
(49.3762 13.3219 0)
(49.2505 13.3416 0)
(49.1533 13.3438 0)
(49.0832 13.331 0)
(49.0386 13.306 0)
(49.0173 13.2708 0)
(49.0173 13.2277 0)
(49.0364 13.1782 0)
(49.0728 13.124 0)
(49.1246 13.0663 0)
(49.1898 13.0062 0)
(49.2669 12.9445 0)
(49.3542 12.8818 0)
(49.45 12.8187 0)
(49.5528 12.7556 0)
(49.6609 12.6926 0)
(49.7735 12.6299 0)
(49.8879 12.5667 0)
(50.0058 12.5038 0)
(50.1211 12.4364 0)
(50.2444 12.3721 0)
(50.3543 12.2795 0)
(50.5307 12.188 0)
(50.376 12.8648 0)
(50.1301 13.0124 0)
(49.8997 13.1301 0)
(49.6916 13.2195 0)
(49.5102 13.2828 0)
(49.3577 13.3228 0)
(49.2345 13.3423 0)
(49.14 13.3442 0)
(49.0727 13.3313 0)
(49.0308 13.3061 0)
(49.0122 13.2709 0)
(49.0148 13.2276 0)
(49.0364 13.1781 0)
(49.0752 13.1238 0)
(49.1291 13.0661 0)
(49.1964 13.006 0)
(49.2754 12.9442 0)
(49.3643 12.8816 0)
(49.4616 12.8185 0)
(49.5657 12.7554 0)
(49.6748 12.6924 0)
(49.7881 12.6297 0)
(49.9031 12.5664 0)
(50.0213 12.5036 0)
(50.1366 12.4362 0)
(50.2594 12.3719 0)
(50.3694 12.2793 0)
(50.5427 12.1879 0)
(50.6068 12.6893 0)
(50.3533 12.8671 0)
(50.1065 13.0144 0)
(49.8762 13.1318 0)
(49.6692 13.2209 0)
(49.4896 13.2839 0)
(49.3393 13.3236 0)
(49.2187 13.3429 0)
(49.1269 13.3446 0)
(49.0624 13.3316 0)
(49.0233 13.3062 0)
(49.0075 13.2709 0)
(49.0127 13.2275 0)
(49.0368 13.1779 0)
(49.0779 13.1237 0)
(49.134 13.0659 0)
(49.2034 13.0057 0)
(49.2842 12.944 0)
(49.3748 12.8813 0)
(49.4735 12.8182 0)
(49.5789 12.7552 0)
(49.689 12.6921 0)
(49.803 12.6294 0)
(49.9185 12.5662 0)
(50.0369 12.5034 0)
(50.1523 12.436 0)
(50.2746 12.3718 0)
(50.3846 12.2791 0)
(50.5547 12.1878 0)
(50.836 12.4849 0)
(50.5859 12.6917 0)
(50.3302 12.8693 0)
(50.0825 13.0164 0)
(49.8525 13.1335 0)
(49.6468 13.2222 0)
(49.4691 13.2849 0)
(49.3212 13.3244 0)
(49.2032 13.3435 0)
(49.1142 13.345 0)
(49.0525 13.3318 0)
(49.0162 13.3063 0)
(49.0031 13.2709 0)
(49.0109 13.2275 0)
(49.0376 13.1778 0)
(49.081 13.1235 0)
(49.1394 13.0657 0)
(49.2107 13.0055 0)
(49.2934 12.9438 0)
(49.3856 12.8811 0)
(49.4858 12.818 0)
(49.5923 12.7549 0)
(49.7034 12.6919 0)
(49.8181 12.6292 0)
(49.9341 12.566 0)
(50.0527 12.5032 0)
(50.1681 12.4358 0)
(50.2898 12.3716 0)
(50.3998 12.2789 0)
(50.5666 12.1877 0)
(51.0504 12.2547 0)
(50.8181 12.4873 0)
(50.5643 12.6941 0)
(50.3066 12.8715 0)
(50.0582 13.0183 0)
(49.8288 13.1351 0)
(49.6244 13.2235 0)
(49.4487 13.2859 0)
(49.3032 13.3251 0)
(49.1879 13.344 0)
(49.1017 13.3454 0)
(49.043 13.332 0)
(49.0095 13.3064 0)
(48.9991 13.2709 0)
(49.0096 13.2274 0)
(49.0387 13.1777 0)
(49.0845 13.1233 0)
(49.145 13.0655 0)
(49.2184 13.0053 0)
(49.3029 12.9435 0)
(49.3968 12.8809 0)
(49.4983 12.8178 0)
(49.606 12.7547 0)
(49.718 12.6917 0)
(49.8335 12.629 0)
(49.9499 12.5658 0)
(50.0686 12.5031 0)
(50.184 12.4357 0)
(50.3051 12.3715 0)
(50.4151 12.2787 0)
(50.5785 12.1876 0)
(51.2333 12.0049 0)
(51.0368 12.2569 0)
(50.7993 12.4897 0)
(50.5421 12.6964 0)
(50.2826 12.8735 0)
(50.0337 13.0201 0)
(49.8049 13.1366 0)
(49.602 13.2247 0)
(49.4284 13.2869 0)
(49.2854 13.3258 0)
(49.1729 13.3445 0)
(49.0896 13.3457 0)
(49.0337 13.3322 0)
(49.0031 13.3065 0)
(48.9955 13.2709 0)
(49.0086 13.2273 0)
(49.0402 13.1775 0)
(49.0884 13.1231 0)
(49.1511 13.0653 0)
(49.2265 13.0051 0)
(49.3128 12.9433 0)
(49.4083 12.8806 0)
(49.5112 12.8176 0)
(49.62 12.7545 0)
(49.7329 12.6915 0)
(49.849 12.6288 0)
(49.9658 12.5657 0)
(50.0846 12.5029 0)
(50.2 12.4355 0)
(50.3205 12.3713 0)
(50.4304 12.2786 0)
(50.5905 12.1875 0)
(51.3647 11.7458 0)
(51.2255 12.0067 0)
(51.0224 12.2591 0)
(50.7799 12.492 0)
(50.5194 12.6986 0)
(50.2581 12.8755 0)
(50.009 13.0218 0)
(49.7809 13.138 0)
(49.5796 13.2258 0)
(49.4082 13.2878 0)
(49.2679 13.3265 0)
(49.1582 13.345 0)
(49.0778 13.346 0)
(49.0249 13.3324 0)
(48.9971 13.3066 0)
(48.9923 13.2708 0)
(49.008 13.2272 0)
(49.0422 13.1774 0)
(49.0927 13.123 0)
(49.1575 13.0651 0)
(49.2349 13.0049 0)
(49.323 12.9431 0)
(49.4201 12.8804 0)
(49.5243 12.8173 0)
(49.6343 12.7543 0)
(49.748 12.6913 0)
(49.8647 12.6286 0)
(49.9819 12.5655 0)
(50.1008 12.5027 0)
(50.2161 12.4354 0)
(50.3359 12.3712 0)
(50.4457 12.2784 0)
(50.6024 12.1874 0)
(51.4233 11.4922 0)
(51.364 11.7469 0)
(51.2168 12.0086 0)
(51.007 12.2613 0)
(50.7596 12.4942 0)
(50.496 12.7007 0)
(50.2333 12.8775 0)
(49.984 13.0235 0)
(49.7568 13.1394 0)
(49.5573 13.2269 0)
(49.3882 13.2886 0)
(49.2506 13.3271 0)
(49.1437 13.3454 0)
(49.0663 13.3463 0)
(49.0164 13.3325 0)
(48.9915 13.3066 0)
(48.9894 13.2708 0)
(49.0078 13.2271 0)
(49.0445 13.1773 0)
(49.0973 13.1228 0)
(49.1643 13.0649 0)
(49.2437 13.0047 0)
(49.3336 12.9429 0)
(49.4322 12.8802 0)
(49.5378 12.8171 0)
(49.6488 12.7541 0)
(49.7634 12.6911 0)
(49.8807 12.6285 0)
(49.9982 12.5653 0)
(50.1171 12.5026 0)
(50.2323 12.4352 0)
(50.3514 12.371 0)
(50.4611 12.2783 0)
(50.6142 12.1873 0)
(51.4305 11.4923 0)
(51.3623 11.7481 0)
(51.207 12.0104 0)
(50.9908 12.2634 0)
(50.7387 12.4963 0)
(50.4721 12.7028 0)
(50.2081 12.8793 0)
(49.9588 13.025 0)
(49.7327 13.1407 0)
(49.535 13.228 0)
(49.3684 13.2894 0)
(49.2335 13.3277 0)
(49.1296 13.3458 0)
(49.0552 13.3466 0)
(49.0082 13.3327 0)
(48.9863 13.3066 0)
(48.987 13.2707 0)
(49.008 13.227 0)
(49.0472 13.1771 0)
(49.1023 13.1226 0)
(49.1715 13.0647 0)
(49.2528 13.0045 0)
(49.3445 12.9427 0)
(49.4446 12.88 0)
(49.5515 12.8169 0)
(49.6636 12.7539 0)
(49.779 12.6909 0)
(49.8968 12.6283 0)
(50.0146 12.5652 0)
(50.1335 12.5024 0)
(50.2485 12.4351 0)
(50.3669 12.3709 0)
(50.4764 12.2781 0)
(50.6261 12.1873 0)
(51.4053 11.2622 0)
(51.4368 11.4925 0)
(51.3596 11.7493 0)
(51.1963 12.0122 0)
(50.9736 12.2654 0)
(50.717 12.4985 0)
(50.4477 12.7047 0)
(50.1825 12.8811 0)
(49.9334 13.0265 0)
(49.7086 13.1419 0)
(49.5129 13.229 0)
(49.3487 13.2901 0)
(49.2166 13.3283 0)
(49.1158 13.3462 0)
(49.0444 13.3468 0)
(49.0004 13.3328 0)
(48.9814 13.3066 0)
(48.9849 13.2707 0)
(49.0086 13.2269 0)
(49.0503 13.177 0)
(49.1078 13.1225 0)
(49.1791 13.0646 0)
(49.2624 13.0043 0)
(49.3557 12.9425 0)
(49.4573 12.8798 0)
(49.5655 12.8167 0)
(49.6786 12.7537 0)
(49.7948 12.6907 0)
(49.9131 12.6281 0)
(50.0312 12.565 0)
(50.15 12.5023 0)
(50.2649 12.4349 0)
(50.3825 12.3708 0)
(50.4918 12.278 0)
(50.6379 12.1872 0)
(51.2761 11.0789 0)
(51.4197 11.2612 0)
(51.4422 11.4929 0)
(51.3558 11.7506 0)
(51.1846 12.0139 0)
(50.9556 12.2675 0)
(50.6946 12.5005 0)
(50.4228 12.7067 0)
(50.1566 12.8828 0)
(49.9079 13.028 0)
(49.6844 13.1431 0)
(49.4908 13.2299 0)
(49.3293 13.2908 0)
(49.2001 13.3288 0)
(49.1023 13.3465 0)
(49.034 13.347 0)
(48.993 13.3329 0)
(48.977 13.3067 0)
(48.9833 13.2706 0)
(49.0096 13.2268 0)
(49.0538 13.1769 0)
(49.1136 13.1223 0)
(49.187 13.0644 0)
(49.2722 13.0041 0)
(49.3673 12.9423 0)
(49.4704 12.8796 0)
(49.5798 12.8165 0)
(49.6939 12.7535 0)
(49.8109 12.6906 0)
(49.9296 12.628 0)
(50.0479 12.5649 0)
(50.1667 12.5022 0)
(50.2813 12.4348 0)
(50.3981 12.3707 0)
(50.5072 12.2779 0)
(50.6497 12.1872 0)
(51.2976 11.0766 0)
(51.4334 11.2604 0)
(51.4465 11.4932 0)
(51.3511 11.7518 0)
(51.1718 12.0157 0)
(50.9368 12.2694 0)
(50.6716 12.5025 0)
(50.3974 12.7085 0)
(50.1305 12.8844 0)
(49.8823 13.0294 0)
(49.6603 13.1442 0)
(49.4689 13.2308 0)
(49.3101 13.2915 0)
(49.1838 13.3292 0)
(49.0891 13.3469 0)
(49.0239 13.3472 0)
(48.986 13.3329 0)
(48.9729 13.3067 0)
(48.982 13.2706 0)
(49.011 13.2267 0)
(49.0577 13.1767 0)
(49.1198 13.1221 0)
(49.1954 13.0642 0)
(49.2825 13.0039 0)
(49.3792 12.9421 0)
(49.4838 12.8794 0)
(49.5944 12.8164 0)
(49.7095 12.7533 0)
(49.8271 12.6904 0)
(49.9463 12.6278 0)
(50.0648 12.5647 0)
(50.1834 12.502 0)
(50.2978 12.4347 0)
(50.4138 12.3705 0)
(50.5225 12.2778 0)
(50.6614 12.1871 0)
(51.0716 10.9605 0)
(51.3187 11.0745 0)
(51.4462 11.2597 0)
(51.4499 11.4937 0)
(51.3452 11.7531 0)
(51.1581 12.0175 0)
(50.9171 12.2714 0)
(50.6479 12.5044 0)
(50.3716 12.7103 0)
(50.104 12.886 0)
(49.8565 13.0307 0)
(49.6362 13.1453 0)
(49.4471 13.2316 0)
(49.291 13.2921 0)
(49.1678 13.3297 0)
(49.0763 13.3471 0)
(49.0142 13.3474 0)
(48.9794 13.333 0)
(48.9692 13.3066 0)
(48.9812 13.2705 0)
(49.0129 13.2266 0)
(49.062 13.1766 0)
(49.1264 13.122 0)
(49.204 13.064 0)
(49.293 13.0037 0)
(49.3915 12.9419 0)
(49.4975 12.8792 0)
(49.6093 12.8162 0)
(49.7253 12.7532 0)
(49.8436 12.6902 0)
(49.9632 12.6277 0)
(50.0818 12.5646 0)
(50.2003 12.5019 0)
(50.3144 12.4346 0)
(50.4295 12.3704 0)
(50.5379 12.2776 0)
(50.6731 12.1871 0)
(50.7621 10.9288 0)
(51.098 10.9572 0)
(51.3394 11.0725 0)
(51.4583 11.2591 0)
(51.4523 11.4942 0)
(51.3383 11.7544 0)
(51.1435 12.0192 0)
(50.8966 12.2733 0)
(50.6236 12.5063 0)
(50.3453 12.712 0)
(50.0774 12.8875 0)
(49.8307 13.0319 0)
(49.6121 13.1463 0)
(49.4255 13.2324 0)
(49.2723 13.2927 0)
(49.1522 13.3301 0)
(49.0638 13.3474 0)
(49.0049 13.3475 0)
(48.9732 13.3331 0)
(48.966 13.3066 0)
(48.9808 13.2704 0)
(49.0151 13.2265 0)
(49.0667 13.1764 0)
(49.1334 13.1218 0)
(49.2131 13.0638 0)
(49.304 13.0035 0)
(49.4041 12.9417 0)
(49.5115 12.879 0)
(49.6244 12.816 0)
(49.7413 12.753 0)
(49.8603 12.6901 0)
(49.9802 12.6275 0)
(50.0989 12.5644 0)
(50.2172 12.5018 0)
(50.331 12.4345 0)
(50.4452 12.3703 0)
(50.5533 12.2775 0)
(50.6847 12.187 0)
(50.4089 10.9853 0)
(50.7907 10.9245 0)
(51.1243 10.954 0)
(51.3595 11.0707 0)
(51.4695 11.2586 0)
(51.4536 11.4948 0)
(51.3304 11.7557 0)
(51.1278 12.0209 0)
(50.8753 12.2751 0)
(50.5986 12.5081 0)
(50.3186 12.7137 0)
(50.0505 12.8889 0)
(49.8048 13.0331 0)
(49.5881 13.1472 0)
(49.4041 13.2331 0)
(49.2538 13.2933 0)
(49.1368 13.3305 0)
(49.0516 13.3477 0)
(48.996 13.3476 0)
(48.9674 13.3331 0)
(48.9631 13.3066 0)
(48.9807 13.2704 0)
(49.0177 13.2264 0)
(49.0718 13.1763 0)
(49.1407 13.1217 0)
(49.2226 13.0637 0)
(49.3153 13.0034 0)
(49.417 12.9415 0)
(49.5258 12.8789 0)
(49.6399 12.8158 0)
(49.7576 12.7528 0)
(49.8771 12.6899 0)
(49.9974 12.6274 0)
(50.1162 12.5643 0)
(50.2343 12.5016 0)
(50.3476 12.4344 0)
(50.4609 12.3703 0)
(50.5686 12.2774 0)
(50.6963 12.187 0)
(50.0636 11.119 0)
(50.4362 10.9807 0)
(50.8196 10.9204 0)
(51.1505 10.951 0)
(51.379 11.069 0)
(51.4797 11.2582 0)
(51.4538 11.4954 0)
(51.3213 11.757 0)
(51.1112 12.0226 0)
(50.8532 12.277 0)
(50.5731 12.5099 0)
(50.2915 12.7152 0)
(50.0234 12.8903 0)
(49.7788 13.0343 0)
(49.5642 13.1481 0)
(49.3828 13.2338 0)
(49.2355 13.2938 0)
(49.1218 13.3308 0)
(49.0399 13.3479 0)
(48.9875 13.3477 0)
(48.962 13.3331 0)
(48.9607 13.3066 0)
(48.9811 13.2703 0)
(49.0208 13.2263 0)
(49.0773 13.1762 0)
(49.1485 13.1215 0)
(49.2324 13.0635 0)
(49.327 13.0032 0)
(49.4302 12.9414 0)
(49.5404 12.8787 0)
(49.6556 12.8157 0)
(49.7741 12.7527 0)
(49.8942 12.6898 0)
(50.0148 12.6273 0)
(50.1336 12.5642 0)
(50.2514 12.5015 0)
(50.3643 12.4343 0)
(50.4766 12.3702 0)
(50.5839 12.2774 0)
(50.7079 12.187 0)
(49.7775 11.3039 0)
(50.0864 11.1147 0)
(50.4641 10.9762 0)
(50.8488 10.9164 0)
(51.1765 10.9481 0)
(51.3979 11.0674 0)
(51.4891 11.2579 0)
(51.453 11.4961 0)
(51.3112 11.7583 0)
(51.0937 12.0243 0)
(50.8303 12.2787 0)
(50.5471 12.5115 0)
(50.2641 12.7168 0)
(49.9961 12.8916 0)
(49.7529 13.0353 0)
(49.5404 13.149 0)
(49.3618 13.2345 0)
(49.2176 13.2943 0)
(49.1071 13.3312 0)
(49.0285 13.3481 0)
(48.9793 13.3478 0)
(48.957 13.3332 0)
(48.9587 13.3065 0)
(48.982 13.2702 0)
(49.0242 13.2261 0)
(49.0832 13.176 0)
(49.1567 13.1213 0)
(49.2426 13.0633 0)
(49.339 13.003 0)
(49.4438 12.9412 0)
(49.5553 12.8785 0)
(49.6715 12.8155 0)
(49.7909 12.7525 0)
(49.9115 12.6897 0)
(50.0323 12.6271 0)
(50.1511 12.5641 0)
(50.2686 12.5014 0)
(50.3811 12.4342 0)
(50.4923 12.3701 0)
(50.5992 12.2773 0)
(50.7194 12.1869 0)
(49.5905 11.5033 0)
(49.7941 11.3006 0)
(50.1101 11.1104 0)
(50.4925 10.9718 0)
(50.8781 10.9127 0)
(51.2023 10.9454 0)
(51.4161 11.066 0)
(51.4974 11.2577 0)
(51.4511 11.4968 0)
(51.3001 11.7597 0)
(51.0752 12.0259 0)
(50.8067 12.2804 0)
(50.5205 12.5132 0)
(50.2363 12.7182 0)
(49.9686 12.8928 0)
(49.7269 13.0364 0)
(49.5168 13.1498 0)
(49.3409 13.2351 0)
(49.1999 13.2947 0)
(49.0928 13.3315 0)
(49.0175 13.3483 0)
(48.9716 13.3479 0)
(48.9524 13.3332 0)
(48.9571 13.3065 0)
(48.9832 13.2701 0)
(49.0281 13.226 0)
(49.0895 13.1759 0)
(49.1652 13.1212 0)
(49.2532 13.0632 0)
(49.3513 13.0029 0)
(49.4577 12.941 0)
(49.5705 12.8784 0)
(49.6878 12.8154 0)
(49.8078 12.7524 0)
(49.9289 12.6895 0)
(50.0499 12.627 0)
(50.1687 12.564 0)
(50.2859 12.5013 0)
(50.3979 12.4341 0)
(50.5081 12.37 0)
(50.6144 12.2772 0)
(50.7308 12.1869 0)
(49.5211 11.6759 0)
(49.6004 11.5014 0)
(49.8116 11.2973 0)
(50.1346 11.1063 0)
(50.5216 10.9676 0)
(50.9077 10.9091 0)
(51.2277 10.9429 0)
(51.4336 11.0648 0)
(51.5048 11.2576 0)
(51.448 11.4976 0)
(51.2878 11.761 0)
(51.0558 12.0275 0)
(50.7824 12.2821 0)
(50.4933 12.5148 0)
(50.2083 12.7196 0)
(49.9411 12.894 0)
(49.701 13.0373 0)
(49.4933 13.1506 0)
(49.3204 13.2357 0)
(49.1826 13.2951 0)
(49.0788 13.3318 0)
(49.0069 13.3484 0)
(48.9643 13.348 0)
(48.9482 13.3332 0)
(48.956 13.3065 0)
(48.9849 13.2701 0)
(49.0324 13.2259 0)
(49.0962 13.1758 0)
(49.1742 13.1211 0)
(49.2641 13.063 0)
(49.3641 13.0027 0)
(49.472 12.9409 0)
(49.586 12.8782 0)
(49.7043 12.8152 0)
(49.8251 12.7523 0)
(49.9466 12.6894 0)
(50.0677 12.6269 0)
(50.1865 12.5638 0)
(50.3032 12.5012 0)
(50.4147 12.434 0)
(50.5238 12.3699 0)
(50.6296 12.2771 0)
(50.7421 12.1869 0)
(49.5608 11.7848 0)
(49.5253 11.6757 0)
(49.611 11.4996 0)
(49.8298 11.2941 0)
(50.1598 11.1023 0)
(50.5511 10.9635 0)
(50.9373 10.9056 0)
(51.2528 10.9405 0)
(51.4503 11.0636 0)
(51.5111 11.2575 0)
(51.4438 11.4984 0)
(51.2745 11.7623 0)
(51.0355 12.0291 0)
(50.7574 12.2837 0)
(50.4657 12.5163 0)
(50.1799 12.721 0)
(49.9134 12.8952 0)
(49.6751 13.0383 0)
(49.4699 13.1513 0)
(49.3001 13.2362 0)
(49.1656 13.2955 0)
(49.0652 13.332 0)
(48.9967 13.3486 0)
(48.9574 13.3481 0)
(48.9445 13.3332 0)
(48.9553 13.3064 0)
(48.987 13.27 0)
(49.0371 13.2258 0)
(49.1034 13.1756 0)
(49.1835 13.1209 0)
(49.2755 13.0629 0)
(49.3771 13.0025 0)
(49.4865 12.9407 0)
(49.6018 12.8781 0)
(49.721 12.8151 0)
(49.8425 12.7522 0)
(49.9644 12.6893 0)
(50.0857 12.6268 0)
(50.2043 12.5637 0)
(50.3206 12.5011 0)
(50.4315 12.4339 0)
(50.5395 12.3698 0)
(50.6448 12.277 0)
(50.7534 12.1868 0)
(49.6742 11.8083 0)
(49.5614 11.786 0)
(49.53 11.6755 0)
(49.6224 11.4977 0)
(49.8489 11.2909 0)
(50.1859 11.0984 0)
(50.5812 10.9596 0)
(50.9671 10.9023 0)
(51.2775 10.9383 0)
(51.4662 11.0626 0)
(51.5163 11.2576 0)
(51.4385 11.4993 0)
(51.2602 11.7637 0)
(51.0143 12.0306 0)
(50.7317 12.2853 0)
(50.4377 12.5177 0)
(50.1513 12.7223 0)
(49.8857 12.8962 0)
(49.6493 13.0392 0)
(49.4468 13.152 0)
(49.28 13.2368 0)
(49.1489 13.2959 0)
(49.052 13.3323 0)
(48.9869 13.3487 0)
(48.9509 13.3481 0)
(48.9412 13.3332 0)
(48.955 13.3064 0)
(48.9895 13.2699 0)
(49.0423 13.2257 0)
(49.1109 13.1755 0)
(49.1933 13.1208 0)
(49.2872 13.0627 0)
(49.3906 13.0024 0)
(49.5014 12.9406 0)
(49.6179 12.8779 0)
(49.738 12.815 0)
(49.8601 12.752 0)
(49.9824 12.6892 0)
(50.1038 12.6267 0)
(50.2222 12.5636 0)
(50.3381 12.5011 0)
(50.4484 12.4338 0)
(50.5552 12.3698 0)
(50.6599 12.277 0)
(50.7646 12.1868 0)
(49.8076 11.7491 0)
(49.6737 11.8103 0)
(49.5623 11.7872 0)
(49.5352 11.6752 0)
(49.6344 11.4959 0)
(49.8688 11.2877 0)
(50.2126 11.0946 0)
(50.6117 10.9558 0)
(50.9969 10.8992 0)
(51.3017 10.9362 0)
(51.4812 11.0617 0)
(51.5205 11.2577 0)
(51.4321 11.5001 0)
(51.2448 11.765 0)
(50.9922 12.0321 0)
(50.7053 12.2868 0)
(50.4092 12.5191 0)
(50.1225 12.7235 0)
(49.8579 12.8973 0)
(49.6235 13.04 0)
(49.4238 13.1527 0)
(49.2603 13.2372 0)
(49.1326 13.2962 0)
(49.0391 13.3325 0)
(48.9775 13.3488 0)
(48.9449 13.3482 0)
(48.9384 13.3332 0)
(48.9551 13.3063 0)
(48.9924 13.2698 0)
(49.0478 13.2256 0)
(49.1189 13.1754 0)
(49.2034 13.1206 0)
(49.2993 13.0626 0)
(49.4043 13.0022 0)
(49.5166 12.9404 0)
(49.6342 12.8778 0)
(49.7552 12.8148 0)
(49.878 12.7519 0)
(50.0006 12.689 0)
(50.122 12.6265 0)
(50.2402 12.5636 0)
(50.3556 12.501 0)
(50.4652 12.4338 0)
(50.5709 12.3697 0)
(50.675 12.2769 0)
(50.7757 12.1868 0)
(49.9094 11.6356 0)
(49.8083 11.7511 0)
(49.6733 11.8123 0)
(49.5634 11.7883 0)
(49.5409 11.6749 0)
(49.6473 11.494 0)
(49.8896 11.2846 0)
(50.2401 11.0908 0)
(50.6427 10.9522 0)
(51.0266 10.8962 0)
(51.3255 10.9343 0)
(51.4953 11.0609 0)
(51.5235 11.2579 0)
(51.4245 11.501 0)
(51.2283 11.7663 0)
(50.9693 12.0336 0)
(50.6783 12.2883 0)
(50.3803 12.5205 0)
(50.0934 12.7247 0)
(49.8301 12.8983 0)
(49.5979 13.0408 0)
(49.4011 13.1533 0)
(49.2408 13.2377 0)
(49.1166 13.2966 0)
(49.0267 13.3327 0)
(48.9685 13.3489 0)
(48.9393 13.3482 0)
(48.9359 13.3332 0)
(48.9557 13.3063 0)
(48.9958 13.2697 0)
(49.0538 13.2254 0)
(49.1273 13.1752 0)
(49.2139 13.1205 0)
(49.3117 13.0624 0)
(49.4184 13.0021 0)
(49.5321 12.9403 0)
(49.6509 12.8777 0)
(49.7727 12.8147 0)
(49.896 12.7518 0)
(50.0189 12.6889 0)
(50.1403 12.6264 0)
(50.2583 12.5635 0)
(50.3731 12.5009 0)
(50.4821 12.4337 0)
(50.5865 12.3696 0)
(50.69 12.2768 0)
(50.7868 12.1868 0)
(49.9526 11.5091 0)
(49.9121 11.6369 0)
(49.8088 11.753 0)
(49.673 11.8142 0)
(49.5648 11.7893 0)
(49.5472 11.6744 0)
(49.6609 11.4921 0)
(49.9112 11.2816 0)
(50.2684 11.0872 0)
(50.6741 10.9487 0)
(51.0563 10.8934 0)
(51.3486 10.9325 0)
(51.5085 11.0602 0)
(51.5254 11.2582 0)
(51.4157 11.502 0)
(51.2108 11.7676 0)
(50.9455 12.0351 0)
(50.6508 12.2897 0)
(50.3511 12.5218 0)
(50.0642 12.7258 0)
(49.8022 12.8992 0)
(49.5724 13.0416 0)
(49.3786 13.1539 0)
(49.2216 13.2381 0)
(49.101 13.2968 0)
(49.0146 13.3329 0)
(48.96 13.349 0)
(48.9341 13.3483 0)
(48.934 13.3332 0)
(48.9567 13.3062 0)
(48.9997 13.2696 0)
(49.0602 13.2253 0)
(49.1361 13.1751 0)
(49.2249 13.1204 0)
(49.3245 13.0623 0)
(49.4329 13.002 0)
(49.548 12.9402 0)
(49.6678 12.8776 0)
(49.7905 12.8146 0)
(49.9143 12.7517 0)
(50.0374 12.6888 0)
(50.1588 12.6264 0)
(50.2765 12.5634 0)
(50.3907 12.5008 0)
(50.499 12.4336 0)
(50.6022 12.3696 0)
(50.7049 12.2768 0)
(50.7978 12.1867 0)
(49.9449 11.4022 0)
(49.957 11.5094 0)
(49.9147 11.6381 0)
(49.8093 11.7549 0)
(49.6727 11.816 0)
(49.5665 11.7902 0)
(49.5541 11.674 0)
(49.6752 11.4902 0)
(49.9337 11.2786 0)
(50.2973 11.0837 0)
(50.7059 10.9453 0)
(51.0859 10.8907 0)
(51.3712 10.9309 0)
(51.5207 11.0597 0)
(51.5261 11.2585 0)
(51.4058 11.5029 0)
(51.1923 11.7689 0)
(50.921 12.0365 0)
(50.6226 12.2911 0)
(50.3214 12.5231 0)
(50.0349 12.7269 0)
(49.7744 12.9001 0)
(49.5471 13.0423 0)
(49.3563 13.1544 0)
(49.2028 13.2385 0)
(49.0858 13.2971 0)
(49.003 13.333 0)
(48.9519 13.3491 0)
(48.9294 13.3483 0)
(48.9324 13.3331 0)
(48.9582 13.3061 0)
(49.0039 13.2695 0)
(49.0671 13.2252 0)
(49.1453 13.175 0)
(49.2362 13.1202 0)
(49.3377 13.0622 0)
(49.4477 13.0018 0)
(49.5641 12.94 0)
(49.685 12.8774 0)
(49.8084 12.8145 0)
(49.9327 12.7516 0)
(50.0561 12.6887 0)
(50.1774 12.6263 0)
(50.2947 12.5633 0)
(50.4083 12.5008 0)
(50.5158 12.4336 0)
(50.6177 12.3695 0)
(50.7198 12.2767 0)
(50.8087 12.1867 0)
(49.9151 11.3231 0)
(49.95 11.4018 0)
(49.9613 11.5097 0)
(49.9171 11.6393 0)
(49.8097 11.7567 0)
(49.6724 11.8177 0)
(49.5685 11.7911 0)
(49.5616 11.6735 0)
(49.6904 11.4883 0)
(49.957 11.2757 0)
(50.327 11.0803 0)
(50.7379 10.9421 0)
(51.1153 10.8882 0)
(51.3931 10.9294 0)
(51.5319 11.0592 0)
(51.5256 11.2588 0)
(51.3947 11.5039 0)
(51.1728 11.7702 0)
(50.8956 12.0378 0)
(50.5939 12.2924 0)
(50.2915 12.5243 0)
(50.0054 12.728 0)