/*--------------------------------*- C++ -*----------------------------------*\
  =========                 |
  \\      /  F ield         | OpenFOAM: The Open Source CFD Toolbox
   \\    /   O peration     | Website:  https://openfoam.org
    \\  /    A nd           | Version:  7
     \\/     M anipulation  |
\*---------------------------------------------------------------------------*/
FoamFile
{
    version     2.0;
    format      ascii;
    class       volScalarField;
    location    "200";
    object      yPlus;
}
// * * * * * * * * * * * * * * * * * * * * * * * * * * * * * * * * * * * * * //

dimensions      [0 0 0 0 0 0 0];

internalField   uniform 0;

boundaryField
{
    inlet-l
    {
        type            calculated;
        value           nonuniform 0();
    }
    airfoil-l1
    {
        type            calculated;
        value           nonuniform 0();
    }
    empty-1
    {
        type            empty;
    }
    empty-2
    {
        type            empty;
    }
    wall-l1
    {
        type            calculated;
        value           nonuniform 0();
    }
    airfoil-l2
    {
        type            calculated;
        value           nonuniform 0();
    }
    empty-3
    {
        type            empty;
    }
    empty-4
    {
        type            empty;
    }
    wall-l2
    {
        type            calculated;
        value           nonuniform 0();
    }
    outlet-l
    {
        type            calculated;
        value           uniform 0;
    }
    empty-5
    {
        type            empty;
    }
    empty-6
    {
        type            empty;
    }
    outlet-h
    {
        type            calculated;
        value           uniform 0;
    }
    wall-h2
    {
        type            calculated;
        value           nonuniform List<scalar> 
74
(
137.871
137.934
138.008
138.081
138.158
138.244
138.338
138.441
138.552
138.672
138.801
138.941
139.092
139.253
139.426
139.611
139.808
140.017
140.24
140.476
140.725
140.988
141.265
141.557
141.864
142.186
142.524
142.877
143.245
143.629
144.029
144.445
144.876
145.323
145.785
146.262
146.754
147.261
147.781
148.315
148.862
149.42
149.99
150.57
151.16
151.758
152.363
152.974
153.59
154.209
154.83
155.451
156.071
156.687
157.298
157.901
158.495
159.076
159.642
160.19
160.717
161.217
161.688
162.123
162.515
162.857
163.137
163.341
163.449
163.432
163.23
162.855
161.843
162.369
)
;
    }
    empty-7
    {
        type            empty;
    }
    empty-8
    {
        type            empty;
    }
    airfoil-h2
    {
        type            calculated;
        value           nonuniform List<scalar> 
34
(
16.9018
16.4367
15.9526
15.4527
14.9439
14.4381
13.9437
13.4751
13.0515
12.6701
12.3272
12.0178
11.7408
11.4929
11.263
11.0427
10.8301
10.6104
10.3895
10.1638
9.96988
9.7658
9.61013
9.47668
9.41775
9.43943
9.54094
9.65259
9.7513
9.73519
9.07665
7.7646
6.96353
6.6389
)
;
    }
    wall-h1
    {
        type            calculated;
        value           nonuniform List<scalar> 
34
(
137.08
137.127
137.166
137.212
137.246
137.29
137.324
137.365
137.398
137.436
137.465
137.501
137.528
137.562
137.586
137.617
137.64
137.668
137.687
137.712
137.73
137.746
137.767
137.778
137.798
137.807
137.82
137.828
137.84
137.843
137.851
137.85
137.856
137.852
)
;
    }
    empty-9
    {
        type            empty;
    }
    empty-10
    {
        type            empty;
    }
    inlet-h
    {
        type            calculated;
        value           nonuniform 0();
    }
    airfoil-h1
    {
        type            calculated;
        value           nonuniform 0();
    }
    empty-11
    {
        type            empty;
    }
    empty-12
    {
        type            empty;
    }
    procBoundary2to1
    {
        type            processor;
        value           uniform 0;
    }
    procBoundary2to3
    {
        type            processor;
        value           uniform 0;
    }
}


// ************************************************************************* //
