# Residuals   
# Time        	p             	Ux            	Uy            
0             	N/A	N/A
1             	1.000000e+00	1.000000e+00	1.000000e+00
2             	1.998133e-01	9.652559e-02	6.411706e-01
3             	4.003622e-01	6.522848e-03	2.143908e-01
4             	1.342122e-01	2.973616e-03	1.014197e-01
5             	1.367672e-01	1.541444e-02	2.772983e-01
6             	1.564160e-01	5.516098e-02	1.845466e-01
7             	1.627693e-01	2.847335e-02	1.816465e-01
8             	1.238327e-01	1.097885e-02	1.742096e-01
9             	1.111844e-01	3.936872e-03	8.799428e-02
10            	2.164851e-01	4.481264e-03	6.744196e-02
11            	1.029185e-01	5.527642e-03	5.716538e-02
12            	1.088726e-01	4.531232e-03	4.294126e-02
13            	6.247659e-01	5.785744e-03	4.137036e-02
14            	1.343015e-01	4.031506e-03	2.796349e-02
15            	2.716571e-01	2.079162e-03	2.046551e-02
16            	1.343579e-01	2.225294e-03	2.893590e-02
17            	8.498003e-02	2.034066e-03	2.897316e-02
18            	1.436342e-01	1.484861e-03	2.754025e-02
19            	7.553460e-01	1.618616e-03	2.345036e-02
20            	5.119027e-01	1.169718e-03	1.616157e-02
21            	1.875594e-01	8.561691e-04	1.596118e-02
22            	1.026163e-01	8.686602e-04	1.681245e-02
23            	1.008093e-01	7.034388e-04	1.534066e-02
24            	1.576190e-01	6.162723e-04	1.609574e-02
25            	2.237451e-01	6.230894e-04	1.392136e-02
26            	1.579091e-01	4.926726e-04	1.174422e-02
27            	1.040862e-01	4.062320e-04	1.164518e-02
28            	8.737185e-02	3.924157e-04	1.165038e-02
29            	9.802854e-02	3.533003e-04	1.249672e-02
30            	1.200080e-01	3.481349e-04	1.200397e-02
31            	1.171729e-01	3.292582e-04	1.060825e-02
32            	9.819322e-02	2.725779e-04	1.001531e-02
33            	8.618934e-02	2.496800e-04	1.046331e-02
34            	8.366521e-02	2.470806e-04	1.114242e-02
35            	8.831559e-02	2.463354e-04	1.131267e-02
36            	9.295339e-02	2.436336e-04	1.072971e-02
37            	8.961583e-02	2.227454e-04	1.013630e-02
38            	8.005757e-02	1.994804e-04	1.023687e-02
39            	7.751176e-02	1.950118e-04	1.068551e-02
40            	7.939386e-02	2.008227e-04	1.095101e-02
41            	7.600887e-02	1.994586e-04	1.074224e-02
42            	7.148307e-02	1.904777e-04	1.038966e-02
43            	7.083346e-02	1.768855e-04	1.031411e-02
44            	6.887084e-02	1.693112e-04	1.049730e-02
45            	6.322609e-02	1.715733e-04	1.067445e-02
46            	5.984144e-02	1.723584e-04	1.070319e-02
47            	5.973839e-02	1.684604e-04	1.054271e-02
48            	5.689351e-02	1.611428e-04	1.048581e-02
49            	5.084894e-02	1.551940e-04	1.061523e-02
50            	4.784678e-02	1.551694e-04	1.071992e-02
51            	4.729331e-02	1.561974e-04	1.068201e-02
52            	4.532057e-02	1.548593e-04	1.061355e-02
53            	4.062491e-02	1.513012e-04	1.060928e-02
54            	3.703059e-02	1.482775e-04	1.065002e-02
55            	3.583535e-02	1.481574e-04	1.066652e-02
56            	3.427536e-02	1.487136e-04	1.063594e-02
57            	3.113883e-02	1.480143e-04	1.057060e-02
58            	2.795199e-02	1.457842e-04	1.050132e-02
59            	2.629474e-02	1.437735e-04	1.044624e-02
60            	2.522096e-02	1.432476e-04	1.041167e-02
61            	2.340715e-02	1.434454e-04	1.036121e-02
62            	2.100556e-02	1.428859e-04	1.027243e-02
63            	1.908550e-02	1.414783e-04	1.015325e-02
64            	1.796763e-02	1.402673e-04	1.002751e-02
65            	1.699161e-02	1.401781e-04	9.913828e-03
66            	1.565125e-02	1.401503e-04	9.799908e-03
67            	1.396763e-02	1.396303e-04	9.677812e-03
68            	1.273848e-02	1.387050e-04	9.537099e-03
69            	1.189877e-02	1.380584e-04	9.396116e-03
70            	1.118634e-02	1.380409e-04	9.270113e-03
71            	1.030297e-02	1.382403e-04	9.159173e-03
72            	9.248398e-03	1.382201e-04	9.043239e-03
73            	8.436185e-03	1.378999e-04	8.922973e-03
74            	7.885592e-03	1.376353e-04	8.807504e-03
75            	7.450918e-03	1.373330e-04	8.714774e-03
76            	6.978581e-03	1.368206e-04	8.646521e-03
77            	6.450316e-03	1.361426e-04	8.590806e-03
78            	5.976887e-03	1.350796e-04	8.546415e-03
79            	5.637994e-03	1.336400e-04	8.501563e-03
80            	5.364584e-03	1.320114e-04	8.465462e-03
81            	5.117572e-03	1.302939e-04	8.437228e-03
82            	4.849822e-03	1.284496e-04	8.395407e-03
83            	4.566257e-03	1.264016e-04	8.337794e-03
84            	4.322136e-03	1.241658e-04	8.254180e-03
85            	4.114432e-03	1.218727e-04	8.143679e-03
86            	3.932921e-03	1.197441e-04	8.023852e-03
87            	3.759698e-03	1.174232e-04	7.889221e-03
88            	3.575375e-03	1.149146e-04	7.735771e-03
89            	3.386337e-03	1.123336e-04	7.557105e-03
90            	3.231357e-03	1.098067e-04	7.372651e-03
91            	3.090686e-03	1.073143e-04	7.181082e-03
92            	2.965330e-03	1.047100e-04	6.986107e-03
93            	2.827763e-03	1.019503e-04	6.784231e-03
94            	2.696745e-03	9.909260e-05	6.579707e-03
95            	2.570121e-03	9.619325e-05	6.378986e-03
96            	2.457371e-03	9.335746e-05	6.187458e-03
97            	2.354638e-03	9.056936e-05	6.001376e-03
98            	2.268791e-03	8.777316e-05	5.818835e-03
99            	2.182452e-03	8.491506e-05	5.640512e-03
100           	2.085849e-03	8.199605e-05	5.467374e-03
101           	1.987484e-03	7.910700e-05	5.304633e-03
102           	1.902789e-03	7.633388e-05	5.148454e-03
103           	1.837672e-03	7.364787e-05	5.001273e-03
104           	1.791203e-03	7.103292e-05	4.856865e-03
105           	1.739317e-03	6.846760e-05	4.715393e-03
106           	1.675939e-03	6.605827e-05	4.576112e-03
107           	1.609009e-03	6.385260e-05	4.443864e-03
108           	1.554602e-03	6.183987e-05	4.320221e-03
109           	1.512262e-03	5.995097e-05	4.201715e-03
110           	1.475186e-03	5.817674e-05	4.085669e-03
111           	1.438390e-03	5.649301e-05	3.972377e-03
112           	1.406186e-03	5.492240e-05	3.859850e-03
113           	1.368959e-03	5.347800e-05	3.745153e-03
114           	1.330433e-03	5.214102e-05	3.633243e-03
115           	1.292223e-03	5.084729e-05	3.526646e-03
116           	1.264509e-03	4.958665e-05	3.426090e-03
117           	1.246178e-03	4.841853e-05	3.326909e-03
118           	1.220580e-03	4.732580e-05	3.229773e-03
119           	1.185730e-03	4.625906e-05	3.132402e-03
120           	1.166086e-03	4.520461e-05	3.035211e-03
121           	1.146393e-03	4.417447e-05	2.935847e-03
122           	1.117946e-03	4.320458e-05	2.837661e-03
123           	1.086157e-03	4.231922e-05	2.743597e-03
124           	1.063469e-03	4.146089e-05	2.653722e-03
125           	1.049354e-03	4.062691e-05	2.570140e-03
126           	1.023984e-03	3.982662e-05	2.489171e-03
127           	9.927291e-04	3.906368e-05	2.406358e-03
128           	9.781755e-04	3.835140e-05	2.323153e-03
129           	9.641624e-04	3.771786e-05	2.239612e-03
130           	9.362598e-04	3.714421e-05	2.158604e-03
131           	8.975926e-04	3.657077e-05	2.085331e-03
132           	8.709794e-04	3.601489e-05	2.017654e-03
133           	8.571087e-04	3.546197e-05	1.955707e-03
134           	8.392203e-04	3.493917e-05	1.893590e-03
135           	8.098246e-04	3.446955e-05	1.830962e-03
136           	7.891971e-04	3.407723e-05	1.768238e-03
137           	7.776654e-04	3.372677e-05	1.706112e-03
138           	7.521320e-04	3.343431e-05	1.644682e-03
139           	7.134269e-04	3.315641e-05	1.588924e-03
140           	6.924677e-04	3.286119e-05	1.540898e-03
141           	6.820301e-04	3.257800e-05	1.496164e-03
142           	6.672678e-04	3.230527e-05	1.453113e-03
143           	6.445755e-04	3.206667e-05	1.408337e-03
144           	6.242618e-04	3.183256e-05	1.362674e-03
145           	6.160150e-04	3.157573e-05	1.319729e-03
146           	6.051432e-04	3.130746e-05	1.280578e-03
147           	5.779054e-04	3.105150e-05	1.244714e-03
148           	5.596371e-04	3.080835e-05	1.211114e-03
149           	5.605236e-04	3.056285e-05	1.179592e-03
150           	5.551093e-04	3.031163e-05	1.151429e-03
151           	5.368260e-04	3.004694e-05	1.126236e-03
152           	5.271610e-04	2.978689e-05	1.101759e-03
153           	5.257844e-04	2.952200e-05	1.077755e-03
154           	5.190653e-04	2.924835e-05	1.055236e-03
155           	5.074588e-04	2.896174e-05	1.032787e-03
156           	4.983675e-04	2.868615e-05	1.018300e-03
157           	4.930230e-04	2.839715e-05	1.001372e-03
158           	4.870913e-04	2.813106e-05	9.844595e-04
159           	4.786072e-04	2.786703e-05	9.719643e-04
160           	4.708543e-04	2.760234e-05	9.642606e-04
161           	4.646498e-04	2.733519e-05	9.552497e-04
162           	4.559771e-04	2.707555e-05	9.471544e-04
163           	4.458064e-04	2.681938e-05	9.396843e-04
164           	4.419183e-04	2.656211e-05	9.350467e-04
165           	4.371917e-04	2.629230e-05	9.282726e-04
166           	4.259619e-04	2.601410e-05	9.227964e-04
167           	4.190370e-04	2.573393e-05	9.194780e-04
168           	4.182794e-04	2.544945e-05	9.170019e-04
169           	4.138887e-04	2.516172e-05	9.147935e-04
170           	4.035574e-04	2.487694e-05	9.127820e-04
171           	3.979681e-04	2.459454e-05	9.107749e-04
172           	3.968048e-04	2.431009e-05	9.084648e-04
173           	3.927417e-04	2.401599e-05	9.064096e-04
174           	3.834423e-04	2.371663e-05	9.046507e-04
175           	3.774400e-04	2.341645e-05	9.028296e-04
176           	3.755281e-04	2.311848e-05	9.000691e-04
177           	3.709248e-04	2.282526e-05	8.962785e-04
178           	3.619453e-04	2.253096e-05	8.925278e-04
179           	3.555156e-04	2.223313e-05	8.880811e-04
180           	3.534585e-04	2.193670e-05	8.824593e-04
181           	3.497731e-04	2.164103e-05	8.756300e-04
182           	3.415408e-04	2.134013e-05	8.699331e-04
183           	3.332662e-04	2.103166e-05	8.641324e-04
184           	3.294519e-04	2.072062e-05	8.573309e-04
185           	3.268058e-04	2.040599e-05	8.497311e-04
186           	3.207951e-04	2.008878e-05	8.414039e-04
187           	3.132075e-04	1.976526e-05	8.322344e-04
188           	3.092393e-04	1.944169e-05	8.218168e-04
189           	3.084455e-04	1.911512e-05	8.124626e-04
190           	3.046492e-04	1.879174e-05	8.021956e-04
191           	2.968434e-04	1.847103e-05	7.910123e-04
192           	2.915912e-04	1.814670e-05	7.805149e-04
193           	2.899410e-04	1.781766e-05	7.706324e-04
194           	2.882589e-04	1.749033e-05	7.584581e-04
195           	2.831463e-04	1.716480e-05	7.455228e-04
196           	2.763761e-04	1.683600e-05	7.326932e-04
197           	2.733231e-04	1.650656e-05	7.208406e-04
198           	2.716651e-04	1.617767e-05	7.082141e-04
199           	2.674711e-04	1.586793e-05	6.943681e-04
200           	2.624243e-04	1.558784e-05	6.809707e-04
201           	2.582680e-04	1.534033e-05	6.635802e-04
202           	2.550056e-04	1.510453e-05	6.477045e-04
203           	2.515520e-04	1.486796e-05	6.346207e-04
204           	2.456439e-04	1.463221e-05	6.225853e-04
205           	2.396247e-04	1.439815e-05	6.095497e-04
206           	2.373899e-04	1.417568e-05	5.943842e-04
207           	2.358258e-04	1.396449e-05	5.796219e-04
208           	2.321955e-04	1.375802e-05	5.658121e-04
209           	2.276461e-04	1.355561e-05	5.524007e-04
210           	2.253137e-04	1.336090e-05	5.387403e-04
211           	2.239119e-04	1.317614e-05	5.245788e-04
212           	2.212753e-04	1.300128e-05	5.103606e-04
213           	2.176193e-04	1.283503e-05	4.963655e-04
214           	2.143290e-04	1.267020e-05	4.827590e-04
215           	2.121340e-04	1.251886e-05	4.690433e-04
216           	2.103898e-04	1.235769e-05	4.565035e-04
217           	2.069309e-04	1.221124e-05	4.440936e-04
218           	2.029221e-04	1.208705e-05	4.305955e-04
219           	1.999832e-04	1.197894e-05	4.174257e-04
220           	1.974382e-04	1.186865e-05	4.051847e-04
221           	1.937762e-04	1.175708e-05	3.935537e-04
222           	1.895328e-04	1.165775e-05	3.817908e-04
223           	1.858611e-04	1.157548e-05	3.700348e-04
224           	1.827566e-04	1.149571e-05	3.592340e-04
225           	1.793004e-04	1.142702e-05	3.475668e-04
226           	1.749863e-04	1.135777e-05	3.372937e-04
227           	1.699355e-04	1.129562e-05	3.276280e-04
228           	1.654044e-04	1.124498e-05	3.175785e-04
229           	1.616862e-04	1.115875e-05	3.086364e-04
230           	1.578407e-04	1.111307e-05	2.984991e-04
231           	1.527497e-04	1.107984e-05	2.886217e-04
232           	1.478898e-04	1.103766e-05	2.802094e-04
233           	1.436381e-04	1.099254e-05	2.724374e-04
234           	1.393093e-04	1.091265e-05	2.662666e-04
235           	1.347906e-04	1.085795e-05	2.588428e-04
236           	1.298093e-04	1.082697e-05	2.497519e-04
237           	1.251400e-04	1.080565e-05	2.415855e-04
238           	1.211427e-04	1.075488e-05	2.360708e-04
239           	1.168250e-04	1.068166e-05	2.311693e-04
240           	1.121691e-04	1.063041e-05	2.255194e-04
241           	1.077202e-04	1.060355e-05	2.182415e-04
242           	1.037458e-04	1.057964e-05	2.108835e-04
243           	1.000408e-04	1.051270e-05	2.073470e-04
244           	9.621956e-05	1.045149e-05	2.049271e-04
245           	9.207608e-05	1.039834e-05	2.007740e-04
246           	8.809039e-05	1.036062e-05	1.946680e-04
247           	8.488100e-05	1.031385e-05	1.893985e-04
248           	8.176216e-05	1.025994e-05	1.860742e-04
249           	7.837140e-05	1.020152e-05	1.833180e-04
250           	7.536290e-05	1.015364e-05	1.802810e-04
251           	7.234146e-05	1.010686e-05	1.767850e-04
252           	6.947368e-05	1.004794e-05	1.746946e-04
253           	6.683323e-05	9.990226e-06	1.727102e-04
254           	6.363824e-05	9.939490e-06	1.696237e-04
255           	6.063747e-05	9.887529e-06	1.675729e-04
256           	5.858043e-05	9.836899e-06	1.656770e-04
257           	5.651511e-05	9.785329e-06	1.634009e-04
258           	5.409719e-05	9.732501e-06	1.623840e-04
259           	5.171056e-05	9.681264e-06	1.615319e-04
260           	4.958404e-05	9.628558e-06	1.607134e-04
261           	4.777614e-05	9.576611e-06	1.595712e-04
262           	4.608841e-05	9.526109e-06	1.578901e-04
263           	4.365705e-05	9.474673e-06	1.565560e-04
264           	4.205835e-05	9.423225e-06	1.558866e-04
265           	4.059836e-05	9.368636e-06	1.564855e-04
266           	3.887474e-05	9.313225e-06	1.564678e-04
267           	3.728318e-05	9.259239e-06	1.560833e-04
268           	3.558944e-05	9.212906e-06	1.545490e-04
269           	3.468241e-05	9.159914e-06	1.536439e-04
270           	3.322326e-05	9.102306e-06	1.531911e-04
271           	3.172299e-05	9.038254e-06	1.550519e-04
272           	3.022420e-05	8.978204e-06	1.549692e-04
273           	2.823569e-05	8.926059e-06	1.527896e-04
274           	2.732821e-05	8.867162e-06	1.518818e-04
275           	2.641526e-05	8.809787e-06	1.507531e-04
276           	2.616399e-05	8.747319e-06	1.502162e-04
277           	2.484653e-05	8.681831e-06	1.506793e-04
278           	2.378927e-05	8.618527e-06	1.499192e-04
279           	2.269084e-05	8.556289e-06	1.486257e-04
280           	2.145549e-05	8.494765e-06	1.472305e-04
281           	2.072165e-05	8.451593e-06	1.443377e-04
282           	2.030313e-05	8.379777e-06	1.430773e-04
283           	1.942991e-05	8.304392e-06	1.428730e-04
284           	1.845362e-05	8.235076e-06	1.421188e-04
285           	1.802210e-05	8.171099e-06	1.407665e-04
286           	1.758584e-05	8.113155e-06	1.390237e-04
287           	1.699259e-05	8.057138e-06	1.369242e-04
288           	1.639895e-05	7.995397e-06	1.349643e-04
289           	1.575315e-05	7.943718e-06	1.320300e-04
290           	1.680149e-05	7.875845e-06	1.301992e-04
291           	1.571209e-05	7.816314e-06	1.265536e-04
292           	1.429688e-05	7.757793e-06	1.238190e-04
293           	1.397604e-05	7.700239e-06	1.222427e-04
294           	1.367937e-05	7.652095e-06	1.209834e-04
295           	1.344452e-05	7.608296e-06	1.193368e-04
296           	1.315195e-05	7.564333e-06	1.170404e-04
297           	1.257922e-05	7.517642e-06	1.144635e-04
298           	1.230170e-05	7.472207e-06	1.118385e-04
299           	1.179671e-05	7.429809e-06	1.095238e-04
300           	1.212508e-05	7.382680e-06	1.078820e-04
301           	1.168218e-05	7.335041e-06	1.062052e-04
302           	1.138094e-05	7.293719e-06	1.039989e-04
303           	1.115226e-05	7.256553e-06	1.015083e-04
304           	1.096895e-05	7.223014e-06	9.912043e-05
305           	1.061382e-05	7.187694e-06	9.713618e-05
306           	1.061335e-05	7.146480e-06	9.539797e-05
307           	1.045124e-05	7.112411e-06	9.290051e-05
308           	1.013281e-05	7.081221e-06	9.025232e-05
309           	1.033875e-05	7.054094e-06	8.823555e-05
310           	9.807879e-06	7.012992e-06	8.653185e-05
311           	9.672974e-06	6.970537e-06	8.478254e-05
312           	9.703426e-06	6.929059e-06	8.322112e-05
313           	9.519078e-06	6.897641e-06	8.072324e-05
314           	9.403884e-06	6.872028e-06	7.825497e-05
315           	9.199780e-06	6.848400e-06	7.640558e-05
316           	9.040985e-06	6.821564e-06	7.489576e-05
317           	9.540523e-06	6.798186e-06	7.310764e-05
318           	9.289772e-06	6.778497e-06	7.169015e-05
319           	9.295236e-06	6.750719e-06	6.983668e-05
320           	8.923034e-06	6.721951e-06	6.783249e-05
321           	8.635733e-06	6.692441e-06	6.642276e-05
322           	8.768196e-06	6.668192e-06	6.486786e-05
323           	8.809310e-06	6.644198e-06	6.354509e-05
324           	8.601902e-06	6.630024e-06	6.186849e-05
325           	8.666925e-06	6.610569e-06	6.055286e-05
326           	8.425056e-06	6.596591e-06	5.908184e-05
327           	8.336289e-06	6.574031e-06	5.805197e-05
328           	8.410962e-06	6.558471e-06	5.717977e-05
329           	8.006535e-06	6.534714e-06	5.603657e-05
330           	7.624437e-06	6.511018e-06	5.507299e-05
331           	7.563141e-06	6.491884e-06	5.392785e-05
332           	7.502657e-06	6.471575e-06	5.307829e-05
333           	7.901253e-06	6.456023e-06	5.203089e-05
334           	7.471970e-06	6.445750e-06	5.087208e-05
335           	7.377041e-06	6.436385e-06	5.012700e-05
336           	7.389004e-06	6.413341e-06	4.985578e-05
337           	7.314791e-06	6.393077e-06	4.944386e-05
338           	7.591975e-06	6.380593e-06	4.892718e-05
339           	7.305856e-06	6.366890e-06	4.849697e-05
340           	6.861023e-06	6.351846e-06	4.759640e-05
341           	6.720531e-06	6.334539e-06	4.713620e-05
342           	6.729515e-06	6.318224e-06	4.664869e-05
343           	6.748695e-06	6.306694e-06	4.602063e-05
344           	6.976148e-06	6.298872e-06	4.605565e-05
345           	7.413716e-06	6.285563e-06	4.563644e-05
346           	6.718553e-06	6.269636e-06	4.521603e-05
347           	6.565245e-06	6.252686e-06	4.484940e-05
348           	6.416848e-06	6.236044e-06	4.461510e-05
349           	6.322704e-06	6.229246e-06	4.545911e-05
350           	6.431357e-06	6.217726e-06	4.531100e-05
351           	6.362893e-06	6.207375e-06	4.504867e-05
352           	6.296235e-06	6.195073e-06	4.483528e-05
353           	6.508139e-06	6.190326e-06	4.443310e-05
354           	6.787385e-06	6.174240e-06	4.410900e-05
355           	6.595748e-06	6.157293e-06	4.409112e-05
356           	6.118249e-06	6.147405e-06	4.479714e-05
357           	6.644390e-06	6.136799e-06	4.513009e-05
358           	6.680459e-06	6.129681e-06	4.535657e-05
359           	6.647065e-06	6.119924e-06	4.543890e-05
360           	6.157394e-06	6.110306e-06	4.541226e-05
361           	6.350730e-06	6.107750e-06	4.522387e-05
362           	6.309493e-06	6.093106e-06	4.527343e-05
363           	6.107785e-06	6.078592e-06	4.546613e-05
364           	5.886678e-06	6.065669e-06	4.571614e-05
365           	6.127917e-06	6.054561e-06	4.589908e-05
366           	5.783302e-06	6.057198e-06	4.738522e-05
367           	5.980167e-06	6.046517e-06	4.748811e-05
368           	5.783060e-06	6.035578e-06	4.733243e-05
369           	6.034495e-06	6.025217e-06	4.713558e-05
370           	5.853263e-06	6.013952e-06	4.685446e-05
371           	5.799199e-06	6.008788e-06	4.602613e-05
372           	5.927456e-06	6.001739e-06	4.608873e-05
373           	6.188869e-06	5.990862e-06	4.630355e-05
374           	6.024449e-06	5.985281e-06	4.791136e-05
375           	5.912268e-06	5.970503e-06	4.802240e-05
376           	5.875341e-06	5.958391e-06	4.787025e-05
377           	5.771999e-06	5.951905e-06	4.739773e-05
378           	5.672861e-06	5.944607e-06	4.702929e-05
379           	6.178791e-06	5.956180e-06	4.672160e-05
380           	6.233204e-06	5.937734e-06	4.619501e-05
381           	5.721551e-06	5.917628e-06	4.767404e-05
382           	5.919443e-06	5.903701e-06	4.779680e-05
383           	5.921155e-06	5.898566e-06	4.745436e-05
384           	5.763584e-06	5.897713e-06	4.685591e-05
385           	5.929947e-06	5.898504e-06	4.638618e-05
386           	6.159887e-06	5.890712e-06	4.590822e-05
387           	5.794446e-06	5.873828e-06	4.577717e-05
388           	5.707280e-06	5.856980e-06	4.589066e-05
389           	5.550967e-06	5.851654e-06	4.701813e-05
390           	5.878183e-06	5.844580e-06	4.658862e-05
391           	6.206379e-06	5.841596e-06	4.565012e-05
392           	5.920836e-06	5.840940e-06	4.494046e-05
393           	5.864436e-06	5.834128e-06	4.465804e-05
394           	5.754316e-06	5.820936e-06	4.474868e-05
395           	5.571591e-06	5.808715e-06	4.567261e-05
396           	6.101813e-06	5.798845e-06	4.536128e-05
397           	5.788851e-06	5.793834e-06	4.469372e-05
398           	6.233414e-06	5.793659e-06	4.425784e-05
399           	5.968371e-06	5.792838e-06	4.369725e-05
400           	5.970137e-06	5.785300e-06	4.353933e-05
401           	5.702340e-06	5.773360e-06	4.355546e-05
402           	5.594392e-06	5.763834e-06	4.335990e-05
403           	5.688888e-06	5.762557e-06	4.364320e-05
404           	5.861572e-06	5.759555e-06	4.339285e-05
405           	5.548413e-06	5.753266e-06	4.305531e-05
406           	5.398215e-06	5.746017e-06	4.259190e-05
407           	5.428794e-06	5.749140e-06	4.205982e-05
408           	5.354138e-06	5.743108e-06	4.191236e-05
409           	5.307654e-06	5.734132e-06	4.188630e-05
410           	5.248332e-06	5.727710e-06	4.246605e-05
411           	5.558392e-06	5.725797e-06	4.221488e-05
412           	5.442767e-06	5.723899e-06	4.177033e-05
413           	5.670292e-06	5.720557e-06	4.113262e-05
414           	5.710795e-06	5.720328e-06	4.092601e-05
415           	5.367233e-06	5.711687e-06	4.086921e-05
416           	5.346999e-06	5.704044e-06	4.074384e-05
417           	5.506985e-06	5.704071e-06	4.191602e-05
418           	5.473577e-06	5.699984e-06	4.137206e-05
419           	5.581057e-06	5.699726e-06	4.000006e-05
420           	5.473446e-06	5.693175e-06	3.971447e-05
421           	5.190646e-06	5.686339e-06	3.954957e-05
422           	5.316566e-06	5.681972e-06	3.973894e-05
423           	5.526791e-06	5.680253e-06	4.008170e-05
424           	5.458685e-06	5.679481e-06	4.035375e-05
425           	5.500011e-06	5.675223e-06	4.001677e-05
426           	5.408290e-06	5.668425e-06	3.950622e-05
427           	5.638032e-06	5.670205e-06	3.876857e-05
428           	5.392041e-06	5.666293e-06	3.902657e-05
429           	5.371023e-06	5.659928e-06	3.934783e-05
430           	5.517284e-06	5.654360e-06	3.911597e-05
431           	5.409621e-06	5.653460e-06	3.889047e-05
432           	5.793633e-06	5.649144e-06	3.864728e-05
433           	5.262269e-06	5.644603e-06	3.838851e-05
434           	5.497631e-06	5.650502e-06	3.831065e-05
435           	5.375121e-06	5.642512e-06	3.815200e-05
436           	4.901519e-06	5.637959e-06	3.839256e-05
437           	5.118230e-06	5.633436e-06	3.834462e-05
438           	5.219908e-06	5.630211e-06	3.799927e-05
439           	5.554036e-06	5.626373e-06	3.748778e-05
440           	5.171658e-06	5.622930e-06	3.709453e-05
441           	5.325648e-06	5.621288e-06	3.684869e-05
442           	5.366890e-06	5.618756e-06	3.692935e-05
443           	5.228191e-06	5.612894e-06	3.698022e-05
444           	5.030131e-06	5.608530e-06	3.665935e-05
445           	4.913744e-06	5.609907e-06	3.694869e-05
446           	4.876194e-06	5.606342e-06	3.668700e-05
447           	4.858963e-06	5.601128e-06	3.609941e-05
448           	4.660635e-06	5.596775e-06	3.556580e-05
449           	4.698464e-06	5.592738e-06	3.535091e-05
450           	4.899436e-06	5.592285e-06	3.532911e-05
451           	5.147816e-06	5.589212e-06	3.502644e-05
452           	5.010921e-06	5.584395e-06	3.493531e-05
453           	4.675207e-06	5.580731e-06	3.500258e-05
454           	4.896918e-06	5.577271e-06	3.480120e-05
455           	4.949466e-06	5.576074e-06	3.453530e-05
456           	4.603424e-06	5.574772e-06	3.422911e-05
457           	4.572682e-06	5.570606e-06	3.403535e-05
458           	4.455616e-06	5.565393e-06	3.374498e-05
459           	4.926989e-06	5.561656e-06	3.341014e-05
460           	4.785004e-06	5.561126e-06	3.331835e-05
461           	4.567318e-06	5.557581e-06	3.328189e-05
462           	4.587391e-06	5.552987e-06	3.310925e-05
463           	4.548575e-06	5.548526e-06	3.277013e-05
464           	4.566588e-06	5.545163e-06	3.255824e-05
465           	4.634399e-06	5.545140e-06	3.236388e-05
466           	4.567074e-06	5.542159e-06	3.208484e-05
467           	4.783815e-06	5.537424e-06	3.178558e-05
468           	4.640605e-06	5.532796e-06	3.153774e-05
469           	4.718758e-06	5.530408e-06	3.163719e-05
470           	4.840122e-06	5.526399e-06	3.137009e-05
471           	4.635523e-06	5.523233e-06	3.098590e-05
472           	4.796820e-06	5.522110e-06	3.065448e-05
473           	4.596537e-06	5.519038e-06	3.060500e-05
474           	4.971345e-06	5.513163e-06	3.032929e-05
475           	4.675531e-06	5.508421e-06	3.002211e-05
476           	4.669328e-06	5.504868e-06	2.995096e-05
477           	4.747026e-06	5.502359e-06	2.973378e-05
478           	4.989841e-06	5.499786e-06	2.945188e-05
479           	4.860579e-06	5.496816e-06	2.917858e-05
480           	4.688291e-06	5.493926e-06	2.903059e-05
481           	4.692289e-06	5.489375e-06	2.875447e-05
482           	4.753487e-06	5.484680e-06	2.847808e-05
483           	4.658627e-06	5.480496e-06	2.824297e-05
484           	4.803924e-06	5.477718e-06	2.820639e-05
485           	4.755280e-06	5.475694e-06	2.810563e-05
486           	4.708307e-06	5.470939e-06	2.779308e-05
487           	4.890494e-06	5.466617e-06	2.743547e-05
488           	4.721364e-06	5.463237e-06	2.687365e-05
489           	4.728174e-06	5.459353e-06	2.667027e-05
490           	4.742729e-06	5.455746e-06	2.658057e-05
491           	4.583121e-06	5.452786e-06	2.652860e-05
492           	4.508454e-06	5.448244e-06	2.626430e-05
493           	4.677207e-06	5.444269e-06	2.605567e-05
494           	4.519313e-06	5.440685e-06	2.585425e-05
495           	4.688810e-06	5.437217e-06	2.571821e-05
496           	4.415178e-06	5.433184e-06	2.549794e-05
497           	4.507879e-06	5.428999e-06	2.526027e-05
498           	4.552070e-06	5.425712e-06	2.492213e-05
499           	4.554924e-06	5.422053e-06	2.466618e-05
500           	4.533114e-06	5.418663e-06	2.430993e-05
501           	4.599065e-06	5.414512e-06	2.408431e-05
502           	4.526090e-06	5.410254e-06	2.387745e-05
503           	4.438575e-06	5.406471e-06	2.399341e-05
504           	4.529194e-06	5.402552e-06	2.377677e-05
505           	4.415034e-06	5.398455e-06	2.355268e-05
506           	4.250021e-06	5.394858e-06	2.328697e-05
507           	4.048804e-06	5.391387e-06	2.304150e-05
508           	4.103655e-06	5.387237e-06	2.275969e-05
509           	4.170782e-06	5.383067e-06	2.250131e-05
510           	4.118520e-06	5.379799e-06	2.229482e-05
511           	4.267733e-06	5.375749e-06	2.208307e-05
512           	4.149521e-06	5.371007e-06	2.183542e-05
513           	4.202602e-06	5.366728e-06	2.161790e-05
514           	4.060270e-06	5.363177e-06	2.151267e-05
515           	3.997954e-06	5.360103e-06	2.133602e-05
516           	4.015257e-06	5.355823e-06	2.108599e-05
517           	4.155402e-06	5.352074e-06	2.079592e-05
518           	3.986320e-06	5.347525e-06	2.062179e-05
519           	4.092127e-06	5.343430e-06	2.044252e-05
520           	3.972544e-06	5.339706e-06	2.025610e-05
521           	4.008180e-06	5.335395e-06	2.005417e-05
522           	3.888113e-06	5.332399e-06	1.987713e-05
523           	4.328233e-06	5.328221e-06	1.964389e-05
524           	4.327009e-06	5.324603e-06	1.931370e-05
525           	4.212933e-06	5.320308e-06	1.915224e-05
526           	4.113673e-06	5.315680e-06	1.903556e-05
527           	4.078148e-06	5.311531e-06	1.884574e-05
528           	3.871432e-06	5.307590e-06	1.856297e-05
529           	3.981281e-06	5.303609e-06	1.834124e-05
530           	4.176913e-06	5.300163e-06	1.827425e-05
531           	3.895919e-06	5.296099e-06	1.810684e-05
532           	4.041118e-06	5.292351e-06	1.794995e-05
533           	3.821019e-06	5.288289e-06	1.769687e-05
534           	3.946636e-06	5.283940e-06	1.750822e-05
535           	3.970340e-06	5.280008e-06	1.731639e-05
536           	3.908840e-06	5.276187e-06	1.714067e-05
537           	3.763313e-06	5.272520e-06	1.687853e-05
538           	3.812795e-06	5.268385e-06	1.668123e-05
539           	3.800624e-06	5.264425e-06	1.646965e-05
540           	3.863450e-06	5.260318e-06	1.631065e-05
541           	3.818218e-06	5.256091e-06	1.617347e-05
542           	3.997969e-06	5.252455e-06	1.614674e-05
543           	3.911087e-06	5.248699e-06	1.597878e-05
544           	4.071790e-06	5.244857e-06	1.571015e-05
545           	4.016382e-06	5.240736e-06	1.550852e-05
546           	3.839575e-06	5.236919e-06	1.538383e-05
547           	3.827710e-06	5.232923e-06	1.522093e-05
548           	3.914009e-06	5.228887e-06	1.505817e-05
549           	3.998784e-06	5.225489e-06	1.496210e-05
550           	4.095085e-06	5.221788e-06	1.479161e-05
551           	4.012631e-06	5.217527e-06	1.452552e-05
552           	4.105539e-06	5.213466e-06	1.431936e-05
553           	4.021223e-06	5.210311e-06	1.412233e-05