/*--------------------------------*- C++ -*----------------------------------*\
  =========                 |
  \\      /  F ield         | OpenFOAM: The Open Source CFD Toolbox
   \\    /   O peration     | Website:  https://openfoam.org
    \\  /    A nd           | Version:  7
     \\/     M anipulation  |
\*---------------------------------------------------------------------------*/
FoamFile
{
    version     2.0;
    format      ascii;
    class       volScalarField;
    location    "600";
    object      nut;
}
// * * * * * * * * * * * * * * * * * * * * * * * * * * * * * * * * * * * * * //

dimensions      [0 2 -1 0 0 0 0];

internalField   nonuniform List<scalar> 
23023
(
5.63001e-06
5.67494e-06
5.62839e-06
5.7008e-06
5.67426e-06
5.62642e-06
5.72551e-06
5.70128e-06
5.67316e-06
5.62409e-06
5.72701e-06
5.70137e-06
5.67165e-06
5.62142e-06
5.75021e-06
5.72812e-06
5.70106e-06
5.66973e-06
5.61842e-06
5.77086e-06
5.75237e-06
5.72883e-06
5.70035e-06
5.66739e-06
5.61513e-06
5.78969e-06
5.774e-06
5.75414e-06
5.72914e-06
5.69924e-06
5.66464e-06
5.61155e-06
5.80747e-06
5.79377e-06
5.77677e-06
5.75551e-06
5.72905e-06
5.69772e-06
5.66148e-06
5.60775e-06
5.82501e-06
5.81243e-06
5.79748e-06
5.77913e-06
5.75648e-06
5.72855e-06
5.6958e-06
5.65792e-06
5.60377e-06
5.8429e-06
5.83083e-06
5.81703e-06
5.8008e-06
5.7811e-06
5.75704e-06
5.72764e-06
5.69346e-06
5.65399e-06
5.59968e-06
5.84959e-06
5.8363e-06
5.82125e-06
5.80372e-06
5.78266e-06
5.75719e-06
5.72631e-06
5.69072e-06
5.64969e-06
5.59555e-06
5.86895e-06
5.85594e-06
5.84141e-06
5.82509e-06
5.80624e-06
5.78382e-06
5.75692e-06
5.72457e-06
5.68756e-06
5.64509e-06
5.5915e-06
5.88866e-06
5.87622e-06
5.86195e-06
5.84614e-06
5.82853e-06
5.80836e-06
5.78455e-06
5.75624e-06
5.72242e-06
5.68399e-06
5.64022e-06
5.58763e-06
5.90814e-06
5.8969e-06
5.88317e-06
5.86759e-06
5.85049e-06
5.83157e-06
5.81006e-06
5.78487e-06
5.75514e-06
5.71985e-06
5.68002e-06
5.63516e-06
5.5841e-06
5.92666e-06
5.91737e-06
5.90484e-06
5.88977e-06
5.87286e-06
5.85444e-06
5.83419e-06
5.81134e-06
5.78477e-06
5.75362e-06
5.71687e-06
5.67566e-06
5.62999e-06
5.58105e-06
5.93687e-06
5.92633e-06
5.91245e-06
5.89601e-06
5.87775e-06
5.85798e-06
5.8364e-06
5.8122e-06
5.78424e-06
5.75169e-06
5.71347e-06
5.67094e-06
5.62481e-06
5.57863e-06
5.9548e-06
5.94685e-06
5.935e-06
5.91973e-06
5.90188e-06
5.88223e-06
5.86111e-06
5.83819e-06
5.81263e-06
5.78328e-06
5.74933e-06
5.70967e-06
5.66588e-06
5.61974e-06
5.57699e-06
5.97094e-06
5.96574e-06
5.95657e-06
5.94336e-06
5.92665e-06
5.90737e-06
5.8863e-06
5.86381e-06
5.83954e-06
5.81263e-06
5.7819e-06
5.74654e-06
5.70546e-06
5.66052e-06
5.61491e-06
5.57614e-06
5.98277e-06
5.97647e-06
5.96602e-06
5.95139e-06
5.93321e-06
5.91245e-06
5.88996e-06
5.86608e-06
5.84045e-06
5.8122e-06
5.78009e-06
5.74334e-06
5.70086e-06
5.65492e-06
5.61051e-06
5.57608e-06
5.99815e-06
5.99442e-06
5.98697e-06
5.97518e-06
5.95908e-06
5.93938e-06
5.91712e-06
5.89318e-06
5.86791e-06
5.84093e-06
5.81132e-06
5.77785e-06
5.73972e-06
5.69589e-06
5.64914e-06
5.60667e-06
5.57678e-06
6.01247e-06
6.01062e-06
6.00588e-06
5.99722e-06
5.98403e-06
5.96641e-06
5.94516e-06
5.92136e-06
5.89596e-06
5.8693e-06
5.84096e-06
5.81002e-06
5.77519e-06
5.73568e-06
5.69057e-06
5.64326e-06
5.60357e-06
5.5782e-06
6.02633e-06
6.02567e-06
6.02294e-06
6.01713e-06
6.00719e-06
5.99255e-06
5.97337e-06
5.95052e-06
5.92517e-06
5.89829e-06
5.87023e-06
5.84055e-06
5.80827e-06
5.77209e-06
5.73123e-06
5.68494e-06
5.63738e-06
5.60132e-06
5.5803e-06
6.04013e-06
6.04021e-06
6.03875e-06
6.03509e-06
6.02815e-06
6.01688e-06
6.00072e-06
5.97993e-06
5.95545e-06
5.92853e-06
5.90017e-06
5.87071e-06
5.83968e-06
5.80608e-06
5.76857e-06
5.72638e-06
5.67902e-06
5.63161e-06
5.59993e-06
5.58304e-06
6.05467e-06
6.05399e-06
6.05169e-06
6.04704e-06
6.03892e-06
6.02625e-06
6.00853e-06
5.98609e-06
5.95995e-06
5.93143e-06
5.90158e-06
5.87073e-06
5.83837e-06
5.80346e-06
5.76462e-06
5.72115e-06
5.67289e-06
5.62607e-06
5.5994e-06
5.58638e-06
6.06911e-06
6.06913e-06
6.06766e-06
6.06448e-06
6.05878e-06
6.04942e-06
6.0353e-06
6.01596e-06
5.99182e-06
5.96399e-06
5.93387e-06
5.90253e-06
5.87029e-06
5.83661e-06
5.8004e-06
5.76026e-06
5.71556e-06
5.6666e-06
5.62091e-06
5.59971e-06
5.5903e-06
6.08329e-06
6.08428e-06
6.08352e-06
6.08121e-06
6.07709e-06
6.0703e-06
6.05963e-06
6.044e-06
6.023e-06
5.99711e-06
5.96757e-06
5.93583e-06
5.903e-06
5.86938e-06
5.83439e-06
5.7969e-06
5.75548e-06
5.70962e-06
5.66022e-06
5.61627e-06
5.60081e-06
5.59475e-06
6.0992e-06
6.09939e-06
6.09781e-06
6.09462e-06
6.08951e-06
6.08157e-06
6.06954e-06
6.05234e-06
6.02962e-06
6.00195e-06
5.97068e-06
5.93732e-06
5.90299e-06
5.868e-06
5.83172e-06
5.79297e-06
5.7503e-06
5.70338e-06
5.65385e-06
5.61233e-06
5.60267e-06
5.59972e-06
6.11357e-06
6.11506e-06
6.11442e-06
6.11198e-06
6.10787e-06
6.10173e-06
6.09258e-06
6.07912e-06
6.0603e-06
6.0358e-06
6.00633e-06
5.9733e-06
5.93831e-06
5.9025e-06
5.86616e-06
5.8286e-06
5.7886e-06
5.74473e-06
5.69687e-06
5.6476e-06
5.60921e-06
5.60527e-06
5.60517e-06
6.12711e-06
6.13022e-06
6.13087e-06
6.12937e-06
6.12603e-06
6.12095e-06
6.11372e-06
6.1033e-06
6.08836e-06
6.06785e-06
6.04155e-06
6.01023e-06
5.97543e-06
5.9388e-06
5.90152e-06
5.86385e-06
5.82503e-06
5.78382e-06
5.73878e-06
5.69016e-06
5.64157e-06
5.60706e-06
5.60856e-06
5.61108e-06
6.14458e-06
6.14683e-06
6.14661e-06
6.14421e-06
6.13993e-06
6.13383e-06
6.12546e-06
6.11372e-06
6.09724e-06
6.07499e-06
6.04683e-06
6.01364e-06
5.97705e-06
5.9388e-06
5.90006e-06
5.86106e-06
5.82101e-06
5.77861e-06
5.7325e-06
5.68329e-06
5.63591e-06
5.60585e-06
5.61253e-06
5.61743e-06
6.15796e-06
6.16203e-06
6.1634e-06
6.16227e-06
6.15893e-06
6.15366e-06
6.1465e-06
6.13694e-06
6.12381e-06
6.10573e-06
6.0817e-06
6.05164e-06
6.01655e-06
5.97817e-06
5.93829e-06
5.89811e-06
5.85781e-06
5.81655e-06
5.773e-06
5.72589e-06
5.67635e-06
5.63074e-06
5.60561e-06
5.61714e-06
5.62418e-06
6.1702e-06
6.17629e-06
6.17945e-06
6.1799e-06
6.17783e-06
6.17351e-06
6.16722e-06
6.15895e-06
6.14813e-06
6.13356e-06
6.11383e-06
6.08796e-06
6.05596e-06
6.01895e-06
5.97877e-06
5.93728e-06
5.89567e-06
5.8541e-06
5.81166e-06
5.767e-06
5.71901e-06
5.66942e-06
5.62623e-06
5.60628e-06
5.62237e-06
5.63132e-06
6.18947e-06
6.19461e-06
6.19683e-06
6.19633e-06
6.19328e-06
6.18794e-06
6.18057e-06
6.17114e-06
6.15902e-06
6.14295e-06
6.12151e-06
6.09375e-06
6.05978e-06
6.02084e-06
5.97885e-06
5.93575e-06
5.89273e-06
5.84992e-06
5.80632e-06
5.76062e-06
5.71189e-06
5.66259e-06
5.62251e-06
5.60782e-06
5.62818e-06
5.63883e-06
6.20137e-06
6.20875e-06
6.21291e-06
6.21416e-06
6.21267e-06
6.20861e-06
6.20221e-06
6.19372e-06
6.18307e-06
6.16959e-06
6.15197e-06
6.12875e-06
6.09905e-06
6.06308e-06
6.02219e-06
5.9784e-06
5.93371e-06
5.88931e-06
5.84527e-06
5.80057e-06
5.75389e-06
5.70459e-06
5.65599e-06
5.61974e-06
5.61018e-06
5.63456e-06
5.64668e-06
6.21164e-06
6.22167e-06
6.22802e-06
6.23116e-06
6.23141e-06
6.22891e-06
6.22378e-06
6.21628e-06
6.20662e-06
6.19472e-06
6.17982e-06
6.16058e-06
6.13554e-06
6.10387e-06
6.06586e-06
6.023e-06
5.97742e-06
5.93116e-06
5.8854e-06
5.84017e-06
5.79441e-06
5.74684e-06
5.69718e-06
5.64971e-06
5.618e-06
5.61331e-06
5.64147e-06
5.65487e-06
6.23307e-06
6.24199e-06
6.24726e-06
6.24937e-06
6.24858e-06
6.24502e-06
6.2388e-06
6.23015e-06
6.21928e-06
6.20605e-06
6.18968e-06
6.16878e-06
6.14187e-06
6.10817e-06
6.06811e-06
6.02327e-06
5.9759e-06
5.92809e-06
5.88101e-06
5.83463e-06
5.78785e-06
5.73951e-06
5.68974e-06
5.64392e-06
5.61728e-06
5.61718e-06
5.64889e-06
5.66336e-06
6.2425e-06
6.25453e-06
6.2623e-06
6.26647e-06
6.26751e-06
6.26565e-06
6.261e-06
6.25364e-06
6.2438e-06
6.23166e-06
6.21707e-06
6.19917e-06
6.17654e-06
6.1477e-06
6.11195e-06
6.0698e-06
6.02299e-06
5.97385e-06
5.92451e-06
5.87613e-06
5.82864e-06
5.78091e-06
5.73193e-06
5.68234e-06
5.63871e-06
5.61755e-06
5.62174e-06
5.6568e-06
5.67215e-06
6.24946e-06
6.26522e-06
6.27601e-06
6.2826e-06
6.28564e-06
6.28557e-06
6.28261e-06
6.27683e-06
6.26829e-06
6.25721e-06
6.24376e-06
6.22774e-06
6.20826e-06
6.18385e-06
6.15304e-06
6.1152e-06
6.07095e-06
6.02216e-06
5.97125e-06
5.92041e-06
5.87077e-06
5.82222e-06
5.77363e-06
5.72417e-06
5.67509e-06
5.63427e-06
5.61877e-06
5.62696e-06
5.66518e-06
5.68122e-06
6.25332e-06
6.27356e-06
6.28797e-06
6.29748e-06
6.30286e-06
6.30473e-06
6.30354e-06
6.29944e-06
6.29249e-06
6.28273e-06
6.27036e-06
6.25554e-06
6.23805e-06
6.21693e-06
6.19069e-06
6.15787e-06
6.11789e-06
6.07153e-06
6.02076e-06
5.96812e-06
5.9158e-06
5.86494e-06
5.81538e-06
5.76603e-06
5.71628e-06
5.66809e-06
5.63071e-06
5.62089e-06
5.6328e-06
5.674e-06
5.69054e-06
6.2534e-06
6.27896e-06
6.29772e-06
6.31074e-06
6.31893e-06
6.32307e-06
6.32376e-06
6.32139e-06
6.31613e-06
6.30796e-06
6.29694e-06
6.28323e-06
6.267e-06
6.24798e-06
6.22517e-06
6.19704e-06
6.16216e-06
6.12003e-06
6.07154e-06
6.01881e-06
5.96444e-06
5.91068e-06
5.85864e-06
5.80815e-06
5.75816e-06
5.70834e-06
5.66146e-06
5.62819e-06
5.62384e-06
5.63923e-06
5.68325e-06
5.70012e-06
6.24885e-06
6.28073e-06
6.30467e-06
6.32191e-06
6.33351e-06
6.34036e-06
6.34322e-06
6.34268e-06
6.33913e-06
6.33265e-06
6.32324e-06
6.3109e-06
6.29581e-06
6.27811e-06
6.2575e-06
6.23295e-06
6.20289e-06
6.16591e-06
6.1216e-06
6.07098e-06
6.01628e-06
5.96022e-06
5.90506e-06
5.85189e-06
5.80054e-06
5.75004e-06
5.70042e-06
5.65533e-06
5.62675e-06
5.62759e-06
5.64622e-06
5.69289e-06
5.70992e-06
6.23868e-06
6.27809e-06
6.30819e-06
6.33046e-06
6.34613e-06
6.35626e-06
6.36173e-06
6.36329e-06
6.36151e-06
6.35672e-06
6.34901e-06
6.3383e-06
6.3246e-06
6.30807e-06
6.28885e-06
6.26661e-06
6.24026e-06
6.20822e-06
6.16911e-06
6.1226e-06
6.06983e-06
6.01319e-06
5.95546e-06
5.89893e-06
5.8447e-06
5.79259e-06
5.74175e-06
5.69262e-06
5.64982e-06
5.62639e-06
5.63209e-06
5.65374e-06
5.70292e-06
5.71994e-06
6.27007e-06
6.30749e-06
6.33574e-06
6.35629e-06
6.37036e-06
6.37899e-06
6.38305e-06
6.38327e-06
6.38021e-06
6.37416e-06
6.36516e-06
6.35312e-06
6.33801e-06
6.32e-06
6.29921e-06
6.27528e-06
6.24709e-06
6.21302e-06
6.17174e-06
6.123e-06
6.0681e-06
6.00953e-06
5.95016e-06
5.89232e-06
5.83709e-06
5.78433e-06
5.73335e-06
5.68503e-06
5.64508e-06
5.62706e-06
5.63729e-06
5.66176e-06
5.71332e-06
5.73016e-06
6.25555e-06
6.30167e-06
6.33703e-06
6.36337e-06
6.38215e-06
6.39457e-06
6.40166e-06
6.40428e-06
6.40315e-06
6.39878e-06
6.39143e-06
6.38112e-06
6.36769e-06
6.35112e-06
6.33157e-06
6.30916e-06
6.28349e-06
6.2534e-06
6.21727e-06
6.17379e-06
6.12282e-06
6.06578e-06
6.0053e-06
5.94432e-06
5.88522e-06
5.82908e-06
5.77581e-06
5.72489e-06
5.67777e-06
5.64126e-06
5.62871e-06
5.64317e-06
5.67026e-06
5.72405e-06
5.74057e-06
6.2332e-06
6.28967e-06
6.33347e-06
6.36669e-06
6.39106e-06
6.40801e-06
6.41876e-06
6.42428e-06
6.42543e-06
6.4229e-06
6.41719e-06
6.40852e-06
6.39684e-06
6.38198e-06
6.36391e-06
6.34277e-06
6.31868e-06
6.29122e-06
6.2592e-06
6.22096e-06
6.17525e-06
6.12203e-06
6.06287e-06
6.00049e-06
5.93795e-06
5.87765e-06
5.82069e-06
5.76706e-06
5.71647e-06
5.67095e-06
5.63847e-06
5.63129e-06
5.64967e-06
5.67921e-06
5.73512e-06
5.75115e-06
6.27024e-06
6.32406e-06
6.36543e-06
6.39643e-06
6.41878e-06
6.43387e-06
6.44289e-06
6.44682e-06
6.44647e-06
6.44252e-06
6.43544e-06
6.4254e-06
6.41232e-06
6.39599e-06
6.37635e-06
6.35358e-06
6.32776e-06
6.29847e-06
6.26446e-06
6.22408e-06
6.17611e-06
6.12064e-06
6.05936e-06
5.99512e-06
5.93106e-06
5.86962e-06
5.81197e-06
5.75816e-06
5.70818e-06
5.66471e-06
5.63682e-06
5.63472e-06
5.65678e-06
5.68858e-06
5.7465e-06
5.7619e-06
6.24196e-06
6.30764e-06
6.35867e-06
6.39752e-06
6.42624e-06
6.44651e-06
6.4597e-06
6.46697e-06
6.46926e-06
6.46738e-06
6.46199e-06
6.45351e-06
6.44207e-06
6.42754e-06
6.40968e-06
6.38844e-06
6.36397e-06
6.33638e-06
6.3052e-06
6.26916e-06
6.2266e-06
6.17637e-06
6.11864e-06
6.05525e-06
5.98918e-06
5.92365e-06
5.86117e-06
5.80295e-06
5.74917e-06
5.70011e-06
5.65915e-06
5.63627e-06
5.63897e-06
5.66445e-06
5.69835e-06
5.75817e-06
5.7728e-06
6.20367e-06
6.28293e-06
6.34537e-06
6.39347e-06
6.42972e-06
6.4561e-06
6.47424e-06
6.48549e-06
6.49096e-06
6.49159e-06
6.48816e-06
6.4813e-06
6.47138e-06
6.4585e-06
6.44248e-06
6.42305e-06
6.40014e-06
6.37393e-06
6.34452e-06
6.3114e-06
6.2733e-06
6.22854e-06
6.17601e-06
6.11602e-06
6.05054e-06
5.98268e-06
5.91574e-06
5.85231e-06
5.79369e-06
5.74017e-06
5.69238e-06
5.65444e-06
5.63683e-06
5.64398e-06
5.67265e-06
5.70851e-06
5.77012e-06
5.78384e-06
6.15822e-06
6.24878e-06
6.32437e-06
6.38337e-06
6.42843e-06
6.46199e-06
6.48597e-06
6.50194e-06
6.5112e-06
6.51486e-06
6.5138e-06
6.50879e-06
6.50042e-06
6.48904e-06
6.47468e-06
6.45712e-06
6.43606e-06
6.41144e-06
6.38344e-06
6.35215e-06
6.31707e-06
6.27686e-06
6.22986e-06
6.17503e-06
6.11279e-06
6.04524e-06
5.97562e-06
5.90734e-06
5.84308e-06
5.78423e-06
5.73124e-06
5.6851e-06
5.65071e-06
5.63843e-06
5.64971e-06
5.68135e-06
5.71904e-06
5.78234e-06
5.795e-06
6.13333e-06
6.20746e-06
6.29469e-06
6.36622e-06
6.42159e-06
6.46352e-06
6.49432e-06
6.51584e-06
6.52959e-06
6.53684e-06
6.53864e-06
6.53587e-06
6.52925e-06
6.51935e-06
6.50646e-06
6.49059e-06
6.47144e-06
6.44871e-06
6.42232e-06
6.39248e-06
6.35927e-06
6.32217e-06
6.27982e-06
6.23057e-06
6.17342e-06
6.10893e-06
6.03934e-06
5.96801e-06
5.89846e-06
5.83351e-06
5.77464e-06
5.72247e-06
5.67839e-06
5.64808e-06
5.64099e-06
5.65611e-06
5.69054e-06
5.7299e-06
5.7948e-06
5.80628e-06
6.23337e-06
6.18404e-06
6.25819e-06
6.34128e-06
6.40842e-06
6.46e-06
6.49869e-06
6.52667e-06
6.54568e-06
6.55718e-06
6.56238e-06
6.5623e-06
6.55778e-06
6.54953e-06
6.53806e-06
6.52364e-06
6.50621e-06
6.48543e-06
6.46097e-06
6.43276e-06
6.40102e-06
6.36585e-06
6.3267e-06
6.28218e-06
6.23065e-06
6.17118e-06
6.10445e-06
6.03284e-06
5.95986e-06
5.88915e-06
5.82366e-06
5.76501e-06
5.71397e-06
5.67239e-06
5.64662e-06
5.64445e-06
5.66315e-06
5.70017e-06
5.74109e-06
5.8075e-06
5.81766e-06
6.55251e-06
6.27982e-06
6.23769e-06
6.31027e-06
6.38845e-06
6.4509e-06
6.49856e-06
6.53392e-06
6.55902e-06
6.57548e-06
6.58468e-06
6.5878e-06
6.58581e-06
6.57953e-06
6.56961e-06
6.55655e-06
6.54056e-06
6.52152e-06
6.49906e-06
6.47282e-06
6.44274e-06
6.40906e-06
6.37189e-06
6.33064e-06
6.28393e-06
6.23009e-06
6.1683e-06
6.09935e-06
6.02576e-06
5.95117e-06
5.87941e-06
5.81358e-06
5.75541e-06
5.70587e-06
5.66723e-06
5.64632e-06
5.64877e-06
5.67079e-06
5.71024e-06
5.75259e-06
5.82042e-06
5.82913e-06
6.59833e-06
6.59822e-06
6.33135e-06
6.29416e-06
6.36351e-06
6.43611e-06
6.49362e-06
6.53722e-06
6.56919e-06
6.59134e-06
6.60521e-06
6.61208e-06
6.61309e-06
6.60916e-06
6.60108e-06
6.58948e-06
6.57479e-06
6.55719e-06
6.5365e-06
6.51231e-06
6.48424e-06
6.45224e-06
6.41657e-06
6.37735e-06
6.33398e-06
6.28504e-06
6.2289e-06
6.16479e-06
6.09363e-06
6.01809e-06
5.94198e-06
5.8693e-06
5.80333e-06
5.74594e-06
5.69826e-06
5.66305e-06
5.64714e-06
5.65388e-06
5.67899e-06
5.7207e-06
5.76438e-06
5.83355e-06
5.84069e-06
6.49604e-06
6.66055e-06
6.64894e-06
6.38792e-06
6.35324e-06
6.41776e-06
6.48416e-06
6.5365e-06
6.57595e-06
6.60445e-06
6.62362e-06
6.63485e-06
6.63936e-06
6.63822e-06
6.63233e-06
6.62244e-06
6.60912e-06
6.59278e-06
6.57353e-06
6.55114e-06
6.52517e-06
6.49521e-06
6.46124e-06
6.42354e-06
6.38223e-06
6.33671e-06
6.28552e-06
6.22705e-06
6.16063e-06
6.08728e-06
6.00984e-06
5.93229e-06
5.85886e-06
5.793e-06
5.7367e-06
5.69129e-06
5.65996e-06
5.64903e-06
5.65973e-06
5.68773e-06
5.73155e-06
5.77645e-06
5.84687e-06
5.85231e-06
6.37972e-06
6.55698e-06
6.72839e-06
6.70395e-06
6.44931e-06
6.4147e-06
6.47286e-06
6.53251e-06
6.57951e-06
6.61471e-06
6.63969e-06
6.65583e-06
6.66438e-06
6.6665e-06
6.66319e-06
6.65531e-06
6.64357e-06
6.62851e-06
6.61048e-06
6.58954e-06
6.56542e-06
6.53761e-06
6.50572e-06
6.46972e-06
6.42995e-06
6.38652e-06
6.33881e-06
6.28535e-06
6.22456e-06
6.15582e-06
6.08031e-06
6.00102e-06
5.92214e-06
5.84813e-06
5.78265e-06
5.72781e-06
5.68509e-06
5.6581e-06
5.6519e-06
5.66629e-06
5.69696e-06
5.74276e-06
5.78878e-06
5.86037e-06
5.86399e-06
6.23362e-06
6.43555e-06
6.62054e-06
6.80059e-06
6.7633e-06
6.51594e-06
6.47835e-06
6.52863e-06
6.58109e-06
6.62259e-06
6.65348e-06
6.67488e-06
6.68794e-06
6.69378e-06
6.69347e-06
6.68797e-06
6.67809e-06
6.66448e-06
6.64764e-06
6.62789e-06
6.60522e-06
6.57931e-06
6.54962e-06
6.51573e-06
6.47767e-06
6.43577e-06
6.39019e-06
6.34027e-06
6.28453e-06
6.22141e-06
6.15037e-06
6.07273e-06
5.99164e-06
5.91155e-06
5.83718e-06
5.7724e-06
5.71938e-06
5.67979e-06
5.65743e-06
5.65569e-06
5.6735e-06
5.70667e-06
5.75431e-06
5.80135e-06
5.87404e-06
5.87572e-06
6.07956e-06
6.28337e-06
6.4942e-06
6.68643e-06
6.87829e-06
6.83246e-06
6.58879e-06
6.54396e-06
6.58493e-06
6.62982e-06
6.6657e-06
6.69221e-06
6.70999e-06
6.71993e-06
6.72303e-06
6.72027e-06
6.71255e-06
6.70063e-06
6.68513e-06
6.66649e-06
6.64498e-06
6.62054e-06
6.5928e-06
6.56117e-06
6.52524e-06
6.48506e-06
6.441e-06
6.39323e-06
6.34108e-06
6.28305e-06
6.2176e-06
6.14428e-06
6.06453e-06
5.98173e-06
5.90057e-06
5.82609e-06
5.76233e-06
5.71156e-06
5.67555e-06
5.65795e-06
5.66035e-06
5.68133e-06
5.71682e-06
5.76619e-06
5.81416e-06
5.88787e-06
5.8875e-06
5.9455e-06
6.12294e-06
6.33543e-06
6.55591e-06
6.75556e-06
6.96343e-06
6.91839e-06
6.6681e-06
6.61129e-06
6.64161e-06
6.67863e-06
6.7088e-06
6.73088e-06
6.74499e-06
6.75178e-06
6.75211e-06
6.74688e-06
6.73692e-06
6.72294e-06
6.70552e-06
6.68505e-06
6.66174e-06
6.63549e-06
6.60586e-06
6.57224e-06
6.53422e-06
6.49187e-06
6.44562e-06
6.39563e-06
6.34124e-06
6.28091e-06
6.21312e-06
6.13753e-06
6.05573e-06
5.9713e-06
5.88925e-06
5.81493e-06
5.75258e-06
5.70447e-06
5.67246e-06
5.65959e-06
5.66581e-06
5.68973e-06
5.72739e-06
5.77837e-06
5.82718e-06
5.90184e-06
5.89933e-06
5.84279e-06
5.98191e-06
6.16836e-06
6.38993e-06
6.62081e-06
6.82947e-06
7.05641e-06
7.02127e-06
6.75448e-06
6.68006e-06
6.69853e-06
6.72744e-06
6.75185e-06
6.76945e-06
6.77986e-06
6.78347e-06
6.781e-06
6.77327e-06
6.76105e-06
6.74499e-06
6.72562e-06
6.70329e-06
6.67816e-06
6.65005e-06
6.61848e-06
6.58281e-06
6.54265e-06
6.49809e-06
6.44961e-06
6.39739e-06
6.34072e-06
6.27809e-06
6.20799e-06
6.13015e-06
6.04634e-06
5.96038e-06
5.87763e-06
5.8038e-06
5.74326e-06
5.69825e-06
5.67066e-06
5.66227e-06
5.67203e-06
5.69868e-06
5.73835e-06
5.79084e-06
5.84041e-06
5.91598e-06
5.91109e-06
5.76401e-06
5.87278e-06
6.02016e-06
6.21593e-06
6.44708e-06
6.68902e-06
6.90904e-06
7.16016e-06
7.14832e-06
6.84769e-06
6.74996e-06
6.75554e-06
6.77621e-06
6.79481e-06
6.8079e-06
6.81458e-06
6.81497e-06
6.80968e-06
6.79943e-06
6.78493e-06
6.76677e-06
6.74543e-06
6.72121e-06
6.6942e-06
6.66419e-06
6.63063e-06
6.59287e-06
6.55051e-06
6.50371e-06
6.45296e-06
6.39848e-06
6.33954e-06
6.2746e-06
6.20218e-06
6.12213e-06
6.03636e-06
5.94899e-06
5.86579e-06
5.7928e-06
5.7345e-06
5.69307e-06
5.67009e-06
5.66592e-06
5.67895e-06
5.70814e-06
5.7497e-06
5.80359e-06
5.85388e-06
5.93016e-06
5.92279e-06
5.69805e-06
5.78921e-06
5.9043e-06
6.06033e-06
6.26575e-06
6.50711e-06
6.76088e-06
6.99445e-06
7.28009e-06
7.29579e-06
6.94504e-06
6.82054e-06
6.81254e-06
6.82488e-06
6.83764e-06
6.8462e-06
6.84911e-06
6.84627e-06
6.83814e-06
6.82535e-06
6.80854e-06
6.78826e-06
6.76492e-06
6.73877e-06
6.70986e-06
6.67789e-06
6.64229e-06
6.60238e-06
6.55778e-06
6.50869e-06
6.45566e-06
6.3989e-06
6.33767e-06
6.27042e-06
6.19571e-06
6.11347e-06
6.02582e-06
5.93719e-06
5.8538e-06
5.78204e-06
5.72645e-06
5.68903e-06
5.67076e-06
5.67047e-06
5.68653e-06
5.71808e-06
5.76139e-06
5.81664e-06
5.86744e-06
5.94434e-06
5.93451e-06
5.63999e-06
5.7199e-06
5.81561e-06
5.93744e-06
6.10251e-06
6.31793e-06
6.5703e-06
6.83687e-06
7.08628e-06
7.41332e-06
7.43671e-06
7.05002e-06
6.89167e-06
6.86939e-06
6.8734e-06
6.88032e-06
6.88432e-06
6.88345e-06
6.87735e-06
6.86635e-06
6.851e-06
6.83187e-06
6.80944e-06
6.78408e-06
6.75597e-06
6.7251e-06
6.69114e-06
6.65345e-06
6.61134e-06
6.56445e-06
6.51304e-06
6.45769e-06
6.39863e-06
6.33512e-06
6.26557e-06
6.18858e-06
6.10419e-06
6.01473e-06
5.92502e-06
5.84175e-06
5.77165e-06
5.71926e-06
5.6863e-06
5.67257e-06
5.67587e-06
5.69473e-06
5.72847e-06
5.77346e-06
5.82985e-06
5.88108e-06
5.95864e-06
5.9462e-06
5.65914e-06
5.7427e-06
5.84326e-06
5.97227e-06
6.14677e-06
6.37263e-06
6.63693e-06
6.91763e-06
7.18403e-06
7.52309e-06
7.66461e-06
7.16963e-06
6.96321e-06
6.92602e-06
6.92172e-06
6.9228e-06
6.92223e-06
6.91756e-06
6.90819e-06
6.8943e-06
6.87637e-06
6.8549e-06
6.8303e-06
6.80289e-06
6.77279e-06
6.73992e-06
6.70391e-06
6.66408e-06
6.61972e-06
6.5705e-06
6.51673e-06
6.45904e-06
6.39768e-06
6.33188e-06
6.26003e-06
6.18078e-06
6.09428e-06
6.00312e-06
5.91253e-06
5.82973e-06
5.76178e-06
5.71308e-06
5.68489e-06
5.67546e-06
5.68207e-06
5.7035e-06
5.73933e-06
5.78577e-06
5.8432e-06
5.89489e-06
5.97301e-06
5.95785e-06
5.6069e-06
5.67912e-06
5.76651e-06
5.87225e-06
6.00887e-06
6.19323e-06
6.43004e-06
6.70733e-06
7.00408e-06
7.28093e-06
7.83437e-06
8.03353e-06
7.30366e-06
7.03489e-06
6.98232e-06
6.9698e-06
6.96506e-06
6.95992e-06
6.95142e-06
6.93876e-06
6.92197e-06
6.90145e-06
6.87761e-06
6.85082e-06
6.82133e-06
6.7892e-06
6.7543e-06
6.71619e-06
6.67417e-06
6.62751e-06
6.57591e-06
6.51975e-06
6.4597e-06
6.39603e-06
6.32794e-06
6.25381e-06
6.17233e-06
6.08377e-06
5.99102e-06
5.8998e-06
5.81786e-06
5.75254e-06
5.70805e-06
5.68479e-06
5.67934e-06
5.68899e-06
5.71286e-06
5.75053e-06
5.79829e-06
5.85677e-06
5.90882e-06
5.98742e-06
5.96945e-06
5.62434e-06
5.69996e-06
5.79137e-06
5.90263e-06
6.04733e-06
6.24199e-06
6.49037e-06
6.78188e-06
7.09867e-06
7.39797e-06
8.31779e-06
8.49576e-06
7.44997e-06
7.10643e-06
7.03823e-06
7.01762e-06
7.00708e-06
6.99734e-06
6.98502e-06
6.96904e-06
6.94934e-06
6.9262e-06
6.89999e-06
6.87099e-06
6.83938e-06
6.80519e-06
6.7682e-06
6.72795e-06
6.68368e-06
6.63467e-06
6.58066e-06
6.52208e-06
6.45966e-06
6.39367e-06
6.3233e-06
6.24691e-06
6.16322e-06
6.07267e-06
5.97847e-06
5.88688e-06
5.80625e-06
5.74411e-06
5.70431e-06
5.68594e-06
5.68415e-06
5.69664e-06
5.72267e-06
5.76201e-06
5.8111e-06
5.87053e-06
5.92286e-06
6.00185e-06
5.98098e-06
5.57973e-06
5.64256e-06
5.72169e-06
5.81731e-06
5.93449e-06
6.08776e-06
6.29318e-06
6.5539e-06
6.86105e-06
7.19904e-06
7.56456e-06
8.90351e-06
9.03839e-06
7.6075e-06
7.17755e-06
7.09368e-06
7.06512e-06
7.04881e-06
7.03449e-06
7.01832e-06
6.99902e-06
6.9764e-06
6.95063e-06
6.92202e-06
6.89078e-06
6.85703e-06
6.82073e-06
6.78162e-06
6.73917e-06
6.69261e-06
6.6412e-06
6.58474e-06
6.52372e-06
6.45891e-06
6.39061e-06
6.31796e-06
6.23932e-06
6.15346e-06
6.061e-06
5.96551e-06
5.87388e-06
5.79503e-06
5.73663e-06
5.702e-06
5.68826e-06
5.68987e-06
5.70489e-06
5.73287e-06
5.77385e-06
5.82414e-06
5.88444e-06
5.93699e-06
6.0163e-06
5.99243e-06
5.59565e-06
5.66158e-06
5.74435e-06
5.8444e-06
5.9679e-06
6.13023e-06
6.34695e-06
6.62092e-06
6.94579e-06
7.29766e-06
7.78874e-06
9.60133e-06
9.67506e-06
7.77541e-06
7.24797e-06
7.14863e-06
7.11228e-06
7.09024e-06
7.07134e-06
7.05132e-06
7.02869e-06
7.00312e-06
6.97471e-06
6.94368e-06
6.91018e-06
6.87426e-06
6.83581e-06
6.79453e-06
6.74984e-06
6.70092e-06
6.64708e-06
6.58814e-06
6.52464e-06
6.45745e-06
6.38682e-06
6.31191e-06
6.23105e-06
6.14306e-06
6.04877e-06
5.9522e-06
5.8609e-06
5.78436e-06
5.73027e-06
5.70106e-06
5.6917e-06
5.69636e-06
5.71366e-06
5.74352e-06
5.786e-06
5.83741e-06
5.8985e-06
5.95119e-06
6.03076e-06
6.00381e-06
5.61229e-06
5.68142e-06
5.76795e-06
5.8727e-06
6.00295e-06
6.17486e-06
6.40346e-06
6.69179e-06
7.03714e-06
7.39799e-06
8.08072e-06
1.04357e-05
1.04216e-05
7.95299e-06
7.31744e-06
7.20302e-06
7.15907e-06
7.13134e-06
7.10786e-06
7.08398e-06
7.05801e-06
7.02949e-06
6.99842e-06
6.96496e-06
6.92917e-06
6.89104e-06
6.85041e-06
6.80691e-06
6.75992e-06
6.70861e-06
6.65229e-06
6.59082e-06
6.52485e-06
6.45525e-06
6.38232e-06
6.30517e-06
6.22211e-06
6.13204e-06
6.03603e-06
5.9386e-06
5.84803e-06
5.77436e-06
5.72519e-06
5.70153e-06
5.69614e-06
5.70354e-06
5.72299e-06
5.75457e-06
5.79843e-06
5.85087e-06
5.91268e-06
5.96546e-06
6.04521e-06
6.0151e-06
5.62967e-06
5.70211e-06
5.79253e-06
5.90226e-06
6.03974e-06
6.22178e-06
6.46295e-06
6.76694e-06
7.13603e-06
7.51708e-06
8.44747e-06
1.14385e-05
1.12983e-05
8.13961e-06
7.38576e-06
7.25683e-06
7.20547e-06
7.17208e-06
7.14404e-06
7.11629e-06
7.08697e-06
7.05549e-06
7.02176e-06
6.98584e-06
6.94774e-06
6.90737e-06
6.8645e-06
6.81874e-06
6.7694e-06
6.71565e-06
6.65681e-06
6.5928e-06
6.52432e-06
6.45233e-06
6.3771e-06
6.29772e-06
6.21249e-06
6.1204e-06
6.02279e-06
5.92479e-06
5.8354e-06
5.76521e-06
5.72154e-06
5.70328e-06
5.70146e-06
5.71142e-06
5.73282e-06
5.76597e-06
5.81112e-06
5.86451e-06
5.92698e-06
5.97979e-06
6.05964e-06
6.0263e-06
5.58928e-06
5.64781e-06
5.72366e-06
5.81814e-06
5.93316e-06
6.07836e-06
6.27112e-06
6.52565e-06
6.84679e-06
7.24293e-06
7.66334e-06
8.8957e-06
1.26569e-05
1.23244e-05
8.3344e-06
7.45277e-06
7.31003e-06
7.25144e-06
7.21245e-06
7.17984e-06
7.14824e-06
7.11556e-06
7.0811e-06
7.04469e-06
7.0063e-06
6.96585e-06
6.92321e-06
6.87807e-06
6.82999e-06
6.77827e-06
6.72203e-06
6.66062e-06
6.59404e-06
6.52306e-06
6.44867e-06
6.37116e-06
6.28957e-06
6.20221e-06
6.10816e-06
6.00912e-06
5.91083e-06
5.82314e-06
5.75704e-06
5.71943e-06
5.70618e-06
5.70767e-06
5.71993e-06
5.74311e-06
5.77771e-06
5.82405e-06
5.87832e-06
5.94138e-06
5.99416e-06
6.07405e-06
6.03741e-06
5.60538e-06
5.66672e-06
5.7461e-06
5.84481e-06
5.96546e-06
6.11891e-06
6.32302e-06
6.59188e-06
6.93205e-06
7.35573e-06
7.8358e-06
9.45027e-06
1.41367e-05
1.35142e-05
8.53587e-06
7.51834e-06
7.3626e-06
7.29697e-06
7.25241e-06
7.21526e-06
7.17979e-06
7.14375e-06
7.10631e-06
7.06721e-06
7.02632e-06
6.98351e-06
6.93855e-06
6.8911e-06
6.84066e-06
6.78649e-06
6.72772e-06
6.66371e-06
6.59454e-06
6.52104e-06
6.44426e-06
6.36449e-06
6.28072e-06
6.19127e-06
6.09535e-06
5.99505e-06
5.89685e-06
5.81134e-06
5.75012e-06
5.71875e-06
5.71019e-06
5.71467e-06
5.72902e-06
5.75382e-06
5.78975e-06
5.8372e-06
5.89228e-06
5.95588e-06
6.00858e-06
6.08843e-06
6.0484e-06
5.57206e-06
5.62217e-06
5.68644e-06
5.76945e-06
5.87259e-06
5.99925e-06
6.1615e-06
6.37766e-06
6.66198e-06
7.02401e-06
7.47161e-06
8.04491e-06
1.0141e-05
1.59185e-05
1.48737e-05
8.74174e-06
7.58241e-06
7.41454e-06
7.34202e-06
7.29195e-06
7.25026e-06
7.21093e-06
7.17153e-06
7.1311e-06
7.08929e-06
7.04588e-06
7.00067e-06
6.95336e-06
6.90356e-06
6.85071e-06
6.79405e-06
6.7327e-06
6.66607e-06
6.59428e-06
6.51827e-06
6.43911e-06
6.35709e-06
6.27117e-06
6.17968e-06
6.08199e-06
5.98066e-06
5.88285e-06
5.80028e-06
5.74457e-06
5.71951e-06
5.71523e-06
5.72242e-06
5.73865e-06
5.76493e-06
5.80208e-06
5.85055e-06
5.90639e-06
5.97047e-06
6.02302e-06
6.10277e-06
6.05928e-06
5.58732e-06
5.63969e-06
5.70698e-06
5.79375e-06
5.90152e-06
6.03461e-06
6.20627e-06
6.43524e-06
6.73637e-06
7.12375e-06
7.59489e-06
8.30784e-06
1.09948e-05
1.80392e-05
1.63957e-05
8.94909e-06
7.64492e-06
7.46583e-06
7.38658e-06
7.33103e-06
7.28483e-06
7.24165e-06
7.19888e-06
7.15546e-06
7.11092e-06
7.06498e-06
7.01734e-06
6.96764e-06
6.91543e-06
6.86012e-06
6.80093e-06
6.73697e-06
6.66768e-06
6.59327e-06
6.51473e-06
6.43322e-06
6.34897e-06
6.26094e-06
6.16746e-06
6.06814e-06
5.96591e-06
5.86909e-06
5.79013e-06
5.74044e-06
5.72161e-06
5.72122e-06
5.73085e-06
5.74877e-06
5.77639e-06
5.81467e-06
5.86409e-06
5.92062e-06
5.98513e-06
6.03749e-06
6.11705e-06
6.07004e-06
5.60325e-06
5.65795e-06
5.72836e-06
5.81902e-06
5.93167e-06
6.07163e-06
6.25335e-06
6.49603e-06
6.81553e-06
7.23205e-06
7.7352e-06
8.63467e-06
1.20469e-05
2.05191e-05
1.80556e-05
9.15397e-06
7.7059e-06
7.51648e-06
7.43063e-06
7.36966e-06
7.31895e-06
7.27192e-06
7.22579e-06
7.17936e-06
7.13208e-06
7.08358e-06
7.03348e-06
6.98135e-06
6.92669e-06
6.86888e-06
6.80711e-06
6.7405e-06
6.66853e-06
6.59148e-06
6.51043e-06
6.42657e-06
6.34013e-06
6.25002e-06
6.15465e-06
6.0537e-06
5.95101e-06
5.85577e-06
5.78097e-06
5.73794e-06
5.72495e-06
5.72808e-06
5.73991e-06
5.75935e-06
5.78818e-06
5.8275e-06
5.87781e-06
5.93498e-06
5.99985e-06
6.05197e-06
6.13128e-06
6.08068e-06
5.61984e-06
5.67696e-06
5.7506e-06
5.84529e-06
5.96309e-06
6.11042e-06
6.30289e-06
6.5603e-06
6.9e-06
7.34991e-06
7.89747e-06
9.03659e-06
1.33408e-05
2.33509e-05
1.98058e-05
9.35202e-06
7.76538e-06
7.56648e-06
7.47414e-06
7.40779e-06
7.3526e-06
7.30172e-06
7.25222e-06
7.20279e-06
7.15276e-06
7.10167e-06
7.04907e-06
6.99447e-06
6.93732e-06
6.87697e-06
6.81257e-06
6.74327e-06
6.6686e-06
6.5889e-06
6.50536e-06
6.41917e-06
6.33056e-06
6.23846e-06
6.14113e-06
6.03887e-06
5.93618e-06
5.8429e-06
5.77295e-06
5.73699e-06
5.72944e-06
5.73576e-06
5.74955e-06
5.77036e-06
5.80028e-06
5.84055e-06
5.89169e-06
5.94945e-06
6.01464e-06
6.06645e-06
6.14543e-06
6.09119e-06
5.63713e-06
5.69675e-06
5.77373e-06
5.8726e-06
5.99585e-06
6.15109e-06
6.35508e-06
6.6284e-06
6.99056e-06
7.47745e-06
8.08309e-06
9.53514e-06
1.49185e-05
2.64907e-05
2.15785e-05
9.5383e-06
7.82343e-06
7.61584e-06
7.51709e-06
7.4454e-06
7.38575e-06
7.33105e-06
7.27818e-06
7.22572e-06
7.17293e-06
7.11923e-06
7.0641e-06
7.00699e-06
6.9473e-06
6.88435e-06
6.8173e-06
6.74528e-06
6.66788e-06
6.58554e-06
6.49951e-06
6.41101e-06
6.32032e-06
6.22611e-06
6.12706e-06
6.02384e-06
5.92135e-06
5.83065e-06
5.76626e-06
5.73756e-06
5.73499e-06
5.74419e-06
5.75972e-06
5.78174e-06
5.81266e-06
5.85382e-06
5.90571e-06
5.96402e-06
6.02947e-06
6.08093e-06
6.15951e-06
6.10156e-06
5.65514e-06
5.71734e-06
5.79776e-06
5.90097e-06
6.03003e-06
6.19375e-06
6.4101e-06
6.70073e-06
7.08839e-06
7.61395e-06
8.29932e-06
1.01565e-05
1.68154e-05
2.98544e-05
2.32871e-05
9.70804e-06
7.88012e-06
7.66454e-06
7.55947e-06
7.48249e-06
7.4184e-06
7.35987e-06
7.30363e-06
7.24815e-06
7.19257e-06
7.13624e-06
7.07855e-06
7.01888e-06
6.95661e-06
6.89103e-06
6.82127e-06
6.7465e-06
6.66637e-06
6.58139e-06
6.49287e-06
6.40214e-06
6.30924e-06
6.21313e-06
6.11265e-06
6.00852e-06
5.90667e-06
5.81917e-06
5.76103e-06
5.73958e-06
5.74154e-06
5.75332e-06
5.7704e-06
5.79349e-06
5.8253e-06
5.86727e-06
5.91988e-06
5.97868e-06
6.04434e-06
6.0954e-06
6.1735e-06
6.11178e-06
5.67388e-06
5.73875e-06
5.82272e-06
5.93047e-06
6.0657e-06
6.23855e-06
6.46821e-06
6.77775e-06
7.19476e-06
7.76074e-06
8.55942e-06
1.09266e-05
1.90555e-05
3.3321e-05
2.48377e-05
9.85688e-06
7.93556e-06
7.7126e-06
7.60124e-06
7.51903e-06
7.45052e-06
7.38817e-06
7.32857e-06
7.27006e-06
7.21167e-06
7.15268e-06
7.09238e-06
7.03012e-06
6.96523e-06
6.89696e-06
6.82447e-06
6.74693e-06
6.66405e-06