/*--------------------------------*- C++ -*----------------------------------*\
  =========                 |
  \\      /  F ield         | OpenFOAM: The Open Source CFD Toolbox
   \\    /   O peration     | Website:  https://openfoam.org
    \\  /    A nd           | Version:  7
     \\/     M anipulation  |
\*---------------------------------------------------------------------------*/
FoamFile
{
    version     2.0;
    format      ascii;
    class       volScalarField;
    location    "600";
    object      nuTilda;
}
// * * * * * * * * * * * * * * * * * * * * * * * * * * * * * * * * * * * * * //

dimensions      [0 2 -1 0 0 0 0];

internalField   nonuniform List<scalar> 
23023
(
3.51013e-05
3.51804e-05
3.50991e-05
3.52247e-05
3.51799e-05
3.50962e-05
3.52671e-05
3.52263e-05
3.51788e-05
3.50927e-05
3.52705e-05
3.52272e-05
3.51769e-05
3.50885e-05
3.531e-05
3.52732e-05
3.52274e-05
3.51742e-05
3.50838e-05
3.53449e-05
3.53145e-05
3.52752e-05
3.52269e-05
3.51709e-05
3.50784e-05
3.53768e-05
3.53512e-05
3.53183e-05
3.52765e-05
3.52257e-05
3.51667e-05
3.50725e-05
3.54068e-05
3.53846e-05
3.53567e-05
3.53215e-05
3.52771e-05
3.52237e-05
3.51619e-05
3.5066e-05
3.54365e-05
3.54161e-05
3.53917e-05
3.53616e-05
3.5324e-05
3.5277e-05
3.52211e-05
3.51563e-05
3.50591e-05
3.54669e-05
3.54473e-05
3.54248e-05
3.53983e-05
3.53658e-05
3.53257e-05
3.52762e-05
3.52177e-05
3.515e-05
3.50519e-05
3.54791e-05
3.54574e-05
3.54328e-05
3.54041e-05
3.53693e-05
3.53267e-05
3.52746e-05
3.52137e-05
3.51431e-05
3.50444e-05
3.5512e-05
3.54907e-05
3.5467e-05
3.54402e-05
3.54093e-05
3.53721e-05
3.53271e-05
3.52723e-05
3.52088e-05
3.51354e-05
3.50367e-05
3.55455e-05
3.55251e-05
3.55018e-05
3.54759e-05
3.5447e-05
3.54137e-05
3.53742e-05
3.53266e-05
3.52693e-05
3.52033e-05
3.51272e-05
3.50291e-05
3.55785e-05
3.55602e-05
3.55377e-05
3.55122e-05
3.54841e-05
3.5453e-05
3.54175e-05
3.53755e-05
3.53255e-05
3.52655e-05
3.5197e-05
3.51185e-05
3.50217e-05
3.56098e-05
3.55949e-05
3.55744e-05
3.55498e-05
3.5522e-05
3.54917e-05
3.54584e-05
3.54205e-05
3.53762e-05
3.53236e-05
3.52611e-05
3.519e-05
3.51093e-05
3.50148e-05
3.56278e-05
3.56108e-05
3.55881e-05
3.55612e-05
3.55312e-05
3.54986e-05
3.5463e-05
3.54228e-05
3.5376e-05
3.5321e-05
3.52558e-05
3.51823e-05
3.50999e-05
3.50086e-05
3.5658e-05
3.56454e-05
3.56262e-05
3.56013e-05
3.5572e-05
3.55397e-05
3.55048e-05
3.54669e-05
3.54244e-05
3.53752e-05
3.53177e-05
3.52499e-05
3.5174e-05
3.50904e-05
3.50035e-05
3.56853e-05
3.56772e-05
3.56625e-05
3.56411e-05
3.56139e-05
3.55822e-05
3.55475e-05
3.55103e-05
3.54701e-05
3.54252e-05
3.53736e-05
3.53136e-05
3.52432e-05
3.5165e-05
3.50809e-05
3.49996e-05
3.57058e-05
3.5696e-05
3.56792e-05
3.56555e-05
3.56258e-05
3.55917e-05
3.55546e-05
3.5515e-05
3.54725e-05
3.54252e-05
3.53712e-05
3.53087e-05
3.52358e-05
3.51554e-05
3.50718e-05
3.49973e-05
3.57317e-05
3.57261e-05
3.57143e-05
3.56954e-05
3.56693e-05
3.56371e-05
3.56005e-05
3.55609e-05
3.5519e-05
3.54741e-05
3.54245e-05
3.53681e-05
3.53031e-05
3.52277e-05
3.51454e-05
3.50632e-05
3.49965e-05
3.57559e-05
3.57533e-05
3.5746e-05
3.57323e-05
3.57111e-05
3.56826e-05
3.56478e-05
3.56086e-05
3.55666e-05
3.55223e-05
3.5475e-05
3.54231e-05
3.53642e-05
3.52968e-05
3.5219e-05
3.5135e-05
3.50555e-05
3.49971e-05
3.57794e-05
3.57787e-05
3.57746e-05
3.57656e-05
3.57499e-05
3.57263e-05
3.56952e-05
3.56577e-05
3.56159e-05
3.55714e-05
3.55247e-05
3.54751e-05
3.54209e-05
3.53596e-05
3.52898e-05
3.52096e-05
3.51243e-05
3.5049e-05
3.4999e-05
3.58028e-05
3.58032e-05
3.58012e-05
3.57956e-05
3.57848e-05
3.57669e-05
3.57409e-05
3.57071e-05
3.5667e-05
3.56225e-05
3.55755e-05
3.55264e-05
3.54745e-05
3.54179e-05
3.53542e-05
3.5282e-05
3.51996e-05
3.51136e-05
3.50439e-05
3.50022e-05
3.58277e-05
3.58269e-05
3.58235e-05
3.58163e-05
3.58036e-05
3.57834e-05
3.57549e-05
3.57184e-05
3.56755e-05
3.56284e-05
3.55788e-05
3.55273e-05
3.5473e-05
3.54141e-05
3.53481e-05
3.52735e-05
3.5189e-05
3.51029e-05
3.50405e-05
3.50066e-05
3.58521e-05
3.58524e-05
3.58503e-05
3.58455e-05
3.58367e-05
3.5822e-05
3.57995e-05
3.57683e-05
3.5729e-05
3.56832e-05
3.56334e-05
3.55813e-05
3.55274e-05
3.54708e-05
3.54096e-05
3.53412e-05
3.52643e-05
3.51781e-05
3.50925e-05
3.50388e-05
3.50121e-05
3.58759e-05
3.5878e-05
3.58771e-05
3.58736e-05
3.58672e-05
3.58566e-05
3.58398e-05
3.58149e-05
3.5781e-05
3.57388e-05
3.56902e-05
3.56377e-05
3.5583e-05
3.55267e-05
3.54678e-05
3.54043e-05
3.53336e-05
3.52544e-05
3.51667e-05
3.50827e-05
3.50385e-05
3.50187e-05
3.5903e-05
3.59037e-05
3.59015e-05
3.58966e-05
3.58886e-05
3.58762e-05
3.58572e-05
3.58297e-05
3.5793e-05
3.57479e-05
3.56964e-05
3.56411e-05
3.55839e-05
3.55252e-05
3.5464e-05
3.53983e-05
3.53253e-05
3.5244e-05
3.51552e-05
3.50736e-05
3.50398e-05
3.50262e-05
3.59269e-05
3.593e-05
3.59294e-05
3.59257e-05
3.59193e-05
3.59097e-05
3.58953e-05
3.58741e-05
3.5844e-05
3.58044e-05
3.57562e-05
3.57018e-05
3.56437e-05
3.55839e-05
3.55229e-05
3.54594e-05
3.53914e-05
3.53162e-05
3.52329e-05
3.51436e-05
3.50656e-05
3.50425e-05
3.50348e-05
3.59494e-05
3.59552e-05
3.59569e-05
3.59548e-05
3.59497e-05
3.59417e-05
3.59304e-05
3.5914e-05
3.58903e-05
3.58575e-05
3.58149e-05
3.57638e-05
3.57064e-05
3.56455e-05
3.55832e-05
3.55198e-05
3.54541e-05
3.53839e-05
3.53065e-05
3.52213e-05
3.51321e-05
3.5059e-05
3.50465e-05
3.50442e-05
3.5979e-05
3.59835e-05
3.59836e-05
3.59801e-05
3.59734e-05
3.59638e-05
3.59507e-05
3.59322e-05
3.5906e-05
3.58704e-05
3.58248e-05
3.57705e-05
3.57101e-05
3.56464e-05
3.55815e-05
3.55158e-05
3.54479e-05
3.53755e-05
3.5296e-05
3.52094e-05
3.51208e-05
3.50539e-05
3.50518e-05
3.50544e-05
3.6001e-05
3.60086e-05
3.60116e-05
3.60102e-05
3.60051e-05
3.59969e-05
3.59856e-05
3.59705e-05
3.59498e-05
3.59211e-05
3.58826e-05
3.58338e-05
3.57764e-05
3.57129e-05
3.56465e-05
3.55791e-05
3.5511e-05
3.5441e-05
3.53665e-05
3.5285e-05
3.5197e-05
3.51101e-05
3.50507e-05
3.50583e-05
3.50655e-05
3.60209e-05
3.6032e-05
3.60381e-05
3.60395e-05
3.60366e-05
3.603e-05
3.602e-05
3.6007e-05
3.59899e-05
3.59669e-05
3.59355e-05
3.5894e-05
3.58421e-05
3.57814e-05
3.57149e-05
3.56457e-05
3.55758e-05
3.55055e-05
3.54333e-05
3.53567e-05
3.52733e-05
3.51845e-05
3.51001e-05
3.50494e-05
3.50661e-05
3.50773e-05
3.60535e-05
3.6063e-05
3.60675e-05
3.60673e-05
3.60628e-05
3.60545e-05
3.60428e-05
3.60279e-05
3.60088e-05
3.59834e-05
3.59492e-05
3.59046e-05
3.58495e-05
3.57856e-05
3.5716e-05
3.5644e-05
3.55716e-05
3.54991e-05
3.54248e-05
3.53462e-05
3.52611e-05
3.51719e-05
3.50911e-05
3.50497e-05
3.50749e-05
3.50898e-05
3.60725e-05
3.6086e-05
3.60939e-05
3.60968e-05
3.6095e-05
3.60888e-05
3.60787e-05
3.60653e-05
3.60484e-05
3.60271e-05
3.59993e-05
3.59623e-05
3.59145e-05
3.5856e-05
3.57889e-05
3.57162e-05
3.56415e-05
3.55666e-05
3.54919e-05
3.54155e-05
3.5335e-05
3.52485e-05
3.51594e-05
3.50834e-05
3.50517e-05
3.50849e-05
3.5103e-05
3.60887e-05
3.61068e-05
3.61186e-05
3.61247e-05
3.61259e-05
3.61224e-05
3.61145e-05
3.61027e-05
3.60874e-05
3.60685e-05
3.60449e-05
3.60145e-05
3.59746e-05
3.59236e-05
3.58617e-05
3.57912e-05
3.57155e-05
3.5638e-05
3.55608e-05
3.54839e-05
3.54055e-05
3.53232e-05
3.52354e-05
3.51472e-05
3.50773e-05
3.50551e-05
3.50959e-05
3.51168e-05
3.61249e-05
3.61411e-05
3.6151e-05
3.61554e-05
3.61548e-05
3.61496e-05
3.61399e-05
3.61263e-05
3.6109e-05
3.6088e-05
3.60622e-05
3.6029e-05
3.59861e-05
3.59318e-05
3.58665e-05
3.57927e-05
3.57139e-05
3.56337e-05
3.55541e-05
3.54751e-05
3.53948e-05
3.53108e-05
3.52222e-05
3.51354e-05
3.5073e-05
3.50601e-05
3.51078e-05
3.51312e-05
3.61394e-05
3.6161e-05
3.61753e-05
3.61833e-05
3.61859e-05
3.61836e-05
3.61766e-05
3.61651e-05
3.61495e-05
3.61302e-05
3.61071e-05
3.60788e-05
3.60429e-05
3.59968e-05
3.59391e-05
3.58704e-05
3.57932e-05
3.57114e-05
3.56285e-05
3.55465e-05
3.54655e-05
3.53833e-05
3.52978e-05
3.52087e-05
3.51244e-05
3.50706e-05
3.50663e-05
3.51207e-05
3.51461e-05
3.61494e-05
3.61776e-05
3.61972e-05
3.62094e-05
3.62155e-05
3.62163e-05
3.62121e-05
3.62033e-05
3.61899e-05
3.61723e-05
3.61509e-05
3.61255e-05
3.60947e-05
3.6056e-05
3.60067e-05
3.59456e-05
3.58734e-05
3.57928e-05
3.5708e-05
3.56224e-05
3.55381e-05
3.54551e-05
3.53712e-05
3.52844e-05
3.51953e-05
3.51143e-05
3.50701e-05
3.50739e-05
3.51345e-05
3.51616e-05
3.6154e-05
3.619e-05
3.62159e-05
3.62332e-05
3.62434e-05
3.62475e-05
3.62464e-05
3.62404e-05
3.62297e-05
3.62143e-05
3.61947e-05
3.61711e-05
3.61434e-05
3.611e-05
3.60683e-05
3.60158e-05
3.59512e-05
3.58754e-05
3.57915e-05
3.57036e-05
3.56154e-05
3.55289e-05
3.54439e-05
3.53584e-05
3.52706e-05
3.5182e-05
3.51053e-05
3.50714e-05
3.50827e-05
3.51491e-05
3.51776e-05
3.6152e-05
3.61972e-05
3.62307e-05
3.62541e-05
3.62692e-05
3.62773e-05
3.62794e-05
3.62764e-05
3.62685e-05
3.62557e-05
3.62383e-05
3.62166e-05
3.61908e-05
3.61607e-05
3.61245e-05
3.60798e-05
3.6024e-05
3.59558e-05
3.58765e-05
3.57892e-05
3.56983e-05
3.56075e-05
3.55189e-05
3.5432e-05
3.53451e-05
3.52565e-05
3.51691e-05
3.50978e-05
3.50743e-05
3.50926e-05
3.51645e-05
3.5194e-05
3.61417e-05
3.61981e-05
3.62405e-05
3.62713e-05
3.62923e-05
3.6305e-05
3.6311e-05
3.63111e-05
3.63061e-05
3.62962e-05
3.62815e-05
3.6262e-05
3.6238e-05
3.62099e-05
3.61773e-05
3.61384e-05
3.60906e-05
3.60313e-05
3.59595e-05
3.58766e-05
3.57859e-05
3.5692e-05
3.55987e-05
3.5508e-05
3.54194e-05
3.53312e-05
3.52423e-05
3.51567e-05
3.5092e-05
3.50788e-05
3.51036e-05
3.51806e-05
3.52109e-05
3.61217e-05
3.61912e-05
3.62443e-05
3.62838e-05
3.63118e-05
3.63303e-05
3.63408e-05
3.63445e-05
3.63425e-05
3.63355e-05
3.63236e-05
3.63068e-05
3.62852e-05
3.62589e-05
3.62285e-05
3.61932e-05
3.61515e-05
3.61005e-05
3.60377e-05
3.59623e-05
3.58757e-05
3.57817e-05
3.56849e-05
3.55891e-05
3.54963e-05
3.54062e-05
3.53168e-05
3.5228e-05
3.5145e-05
3.50882e-05
3.50848e-05
3.51157e-05
3.51975e-05
3.52281e-05
3.61749e-05
3.62408e-05
3.62906e-05
3.63271e-05
3.63523e-05
3.63683e-05
3.63763e-05
3.63778e-05
3.63738e-05
3.63647e-05
3.63507e-05
3.63318e-05
3.63079e-05
3.62793e-05
3.62463e-05
3.62084e-05
3.61637e-05
3.61095e-05
3.60432e-05
3.5964e-05
3.58739e-05
3.57765e-05
3.56768e-05
3.55786e-05
3.54838e-05
3.53922e-05
3.53021e-05
3.52138e-05
3.51343e-05
3.50864e-05
3.50922e-05
3.51287e-05
3.52151e-05
3.52458e-05
3.61472e-05
3.62283e-05
3.62905e-05
3.63369e-05
3.63703e-05
3.63927e-05
3.6406e-05
3.64117e-05
3.64109e-05
3.64047e-05
3.63935e-05
3.63774e-05
3.63563e-05
3.63301e-05
3.62991e-05
3.62636e-05
3.62229e-05
3.61752e-05
3.61176e-05
3.60477e-05
3.59648e-05
3.5871e-05
3.57704e-05
3.56677e-05
3.55672e-05
3.54706e-05
3.53778e-05
3.52871e-05
3.51999e-05
3.51249e-05
3.50866e-05
3.51009e-05
3.51426e-05
3.52333e-05
3.52638e-05
3.61058e-05
3.62051e-05
3.62819e-05
3.63402e-05
3.63832e-05
3.64135e-05
3.6433e-05
3.64437e-05
3.64469e-05
3.64438e-05
3.64354e-05
3.64221e-05
3.64038e-05
3.63804e-05
3.63518e-05
3.63183e-05
3.62801e-05
3.62366e-05
3.61858e-05
3.61248e-05
3.60512e-05
3.59646e-05
3.58672e-05
3.57632e-05
3.56578e-05
3.5555e-05
3.54567e-05
3.53627e-05
3.5272e-05
3.51864e-05
3.51169e-05
3.50886e-05
3.51108e-05
3.51574e-05
3.52521e-05
3.52821e-05
3.61689e-05
3.62632e-05
3.63357e-05
3.639e-05
3.64295e-05
3.64565e-05
3.64731e-05
3.64811e-05
3.64818e-05
3.64764e-05
3.64658e-05
3.64502e-05
3.64297e-05
3.6404e-05
3.63729e-05
3.63369e-05
3.6296e-05
3.62496e-05
3.61956e-05
3.61311e-05
3.60538e-05
3.59634e-05
3.58623e-05
3.57551e-05
3.56469e-05
3.55419e-05
3.54421e-05
3.53473e-05
3.52568e-05
3.51736e-05
3.51106e-05
3.50923e-05
3.51219e-05
3.51729e-05
3.52715e-05
3.53007e-05
3.61175e-05
3.62325e-05
3.63216e-05
3.63895e-05
3.64398e-05
3.64756e-05
3.64994e-05
3.65131e-05
3.65183e-05
3.65165e-05
3.65087e-05
3.64958e-05
3.6478e-05
3.64552e-05
3.64271e-05
3.63935e-05
3.63548e-05
3.63111e-05
3.62617e-05
3.62044e-05
3.61364e-05
3.60553e-05
3.59611e-05
3.58564e-05
3.5746e-05
3.56351e-05
3.5528e-05
3.54268e-05
3.53315e-05
3.52418e-05
3.51617e-05
3.51062e-05
3.50976e-05
3.51341e-05
3.51893e-05
3.52914e-05
3.53196e-05
3.60493e-05
3.61874e-05
3.62963e-05
3.63801e-05
3.64433e-05
3.64895e-05
3.65217e-05
3.65421e-05
3.65528e-05
3.65553e-05
3.65509e-05
3.65407e-05
3.65255e-05
3.65054e-05
3.64802e-05
3.64496e-05
3.64134e-05
3.6372e-05
3.63254e-05
3.62729e-05
3.62123e-05
3.61407e-05
3.60559e-05
3.59578e-05
3.58495e-05
3.57359e-05
3.56224e-05
3.55134e-05
3.5411e-05
3.53155e-05
3.5227e-05
3.51509e-05
3.51041e-05
3.51045e-05
3.51473e-05
3.52064e-05
3.53118e-05
3.53387e-05
3.59749e-05
3.61267e-05
3.6258e-05
3.63605e-05
3.64387e-05
3.64971e-05
3.65392e-05
3.65676e-05
3.65847e-05
3.65923e-05
3.6592e-05
3.6585e-05
3.65724e-05
3.65548e-05
3.65323e-05
3.65048e-05
3.64716e-05
3.64327e-05
3.63884e-05
3.63389e-05
3.62833e-05
3.62193e-05
3.61441e-05
3.60554e-05
3.59535e-05
3.58416e-05
3.57248e-05
3.56088e-05
3.5498e-05
3.53947e-05
3.52994e-05
3.52128e-05
3.51414e-05
3.5104e-05
3.51127e-05
3.51615e-05
3.52242e-05
3.53328e-05
3.53581e-05
3.59683e-05
3.60589e-05
3.62053e-05
3.6329e-05
3.64248e-05
3.64973e-05
3.65509e-05
3.65887e-05
3.66133e-05
3.6627e-05
3.66315e-05
3.66284e-05
3.66188e-05
3.66037e-05
3.65837e-05
3.65588e-05
3.65288e-05
3.6493e-05
3.64513e-05
3.64042e-05
3.63516e-05
3.62928e-05
3.62254e-05
3.61464e-05
3.60538e-05
3.59482e-05
3.58327e-05
3.57128e-05
3.55943e-05
3.54819e-05
3.5378e-05
3.52833e-05
3.51992e-05
3.51335e-05
3.51058e-05
3.51223e-05
3.51766e-05
3.52426e-05
3.53541e-05
3.53777e-05
3.62479e-05
3.60518e-05
3.61456e-05
3.62848e-05
3.64004e-05
3.64892e-05
3.6556e-05
3.66045e-05
3.6638e-05
3.66588e-05
3.66691e-05
3.66705e-05
3.66645e-05
3.66522e-05
3.66346e-05
3.66121e-05
3.65848e-05
3.65522e-05
3.65137e-05
3.64693e-05
3.64191e-05
3.63634e-05
3.63013e-05
3.62304e-05
3.61477e-05
3.60512e-05
3.59417e-05
3.58227e-05
3.56998e-05
3.5579e-05
3.54652e-05
3.5361e-05
3.52674e-05
3.51864e-05
3.51275e-05
3.51095e-05
3.51331e-05
3.51925e-05
3.52616e-05
3.53759e-05
3.53974e-05
3.67832e-05
3.63208e-05
3.6141e-05
3.62346e-05
3.63652e-05
3.6472e-05
3.65537e-05
3.66145e-05
3.6658e-05
3.66871e-05
3.67041e-05
3.67109e-05
3.67091e-05
3.67002e-05
3.66853e-05
3.66651e-05
3.66402e-05
3.66103e-05
3.65751e-05
3.65338e-05
3.64864e-05
3.64332e-05
3.63744e-05
3.63089e-05
3.62344e-05
3.61479e-05
3.60476e-05
3.59343e-05
3.58117e-05
3.56859e-05
3.55629e-05
3.5448e-05
3.53439e-05
3.52519e-05
3.51748e-05
3.51234e-05
3.51148e-05
3.51451e-05
3.52093e-05
3.52812e-05
3.53981e-05
3.54174e-05
3.66554e-05
3.68625e-05
3.6403e-05
3.62357e-05
3.63256e-05
3.64461e-05
3.65438e-05
3.66181e-05
3.66729e-05
3.67114e-05
3.6736e-05
3.67491e-05
3.67524e-05
3.67474e-05
3.67356e-05
3.67179e-05
3.66952e-05
3.66677e-05
3.66353e-05
3.65974e-05
3.65532e-05
3.65028e-05
3.64465e-05
3.63844e-05
3.63156e-05
3.62374e-05
3.61471e-05
3.60429e-05
3.59257e-05
3.57997e-05
3.5671e-05
3.5546e-05
3.54302e-05
3.53267e-05
3.52369e-05
3.51646e-05
3.51217e-05
3.51217e-05
3.51583e-05
3.52268e-05
3.53013e-05
3.54206e-05
3.54374e-05
3.65027e-05
3.6749e-05
3.69486e-05
3.64941e-05
3.63354e-05
3.64183e-05
3.65274e-05
3.66155e-05
3.66824e-05
3.67311e-05
3.67645e-05
3.67847e-05
3.67938e-05
3.67935e-05
3.67854e-05
3.67706e-05
3.67502e-05
3.67248e-05
3.66948e-05
3.66597e-05
3.6619e-05
3.65719e-05
3.65185e-05
3.64589e-05
3.63935e-05
3.63212e-05
3.62394e-05
3.61452e-05
3.60371e-05
3.59161e-05
3.57867e-05
3.56552e-05
3.55285e-05
3.54122e-05
3.53096e-05
3.52227e-05
3.51559e-05
3.5122e-05
3.51301e-05
3.51724e-05
3.52451e-05
3.53219e-05
3.54435e-05
3.54576e-05
3.6304e-05
3.65971e-05
3.68496e-05
3.70401e-05
3.65935e-05
3.64395e-05
3.65122e-05
3.6609e-05
3.66873e-05
3.67465e-05
3.67891e-05
3.68173e-05
3.6833e-05
3.68381e-05
3.68343e-05
3.6823e-05
3.68053e-05
3.67821e-05
3.6754e-05
3.67213e-05
3.66835e-05
3.664e-05
3.65899e-05
3.65332e-05
3.64704e-05
3.64017e-05
3.63258e-05
3.62403e-05
3.61423e-05
3.60302e-05
3.59055e-05
3.57727e-05
3.56386e-05
3.55103e-05
3.53939e-05
3.52928e-05
3.52095e-05
3.5149e-05
3.51243e-05
3.51398e-05
3.51875e-05
3.5264e-05
3.5343e-05
3.54667e-05
3.54779e-05
3.60527e-05
3.63918e-05
3.66949e-05
3.69552e-05
3.71362e-05
3.67018e-05
3.65475e-05
3.6607e-05
3.66906e-05
3.67588e-05
3.68104e-05
3.68469e-05
3.68698e-05
3.6881e-05
3.68822e-05
3.68748e-05
3.68602e-05
3.68395e-05
3.68134e-05
3.67827e-05
3.67472e-05
3.67067e-05
3.66602e-05
3.66071e-05
3.65472e-05
3.6481e-05
3.64088e-05
3.63294e-05
3.62402e-05
3.61382e-05
3.60222e-05
3.58938e-05
3.57577e-05
3.56211e-05
3.54915e-05
3.53754e-05
3.52765e-05
3.51974e-05
3.51442e-05
3.51285e-05
3.51509e-05
3.52035e-05
3.52836e-05
3.53646e-05
3.54902e-05
3.54983e-05
3.57967e-05
3.61327e-05
3.64833e-05
3.67956e-05
3.70658e-05
3.72419e-05
3.68212e-05
3.6659e-05
3.67025e-05
3.67721e-05
3.68302e-05
3.68741e-05
3.69043e-05
3.6922e-05
3.69287e-05
3.69258e-05
3.69148e-05
3.6897e-05
3.68732e-05
3.68443e-05
3.68108e-05
3.67726e-05
3.67292e-05
3.66798e-05
3.66234e-05
3.65602e-05
3.64907e-05
3.6415e-05
3.63319e-05
3.62389e-05
3.61331e-05
3.60131e-05
3.5881e-05
3.57417e-05
3.56028e-05
3.54723e-05
3.53571e-05
3.52609e-05
3.51869e-05
3.51417e-05
3.51344e-05
3.51632e-05
3.52204e-05
3.53038e-05
3.53865e-05
3.5514e-05
3.55188e-05
3.55816e-05
3.5867e-05
3.62159e-05
3.65786e-05
3.68993e-05
3.71834e-05
3.73649e-05
3.69538e-05
3.6774e-05
3.67983e-05
3.68534e-05
3.69012e-05
3.69374e-05
3.69614e-05
3.69739e-05
3.6976e-05
3.69691e-05
3.69545e-05
3.69333e-05
3.69065e-05
3.68747e-05
3.68384e-05
3.67974e-05
3.67511e-05
3.66985e-05
3.6639e-05
3.65724e-05
3.64993e-05
3.64201e-05
3.63334e-05
3.62366e-05
3.61268e-05
3.6003e-05
3.58672e-05
3.57248e-05
3.55838e-05
3.54528e-05
3.53389e-05
3.52463e-05
3.5178e-05
3.51415e-05
3.51419e-05
3.51766e-05
3.5238e-05
3.53245e-05
3.54089e-05
3.5538e-05
3.55393e-05
3.54179e-05
3.56409e-05
3.59404e-05
3.63024e-05
3.6678e-05
3.70076e-05
3.73085e-05
3.7515e-05
3.71033e-05
3.68918e-05
3.68941e-05
3.69343e-05
3.69719e-05
3.70004e-05
3.70182e-05
3.70253e-05
3.70228e-05
3.70119e-05
3.69936e-05
3.69691e-05
3.69393e-05
3.69046e-05
3.68654e-05
3.68215e-05
3.67723e-05
3.67165e-05
3.66536e-05
3.65836e-05
3.6507e-05
3.64242e-05
3.63338e-05
3.62332e-05
3.61194e-05
3.59917e-05
3.58523e-05
3.5707e-05
3.55642e-05
3.54331e-05
3.53212e-05
3.52328e-05
3.51712e-05
3.51433e-05
3.51509e-05
3.5191e-05
3.52564e-05
3.53458e-05
3.54316e-05
3.55623e-05
3.55598e-05
3.52881e-05
3.54672e-05
3.57029e-05
3.60169e-05
3.63924e-05
3.67816e-05
3.71221e-05
3.74427e-05
3.77212e-05
3.72692e-05
3.70119e-05
3.69897e-05
3.70149e-05
3.70422e-05
3.7063e-05
3.70745e-05
3.70763e-05
3.70692e-05
3.70542e-05
3.70323e-05
3.70045e-05
3.69715e-05
3.69339e-05
3.68918e-05
3.6845e-05
3.67927e-05
3.67337e-05
3.66674e-05
3.65938e-05
3.65137e-05
3.64272e-05
3.63331e-05
3.62286e-05
3.6111e-05
3.59793e-05
3.58364e-05
3.56882e-05
3.55439e-05
3.54133e-05
3.53041e-05
3.52206e-05
3.51664e-05
3.51471e-05
3.51612e-05
3.52065e-05
3.52756e-05
3.53676e-05
3.54547e-05
3.55867e-05
3.55801e-05
3.51754e-05
3.53303e-05
3.55189e-05
3.57679e-05
3.60967e-05
3.6486e-05
3.68895e-05
3.72431e-05
3.75923e-05
3.79628e-05
3.74421e-05
3.71332e-05
3.70848e-05
3.70948e-05
3.7112e-05
3.71251e-05
3.71303e-05
3.71269e-05
3.71152e-05
3.70961e-05
3.70705e-05
3.70394e-05
3.70032e-05
3.69626e-05
3.69176e-05
3.68678e-05
3.68123e-05
3.675e-05
3.66802e-05
3.6603e-05
3.65193e-05
3.64291e-05
3.63312e-05
3.62229e-05
3.61013e-05
3.59659e-05
3.58194e-05
3.56687e-05
3.55232e-05
3.53936e-05
3.52878e-05
3.52101e-05
3.51641e-05
3.51526e-05
3.51729e-05
3.52229e-05
3.52953e-05
3.53899e-05
3.5478e-05
3.56111e-05
3.56005e-05
3.50752e-05
3.52125e-05
3.53744e-05
3.5573e-05
3.58359e-05
3.61798e-05
3.65837e-05
3.70022e-05
3.73718e-05
3.77622e-05
3.81627e-05
3.76354e-05
3.72558e-05
3.71792e-05
3.71742e-05
3.71813e-05
3.71867e-05
3.71857e-05
3.7177e-05
3.71607e-05
3.71375e-05
3.71082e-05
3.70737e-05
3.70344e-05
3.69907e-05
3.69427e-05
3.68898e-05
3.68311e-05
3.67655e-05
3.66921e-05
3.66113e-05
3.65238e-05
3.64299e-05
3.63283e-05
3.62161e-05
3.60906e-05
3.59514e-05
3.58015e-05
3.56483e-05
3.55022e-05
3.53742e-05
3.52727e-05
3.52016e-05
3.5164e-05
3.51599e-05
3.51858e-05
3.52401e-05
3.53158e-05
3.54125e-05
3.55014e-05
3.56356e-05
3.56208e-05
3.51078e-05
3.52512e-05
3.54204e-05
3.56297e-05
3.59069e-05
3.62664e-05
3.66856e-05
3.71202e-05
3.75086e-05
3.79008e-05
3.85711e-05
3.78785e-05
3.73798e-05
3.72727e-05
3.72529e-05
3.725e-05
3.72478e-05
3.72406e-05
3.72265e-05
3.72056e-05
3.71783e-05
3.71454e-05
3.71074e-05
3.7065e-05
3.70182e-05
3.69671e-05
3.69111e-05
3.68491e-05
3.678e-05
3.6703e-05
3.66184e-05
3.65272e-05
3.64296e-05
3.63242e-05
3.62081e-05
3.60788e-05
3.59357e-05
3.57826e-05
3.56273e-05
3.54809e-05
3.53553e-05
3.52589e-05
3.51952e-05
3.51661e-05
3.51687e-05
3.51999e-05
3.52582e-05
3.53367e-05
3.54354e-05
3.55251e-05
3.56603e-05
3.5641e-05
3.50183e-05
3.51419e-05
3.52914e-05
3.54684e-05
3.56891e-05
3.59813e-05
3.63566e-05
3.67922e-05
3.72442e-05
3.76418e-05
3.81975e-05
3.9365e-05
3.81656e-05
3.75044e-05
3.7365e-05
3.73308e-05
3.73181e-05
3.73083e-05
3.72949e-05
3.72756e-05
3.725e-05
3.72186e-05
3.7182e-05
3.71406e-05
3.70949e-05
3.7045e-05
3.69908e-05
3.69316e-05
3.68663e-05
3.67936e-05
3.67129e-05
3.66246e-05
3.65295e-05
3.64281e-05
3.63189e-05
3.6199e-05
3.60658e-05
3.59191e-05
3.57628e-05
3.56056e-05
3.54596e-05
3.53372e-05
3.52467e-05
3.51912e-05
3.51702e-05
3.5179e-05
3.5215e-05
3.5277e-05
3.5358e-05
3.54586e-05
3.55491e-05
3.5685e-05
3.56611e-05
3.5048e-05
3.51773e-05
3.53332e-05
3.55185e-05
3.57512e-05
3.60589e-05
3.64507e-05
3.69038e-05
3.73778e-05
3.77727e-05
3.87363e-05
4.03118e-05
3.84847e-05
3.76288e-05
3.74561e-05
3.74079e-05
3.73855e-05
3.73683e-05
3.73486e-05
3.7324e-05
3.72939e-05
3.72584e-05
3.7218e-05
3.71732e-05
3.71242e-05
3.70712e-05
3.70138e-05
3.69513e-05
3.68825e-05
3.68062e-05
3.67217e-05
3.66296e-05
3.65308e-05
3.64256e-05
3.63125e-05
3.61888e-05
3.60517e-05
3.59013e-05
3.57421e-05
3.55834e-05
3.54384e-05
3.532e-05
3.52364e-05
3.51897e-05
3.51762e-05
3.51907e-05
3.52311e-05
3.52964e-05
3.53799e-05
3.54822e-05
3.55732e-05
3.57098e-05
3.56811e-05
3.49724e-05
3.5079e-05
3.52142e-05
3.53768e-05
3.55708e-05
3.58163e-05
3.61401e-05
3.65489e-05
3.70207e-05
3.75214e-05
3.79379e-05
3.94139e-05
4.13348e-05
3.88307e-05
3.77522e-05
3.75459e-05
3.74842e-05
3.74522e-05
3.74276e-05
3.74018e-05
3.73719e-05
3.73371e-05
3.72975e-05
3.72534e-05
3.72052e-05
3.71529e-05
3.70966e-05
3.7036e-05
3.69702e-05
3.68979e-05
3.68178e-05
3.67295e-05
3.66335e-05
3.65308e-05
3.64218e-05
3.6305e-05
3.61774e-05
3.60365e-05
3.58825e-05
3.57206e-05
3.55609e-05
3.54176e-05
3.53041e-05
3.52282e-05
3.51905e-05
3.51839e-05
3.52036e-05
3.52479e-05
3.53164e-05
3.54022e-05
3.5506e-05
3.55974e-05
3.57345e-05
3.5701e-05
3.49996e-05
3.51114e-05
3.52526e-05
3.54221e-05
3.56255e-05
3.58844e-05
3.62248e-05
3.66515e-05
3.71438e-05
3.76651e-05
3.81606e-05
4.01953e-05
4.24664e-05
3.92014e-05
3.78738e-05
3.76343e-05
3.75596e-05
3.75183e-05
3.74862e-05
3.74543e-05
3.74192e-05
3.73798e-05
3.73361e-05
3.72882e-05
3.72365e-05
3.71809e-05
3.71213e-05
3.70574e-05
3.69881e-05
3.69123e-05
3.68284e-05
3.67362e-05
3.66363e-05
3.65297e-05
3.64169e-05
3.62963e-05
3.61648e-05
3.60201e-05
3.58628e-05
3.56983e-05
3.5538e-05
3.53972e-05
3.52897e-05
3.52224e-05
3.51935e-05
3.51933e-05
3.52176e-05
3.52656e-05
3.5337e-05
3.54248e-05
3.55301e-05
3.56218e-05
3.57593e-05
3.57207e-05
3.5028e-05
3.51451e-05
3.52925e-05
3.54693e-05
3.56826e-05
3.59556e-05
3.63134e-05
3.67589e-05
3.72746e-05
3.78021e-05
3.84529e-05
4.10976e-05
4.37296e-05
3.95951e-05
3.79931e-05
3.77211e-05
3.76341e-05
3.75835e-05
3.75442e-05
3.75062e-05
3.74658e-05
3.74218e-05
3.7374e-05
3.73224e-05
3.72671e-05
3.72081e-05
3.71453e-05
3.7078e-05
3.70052e-05
3.69257e-05
3.6838e-05
3.67418e-05
3.66379e-05
3.65274e-05
3.64108e-05
3.62864e-05
3.61511e-05
3.60027e-05
3.5842e-05
3.56753e-05
3.55151e-05
3.53777e-05
3.52771e-05
3.52193e-05
3.51986e-05
3.52039e-05
3.52326e-05
3.52841e-05
3.53581e-05
3.54478e-05
3.55544e-05
3.56462e-05
3.5784e-05
3.57403e-05
3.50576e-05
3.51803e-05
3.5334e-05
3.55183e-05
3.57422e-05
3.60301e-05
3.64059e-05
3.68715e-05
3.74145e-05
3.79462e-05
3.88258e-05
4.21396e-05
4.51479e-05
4.00105e-05
3.81095e-05
3.78064e-05
3.77076e-05
3.7648e-05
3.76014e-05
3.75574e-05
3.75118e-05
3.74632e-05
3.74112e-05
3.73558e-05
3.7297e-05
3.72347e-05
3.71684e-05
3.70977e-05
3.70214e-05
3.6938e-05
3.68465e-05
3.67463e-05
3.66384e-05
3.6524e-05
3.64035e-05
3.62753e-05
3.61363e-05
3.59842e-05
3.58203e-05
3.56518e-05
3.54923e-05
3.53592e-05
3.52666e-05
3.52188e-05
3.52054e-05
3.5216e-05
3.52487e-05
3.53032e-05
3.53797e-05
3.54712e-05
3.55789e-05
3.56708e-05
3.58088e-05
3.57598e-05
3.49898e-05
3.50885e-05
3.52168e-05
3.53771e-05
3.55694e-05
3.58046e-05
3.61081e-05
3.65027e-05
3.69898e-05
3.75645e-05
3.81152e-05
3.92813e-05
4.33522e-05
4.67359e-05
4.04453e-05
3.82225e-05
3.78902e-05
3.77801e-05
3.77117e-05
3.76579e-05
3.76078e-05
3.7557e-05
3.75038e-05
3.74477e-05
3.73886e-05
3.73262e-05
3.72604e-05
3.71907e-05
3.71165e-05
3.70365e-05
3.69494e-05
3.68538e-05
3.67496e-05
3.66376e-05
3.65193e-05
3.6395e-05
3.6263e-05
3.61203e-05
3.59646e-05
3.57977e-05
3.56277e-05
3.54697e-05
3.5342e-05
3.52586e-05
3.52206e-05
3.5214e-05
3.52293e-05
3.52656e-05
3.5323e-05
3.54017e-05
3.54948e-05
3.56035e-05
3.56954e-05
3.58334e-05
3.5779e-05
3.50173e-05
3.51206e-05
3.52548e-05
3.54218e-05
3.56226e-05
3.58697e-05
3.61897e-05
3.6604e-05
3.71141e-05
3.77236e-05
3.83109e-05
3.9832e-05
4.47689e-05
4.84954e-05
4.08953e-05
3.83319e-05
3.79725e-05
3.78516e-05
3.77745e-05
3.77137e-05
3.76576e-05
3.76016e-05
3.75438e-05
3.74836e-05
3.74206e-05
3.73547e-05
3.72854e-05
3.72122e-05
3.71344e-05
3.70507e-05
3.69597e-05
3.68601e-05
3.67517e-05
3.66357e-05
3.65135e-05
3.63854e-05
3.62496e-05
3.61031e-05
3.5944e-05
3.57743e-05
3.56034e-05
3.54476e-05
3.53264e-05
3.5253e-05
3.52246e-05
3.52242e-05
3.52438e-05
3.52834e-05
3.53434e-05
3.54241e-05
3.55187e-05
3.56284e-05
3.57201e-05
3.5858e-05
3.57981e-05
3.4961e-05
3.5046e-05
3.51541e-05
3.52943e-05
3.54683e-05
3.5678e-05
3.59378e-05
3.62752e-05
3.67103e-05
3.7246e-05
3.78868e-05
3.85369e-05
4.05031e-05
4.64155e-05
5.04134e-05
4.13542e-05
3.84373e-05
3.80532e-05
3.79221e-05
3.78365e-05
3.77686e-05
3.77066e-05
3.76454e-05
3.75831e-05
3.75187e-05
3.74519e-05
3.73824e-05
3.73095e-05
3.72328e-05
3.71513e-05
3.70639e-05
3.69689e-05
3.68652e-05
3.67527e-05
3.66326e-05
3.65064e-05
3.63745e-05
3.6235e-05
3.60849e-05
3.59223e-05
3.57502e-05
3.55787e-05
3.54262e-05
3.53129e-05
3.52503e-05
3.52307e-05
3.52358e-05
3.52594e-05
3.53019e-05
3.53643e-05
3.54469e-05
3.55429e-05
3.56533e-05
3.57448e-05
3.58825e-05
3.58169e-05
3.49873e-05
3.50759e-05
3.5189e-05
3.53353e-05
3.55165e-05
3.57356e-05
3.60091e-05
3.63646e-05
3.68219e-05
3.73869e-05
3.80529e-05
3.88106e-05
4.13159e-05
4.83132e-05
5.2459e-05
4.18136e-05
3.85386e-05
3.81325e-05
3.79916e-05
3.78975e-05
3.78227e-05
3.77548e-05
3.76885e-05
3.76216e-05
3.75531e-05
3.74825e-05
3.74092e-05
3.73328e-05
3.72525e-05
3.71673e-05
3.70759e-05
3.69769e-05
3.68691e-05
3.67524e-05
3.66282e-05
3.64981e-05
3.63624e-05
3.62192e-05
3.60655e-05
3.58997e-05
3.57253e-05
3.55542e-05
3.54061e-05
3.53015e-05
3.52502e-05
3.52386e-05
3.52488e-05
3.52759e-05
3.53211e-05
3.53857e-05
3.54701e-05
3.55672e-05
3.56784e-05
3.57695e-05
3.59069e-05
3.58356e-05
3.50146e-05
3.5107e-05
3.52252e-05
3.53778e-05
3.55666e-05
3.57957e-05
3.60836e-05
3.64583e-05
3.69392e-05
3.75379e-05
3.82306e-05
3.91468e-05
4.22916e-05
5.0474e-05
5.45823e-05
4.22624e-05
3.86357e-05
3.82103e-05
3.806e-05
3.79577e-05
3.7876e-05
3.78022e-05
3.77308e-05
3.76594e-05
3.75867e-05
3.75122e-05
3.74353e-05
3.73552e-05
3.72712e-05
3.71822e-05
3.7087e-05
3.69838e-05
3.68718e-05
3.67509e-05
3.66226e-05
3.64885e-05
3.63491e-05
3.62023e-05
3.60451e-05
3.5876e-05
3.56998e-05
3.553e-05
3.53873e-05
3.52925e-05
3.52526e-05
3.52483e-05
3.52631e-05
3.52933e-05
3.53409e-05
3.54075e-05
3.54935e-05
3.55918e-05
3.57035e-05
3.57942e-05
3.59311e-05
3.5854e-05
3.5043e-05
3.51393e-05
3.52628e-05
3.54219e-05
3.56186e-05
3.58584e-05
3.61615e-05
3.65565e-05
3.7063e-05
3.77002e-05
3.84291e-05
3.95542e-05
4.34577e-05
5.2894e-05
5.67136e-05
4.26889e-05
3.87288e-05
3.82868e-05
3.81274e-05
3.80169e-05
3.79284e-05
3.78488e-05
3.77723e-05
3.76963e-05
3.76195e-05
3.75412e-05
3.74605e-05
3.73767e-05
3.72889e-05
3.71961e-05
3.70969e-05
3.69896e-05
3.68733e-05
3.67481e-05
3.66157e-05
3.64778e-05
3.63346e-05
3.61842e-05
3.60234e-05
3.58515e-05
3.56743e-05
3.55062e-05
3.537e-05
3.52862e-05
3.52573e-05
3.52596e-05
3.52785e-05
3.53115e-05
3.53614e-05
3.54297e-05
3.55173e-05
3.56165e-05
3.57288e-05
3.5819e-05
3.59553e-05
3.58723e-05
3.50726e-05
3.5173e-05
3.53018e-05
3.54677e-05
3.56726e-05
3.59237e-05
3.62431e-05
3.66597e-05
3.71938e-05
3.78746e-05
3.86507e-05
4.00473e-05
4.48423e-05
5.55472e-05
5.87695e-05
4.30801e-05
3.88179e-05
3.8362e-05
3.81936e-05
3.80752e-05
3.798e-05
3.78946e-05
3.7813e-05
3.77325e-05
3.76515e-05
3.75693e-05
3.74848e-05
3.73973e-05
3.73057e-05
3.7209e-05
3.71056e-05
3.69941e-05
3.68735e-05
3.67441e-05
3.66076e-05
3.64657e-05
3.63189e-05
3.61648e-05
3.60007e-05
3.58265e-05
3.56485e-05
3.54832e-05
3.53545e-05
3.52828e-05
3.52641e-05
3.52723e-05
3.52949e-05
3.53305e-05
3.53823e-05
3.54524e-05
3.55413e-05
3.56414e-05
3.57541e-05
3.58437e-05
3.59793e-05
3.58902e-05
3.51034e-05
3.52079e-05
3.53424e-05
3.55151e-05
3.57286e-05
3.59919e-05
3.63286e-05
3.67683e-05
3.73328e-05
3.806e-05
3.88985e-05
4.06482e-05
4.64677e-05
5.83821e-05
6.06584e-05
4.34242e-05
3.89033e-05
3.8436e-05
3.82587e-05
3.81324e-05
3.80306e-05
3.79395e-05
3.78529e-05
3.77678e-05
3.76827e-05
3.75965e-05
3.75082e-05
3.74169e-05
3.73214e-05
3.72207e-05
3.71132e-05
3.69974e-05
3.68725e-05
3.67388e-05
3.65981e-05
3.64525e-05
3.63019e-05
3.61443e-05
3.59773e-05
3.58008e-05
3.56226e-05
3.5461e-05
3.53412e-05
3.52823e-05
3.52729e-05
3.52865e-05
3.53124e-05
3.53502e-05
3.54038e-05
3.54753e-05
3.55655e-05
3.56665e-05
3.57795e-05
3.58683e-05
3.60031e-05
3.5908e-05
3.51354e-05
3.52442e-05
3.53844e-05
3.55642e-05
3.57868e-05
3.6063e-05
3.64183e-05
3.68827e-05
3.74815e-05
3.82555e-05
3.91835e-05
4.13791e-05
4.83475e-05
6.13223e-05
6.2291e-05
4.37108e-05
3.89852e-05
3.85087e-05
3.83227e-05
3.81887e-05
3.80803e-05
3.79835e-05
3.78919e-05
3.78023e-05
3.7713e-05
3.76228e-05
3.75307e-05
3.74355e-05
3.73361e-05
3.72313e-05
3.71196e-05
3.69995e-05
3.68702e-05