/*--------------------------------*- C++ -*----------------------------------*\
  =========                 |
  \\      /  F ield         | OpenFOAM: The Open Source CFD Toolbox
   \\    /   O peration     | Website:  https://openfoam.org
    \\  /    A nd           | Version:  7
     \\/     M anipulation  |
\*---------------------------------------------------------------------------*/
FoamFile
{
    version     2.0;
    format      ascii;
    class       volScalarField;
    location    "600";
    object      p;
}
// * * * * * * * * * * * * * * * * * * * * * * * * * * * * * * * * * * * * * //

dimensions      [0 2 -2 0 0 0 0];

internalField   nonuniform List<scalar> 
23023
(
19.3396
5.04792
19.1528
3.52686
4.86453
18.9606
-3.36003
3.30471
4.67596
18.763
-3.5651
3.07974
4.48237
18.5604
-7.44452
-3.77246
2.85206
4.28391
18.3529
-11.8678
-7.63767
-3.98203
2.62178
4.08073
18.1407
-15.0316
-12.0394
-7.83237
-4.19372
2.38899
3.87296
17.9241
-17.9399
-15.1832
-12.2123
-8.02856
-4.40747
2.15378
3.66076
17.7031
-20.3834
-18.0721
-15.3358
-12.3864
-8.22616
-4.6232
1.91623
3.44427
17.4779
-22.9111
-20.4982
-18.2053
-15.4894
-12.5615
-8.42515
-4.84087
1.67643
3.2236
17.2488
-23.0094
-20.6141
-18.3394
-15.6439
-12.7377
-8.62547
-5.0604
1.43444
2.9989
17.0159
-25.8323
-23.1091
-20.7311
-18.4744
-15.7992
-12.915
-8.82708
-5.28173
1.19035
2.77031
16.7792
-29.2744
-25.9152
-23.21
-20.849
-18.6103
-15.9554
-13.0932
-9.02996
-5.50482
0.944241
2.53794
16.5391
-33.3849
-29.3377
-25.9995
-23.312
-20.9679
-18.747
-16.1124
-13.2725
-9.23405
-5.72959
0.696175
2.30193
16.2955
-38.0403
-33.4237
-29.4025
-26.0852
-23.4152
-21.0877
-18.8845
-16.2702
-13.4527
-9.43933
-5.95599
0.446225
2.06238
16.0487
-38.048
-33.4638
-29.4687
-26.1721
-23.5195
-21.2084
-19.0227
-16.4289
-13.6339
-9.64575
-6.18397
0.194459
1.81943
15.7988
-42.893
-38.0566
-33.5052
-29.5362
-26.2603
-23.6249
-21.3301
-19.1618
-16.5883
-13.8159
-9.85327
-6.41348
-0.0590643
1.57318
15.5459
-47.5903
-42.8628
-38.0661
-33.5478
-29.6051
-26.3498
-23.7314
-21.4525
-19.3016
-16.7484
-13.9989
-10.0619
-6.64446
-0.314281
1.32375
15.2901
-47.5153
-42.8331
-38.0764
-33.5915
-29.6753
-26.4405
-23.8388
-21.5759
-19.4422
-16.9093
-14.1826
-10.2715
-6.87686
-0.571127
1.07124
15.0315
-51.7285
-47.44
-42.8037
-38.0876
-33.6364
-29.7467
-26.5323
-23.9473
-21.7
-19.5834
-17.0708
-14.3672
-10.4821
-7.11063
-0.829549
0.815757
14.7702
-55.4187
-51.6031
-47.3644
-42.7747
-38.0996
-33.6825
-29.8194
-26.6254
-24.0568
-21.825
-19.7254
-17.2331
-14.5526
-10.6938
-7.34574
-1.0895
0.557405
14.5064
-58.715
-55.2407
-51.477
-47.2887
-42.7459
-38.1125
-33.7297
-29.8933
-26.7195
-24.1672
-21.9507
-19.868
-17.396
-14.7388
-10.9063
-7.58215
-1.35092
0.296288
14.2402
-61.8694
-58.483
-55.0616
-51.3502
-47.2127
-42.7176
-38.1261
-33.778
-29.9684
-26.8148
-24.2786
-22.0772
-20.0113
-17.5595
-14.9257
-11.1198
-7.8198
-1.61375
0.0324905
13.9716
-61.5818
-58.2495
-54.8814
-51.2227
-47.1365
-42.6896
-38.1406
-33.8274
-30.0447
-26.9111
-24.3908
-22.2044
-20.1551
-17.7237
-15.1134
-11.3341
-8.05865
-1.87795
-0.233891
13.7007
-64.7613
-61.2925
-58.0146
-54.7001
-51.0946
-47.0603
-42.662
-38.1559
-33.8778
-30.122
-27.0085
-24.5039
-22.3324
-20.2997
-17.8884
-15.3018
-11.5493
-8.29867
-2.14348
-0.502761
13.4277
-68.1081
-64.4135
-61.0015
-57.7784
-54.5178
-50.9658
-46.9839
-42.6348
-38.172
-33.9294
-30.2005
-27.1068
-24.6179
-22.461
-20.4448
-18.0538
-15.4908
-11.7654
-8.53981
-2.41028
-0.774037
13.1526
-67.6979
-64.0637
-60.7088
-57.5409
-54.3345
-50.8365
-46.9074
-42.608
-38.189
-33.9819
-30.2801
-27.2062
-24.7326
-22.5902
-20.5905
-18.2198
-15.6806
-11.9822
-8.78205
-2.67831
-1.04763
12.8754
-71.0837
-67.2852
-63.7119
-60.4147
-57.3021
-54.1504
-50.7066
-46.8309
-42.5816
-38.2067
-34.0354
-30.3606
-27.3065
-24.8482
-22.7202
-20.7367
-18.3863
-15.871
-12.1999
-9.02533
-2.94753
-1.32347
12.5964
-74.4432
-70.6029
-66.8701
-63.3583
-60.119
-57.0623
-53.9654
-50.5763
-46.7544
-42.5556
-38.2251
-34.0899
-30.4422
-27.4077
-24.9646
-22.8508
-20.8835
-18.5533
-16.062
-12.4182
-9.26963
-3.21789
-1.60146
12.3155
-73.889
-70.1191
-66.4525
-63.0029
-59.8221
-56.8213
-53.7796
-50.4456
-46.6778
-42.53
-38.2443
-34.1454
-30.5248
-27.5098
-25.0817
-22.9819
-21.0309
-18.7209
-16.2536
-12.6374
-9.51492
-3.48937
-1.88153
12.0328
-77.0478
-73.3308
-69.6322
-66.0328
-62.6459
-59.5238
-56.5794
-53.5931
-50.3145
-46.6013
-42.5049
-38.2643
-34.2017
-30.6084
-27.6128
-25.1996
-23.1137
-21.1787
-18.889
-16.4458
-12.8572
-9.76115
-3.76191
-2.16361
11.7484
-80.0628
-76.41
-72.7688
-69.1425
-65.6109
-62.2872
-59.2244
-56.3365
-53.4059
-50.183
-46.5248
-42.4801
-38.2849
-34.259
-30.6929
-27.7167
-25.3181
-23.2461
-21.3271
-19.0576
-16.6386
-13.0777
-10.0083
-4.03548
-2.44763
11.4624
-79.3406
-75.7677
-72.2033
-68.6501
-65.187
-61.9271
-58.9238
-56.0928
-53.2181
-50.0512
-46.4483
-42.4558
-38.3063
-34.3172
-30.7783
-27.8214
-25.4374
-23.379
-21.476
-19.2266
-16.832
-13.2989
-10.2563
-4.31006
-2.73352
11.1748
-82.1596
-78.6129
-75.1209
-71.6344
-68.155
-64.7613
-61.5656
-58.6222
-55.8482
-53.0297
-49.9191
-46.3719
-42.4319
-38.3285
-34.3762
-30.8646
-27.9269
-25.5573
-23.5125
-21.6253
-19.3962
-17.0258
-13.5207
-10.5053
-4.5856
-3.02121
10.8857
-84.9068
-81.342
-77.8799
-74.4699
-71.0621
-67.6576
-64.3337
-61.2028
-58.3195
-55.6029
-52.8408
-49.7867
-46.2955
-42.4084
-38.3513
-34.4361
-30.9517
-28.0332
-25.6779
-23.6465
-21.7751
-19.5662
-17.2202
-13.7432
-10.755
-4.86207
-3.31064
10.5951
-83.9949
-80.5181
-77.1418
-73.8149
-70.4868
-67.1578
-63.9045
-60.8388
-58.016
-55.3568
-52.6513
-49.6541
-46.2192
-42.3854
-38.3747
-34.4969
-31.0398
-28.1402
-25.7991
-23.781
-21.9253
-19.7366
-17.4152
-13.9662
-11.0055
-5.13944
-3.60175
10.3031
-86.5793
-83.0755
-79.6881
-76.3989
-73.1561
-69.9086
-66.6558
-63.4737
-60.4735
-57.7115
-55.1101
-52.4613
-49.5213
-46.1431
-42.3627
-38.3989
-34.5584
-31.1286
-28.248
-25.9209
-23.9161
-22.076
-19.9075
-17.6106
-14.1899
-11.2569
-5.41769
-3.89448
10.0098
-89.0704
-85.56
-82.149
-78.8524
-75.6513
-72.4936
-69.3275
-66.1518
-63.0414
-60.1072
-57.4062
-54.8626
-52.2709
-49.3882
-46.067
-42.3405
-38.4237
-34.6207
-31.2182
-28.3565
-26.0434
-24.0516
-22.2271
-20.0788
-17.8065
-14.4141
-11.5089
-5.69678
-4.18876
9.71522
-91.4264
-87.9475
-84.5323
-81.2154
-78.011
-74.8993
-71.8277
-68.7438
-65.6458
-62.6076
-59.7399
-57.1001
-54.6146
-52.0801
-49.255
-45.9911
-42.3187
-38.4492
-34.6838
-31.3086
-28.4657
-26.1663
-24.1875
-22.3786
-20.2505
-18.0029
-14.6389
-11.7617
-5.97668
-4.48454
9.41937
-93.5909
-90.197
-86.8144
-83.4962
-80.2753
-77.1644
-74.1431
-71.1584
-68.1576
-65.1379
-62.1725
-59.3716
-56.7933
-54.3661
-51.8888
-49.1216
-45.9153
-42.2973
-38.4753
-34.7476
-31.3997
-28.5755
-26.2899
-24.324
-22.5305
-20.4226
-18.1997
-14.8642
-12.0153
-6.25736
-4.78177
9.12231
-95.4825
-92.2537
-88.9554
-85.6715
-82.4523
-79.3288
-76.3127
-73.3829
-70.4861
-67.569
-64.6283
-61.7361
-59.0023
-56.4858
-54.1169
-51.6973
-48.9881
-45.8396
-42.2763
-38.502
-34.8121
-31.4916
-28.686
-26.414
-24.4609
-22.6829
-20.5951
-18.397
-15.09
-12.2694
-6.53881
-5.08041
8.8241
-96.9722
-94.0386
-90.9021
-87.7021
-84.5192
-81.4008
-78.3763
-75.4563
-72.6189
-69.8107
-66.9781
-64.117
-61.2986
-58.6322
-56.1777
-53.8673
-51.5053
-48.8545
-45.7641
-42.2557
-38.5293
-34.8774
-31.5841
-28.7971
-26.5386
-24.5982
-22.8355
-20.7679
-18.5947
-15.3163
-12.5243
-6.82099
-5.38039
8.52479
-95.4261
-92.5775
-89.5365
-86.4376
-83.3578
-80.3421
-77.4181
-74.5952
-71.8513
-69.1325
-66.3851
-63.6041
-60.8598
-58.2613
-55.8689
-53.6173
-51.3131
-48.7208
-45.6887
-42.2354
-38.5571
-34.9433
-31.6774
-28.9089
-26.6638
-24.7359
-22.9886
-20.9411
-18.7928
-15.5432
-12.7798
-7.10389
-5.68168
8.22441
-96.22
-93.8592
-91.0996
-88.1574
-85.1624
-82.1878
-79.2765
-76.4543
-73.7297
-71.0801
-68.4516
-65.79
-63.0896
-60.42
-57.8896
-55.5595
-53.3668
-51.1206
-48.5869
-45.6135
-42.2156
-38.5856
-35.0099
-31.7713
-29.0212
-26.7894
-24.8741
-23.142
-21.1147
-18.9914
-15.7705
-13.0359
-7.38747
-5.98422
7.92299
-96.1222
-94.5559
-92.2722
-89.6057
-86.7655
-83.8768
-81.0095
-78.2043
-75.4853
-72.8601
-70.3057
-67.7681
-65.1929
-62.5737
-59.9792
-57.5171
-55.2497
-53.1159
-50.9279
-48.453
-45.5384
-42.1962
-38.6146
-35.0772
-31.8659
-29.1342
-26.9155
-25.0126
-23.2958
-21.2886
-19.1903
-15.9982
-13.2926
-7.67173
-6.28797
7.62059
-94.3772
-92.8675
-90.666
-88.0963
-85.3612
-82.5813
-79.8234
-77.1258
-74.5113
-71.9865
-69.5281
-67.0821
-64.5939
-62.0565
-59.5374
-57.144
-54.9393
-52.8646
-50.7348
-48.3191
-45.4634
-42.1771
-38.6442
-35.1451
-31.9611
-29.2477
-27.0421
-25.1515
-23.4499
-21.4629
-19.3896
-16.2264
-13.5499
-7.95663
-6.59289
7.31724
-92.87
-92.6025
-91.1559
-89.0412
-86.5722
-83.9452
-81.2764
-78.6298
-76.0413
-73.5325
-71.1091
-68.7476
-66.3938
-63.9932
-61.538
-59.0947
-56.7702
-54.6284
-52.6129
-50.5416
-48.1851
-45.3887
-42.1585
-38.6743
-35.2136
-32.0569
-29.3617
-27.1692
-25.2908
-23.6043
-21.6375
-19.5892
-16.4551
-13.8078
-8.24215
-6.89894
7.01297
-89.2709
-91.0367
-90.7994
-89.4219
-87.3986
-85.0339
-82.5179
-79.9625
-77.4289
-74.9511
-72.5491
-70.228
-67.9641
-65.7032
-63.3907
-61.0182
-58.6511
-56.3958
-54.3171
-52.361
-50.3482
-48.051
-45.3141
-42.1402
-38.705
-35.2827
-32.1533
-29.4763
-27.2966
-25.4304
-23.759
-21.8123
-19.7893
-16.6842
-14.0662
-8.52829
-7.20609
6.7078
-82.1375
-87.4336
-89.1681
-88.9688
-87.6663
-85.739
-83.4821
-81.0797
-78.64
-76.2211
-73.8553
-71.5613
-69.3435
-67.1779
-65.0105
-62.7867
-60.4973
-58.2067
-56.0209
-54.0053
-52.1087
-50.1545
-47.917
-45.2397
-42.1223
-38.7362
-35.3524
-32.2503
-29.5913
-27.4245
-25.5704
-23.9141
-21.9875
-19.9897
-16.9136
-14.3251
-8.81501
-7.51428
6.40179
-66.4546
-80.4187
-85.5508
-87.2653
-87.1118
-85.8901
-84.0631
-81.9173
-79.6312
-77.3092
-75.0068
-72.7543
-70.5694
-68.4556
-66.389
-64.3158
-62.1811
-59.9752
-57.7616
-55.6454
-53.6932
-51.8561
-49.9607
-47.7829
-45.1655
-42.1047
-38.7679
-35.4227
-32.3479
-29.7069
-27.5528
-25.7108
-24.0694
-22.163
-20.1904
-17.1435
-14.5846
-9.10231
-7.8235
6.09494
-14.5988
-65.137
-78.6398
-83.6244
-85.3297
-85.2297
-84.0942
-82.3716
-80.34
-78.1728
-75.9705
-73.7861
-71.6483
-69.5735
-67.5646
-65.5977
-63.6191
-61.5741
-59.4521
-57.3157
-55.2694
-53.3807
-51.6033
-49.7668
-47.6488
-45.0914
-42.0875
-38.8
-35.4935
-32.446
-29.8229
-27.6815
-25.8514
-24.2251
-22.3388
-20.3914
-17.3738
-14.8445
-9.39016
-8.13369
5.7873
83.9112
-13.7792
-63.7435
-76.8029
-81.6558
-83.3625
-83.3233
-82.2793
-80.6651
-78.7509
-76.7049
-74.6242
-72.5594
-70.5375
-68.5737
-66.6706
-64.804
-62.9206
-60.9656
-58.928
-56.8691
-54.8929
-53.0679
-51.3502
-49.5727
-47.5148
-45.0176
-42.0707
-38.8327
-35.5649
-32.5446
-29.9394
-27.8106
-25.9924
-24.381
-22.5149
-20.5928
-17.6045
-15.105
-9.67855
-8.44484
5.47889
128.276
84.6709
-12.903
-62.2752
-74.9095
-79.6466
-81.3652
-81.3938
-80.4463
-78.9443
-77.1504
-75.2279
-73.2707
-71.327
-69.4221
-67.5703
-65.7736
-64.0079
-62.2203
-60.3559
-58.403
-56.4219
-54.516
-52.7547
-51.0969
-49.3785
-47.3807
-44.9439
-42.0542
-38.8658
-35.6368
-32.6437
-30.0564
-27.9401
-26.1337
-24.5372
-22.6913
-20.7945
-17.8355
-15.3659
-9.96747
-8.75692
5.16974
149.936
128.539
85.4186
-11.9702
-60.7332
-72.9617
-77.5986
-79.3389
-79.442
-78.5958
-77.2097
-75.5389
-73.7422
-71.9102
-70.089
-68.3023
-66.5634
-64.8739
-63.2098
-61.5184
-59.7449
-57.8771
-55.974
-54.1386
-52.4413
-50.8434
-49.1841
-47.2467
-44.8704
-42.038
-38.8993
-35.7092
-32.7433
-30.1738
-28.0699
-26.2753
-24.6937
-22.8679
-20.9966
-18.0669
-15.6272
-10.2569
-9.06987
4.85986
148.611
149.835
128.784
86.1543
-10.9809
-59.1189
-70.9612
-75.5132
-77.2848
-77.4688
-76.7287
-75.4619
-73.917
-72.2482
-70.5431
-68.8457
-67.1783
-65.5532
-63.9716
-62.4095
-60.8148
-59.1327
-57.3503
-55.5256
-53.7609
-52.1275
-50.5897
-48.9897
-47.1127
-44.7971
-42.0222
-38.9334
-35.782
-32.8434
-30.2916
-28.2001
-26.4172
-24.8504
-23.0448
-21.1989
-18.2986
-15.8891
-10.5468
-9.3837
4.54929
143.563
148.105
149.693
129.011
86.8778
-9.9351
-57.4335
-68.9098
-73.3918
-75.204
-75.4753
-74.8456
-73.7015
-72.2851
-70.7463
-69.1697
-67.5974
-66.0503
-64.5398
-63.0667
-61.6073
-60.1097
-58.5193
-56.8227
-55.0766
-53.3828
-51.8135
-50.3358
-48.7952
-46.9787
-44.724
-42.0067
-38.9678
-35.8554
-32.944
-30.4098
-28.3307
-26.5594
-25.0074
-23.222
-21.4015
-18.5307
-16.1513
-10.8372
-9.69834
4.23801
142.559
143.1
147.568
149.51
129.221
87.5889
-8.83317
-55.6785
-66.8092
-71.2359
-73.0977
-73.4621
-72.9472
-71.929
-70.6435
-69.2367
-67.7902
-66.3442
-64.9184
-63.5233
-62.1594
-60.8031
-59.4031
-57.9049
-56.2943
-54.6271
-53.0043
-51.4993
-50.0817
-48.6006
-46.8448
-44.651
-41.9915
-39.0027
-35.9292
-33.045
-30.5285
-28.4615
-26.7018
-25.1647
-23.3994
-21.6044
-18.7631
-16.414
-11.1281
-10.0138
3.92629
138.535
142.187
142.625
147
149.286
129.416
88.2877
-7.67516
-53.8551
-64.6612
-69.047
-70.9669
-71.4301
-71.0341
-70.1449
-68.9928
-67.7197
-66.4048
-65.0864
-63.7829
-62.5039
-61.2498
-59.9972
-58.6952
-57.2895
-55.7652
-54.1771
-52.6256
-51.1849
-49.8275
-48.406
-46.7109
-44.5783
-41.9767
-39.0379
-36.0035
-33.1464
-30.6475
-28.5927
-26.8446
-25.3221
-23.577
-21.8076
-18.9958
-16.6771
-11.4195
-10.3299
3.61388
134.007
138.073
141.801
142.138
146.403
149.021
129.595
88.974
-6.46133
-51.965
-62.4676
-66.8262
-68.8125
-69.3801
-69.1069
-68.3497
-67.3333
-66.1958
-65.0139
-63.8242
-62.6438
-61.4818
-60.338
-59.1895
-57.9859
-56.673
-55.2355
-53.7267
-52.2465
-50.8702
-49.5732
-48.2112
-46.5771
-44.5057
-41.9621
-39.0736
-36.0782
-33.2483
-30.7669
-28.7242
-26.9875
-25.4799
-23.7549
-22.011
-19.2289
-16.9406
-11.7111
-10.6468
3.29895
129.945
133.563
137.597
141.402
141.641
145.777
148.713
129.762
89.6479
-5.19202
-50.0096
-60.23
-64.575
-66.6356
-67.3127
-67.1662
-66.5439
-65.6653
-64.6652
-63.6177
-62.5577
-61.5014
-60.4569
-59.4241
-58.3802
-57.2754
-56.0557
-54.7051
-53.2758
-51.8671
-50.5553
-49.3187
-48.0164
-46.4433
-44.4333
-41.9478
-39.1097
-36.1533
-33.3506
-30.8866
-28.856
-27.1308
-25.6378
-23.933
-22.2147
-19.4623
-17.2044
-12.0032
-10.9663
2.9822
124.204
129.529
133.11
137.106
140.99
141.136
145.125
148.364
129.915
90.3091
-3.86758
-47.9903
-57.9501
-62.2945
-64.437
-65.2288
-65.2126
-64.7279
-63.9894
-63.1282
-62.2163
-61.2872
-60.3557
-59.4296
-58.5082
-57.5693
-56.5636
-55.4374
-54.174
-52.8246
-51.4875
-50.2403
-49.0641
-47.8216
-46.3095
-44.361
-41.9339
-39.1461
-36.2289
-33.4533
-31.0067
-28.9881
-27.2743
-25.796
-24.1114
-22.4187
-19.6958
-17.4685
-12.2976
-11.2877
2.66829
117.392
123.755
129.104
132.648
136.603
140.566
140.622
144.448
147.972
130.056
90.9579
-2.48794
-45.9087
-55.6295
-59.9859
-62.2177
-63.1291
-63.2465
-62.9022
-62.3056
-61.585
-60.8101
-60.0128
-59.207
-58.3997
-57.5904
-56.757
-55.8508
-54.8184
-53.6424
-52.3729
-51.1076
-49.9251
-48.8094
-47.6267
-46.1758
-44.289
-41.9202
-39.1829
-36.3048
-33.5564
-31.1272
-29.1205
-27.418
-25.9545
-24.29
-22.6229
-19.9297
-17.7349
-12.5939
-11.6059
2.35781
116.927
123.296
128.67
132.18
136.086
140.128
140.102
143.747
147.536
130.185
91.5955
-1.05293
-43.7664
-53.2698
-57.6505
-59.9785
-61.014
-61.2687
-61.0671
-60.6144
-60.0359
-59.3992
-58.7347
-58.0553
-57.3676
-56.6707
-55.9432
-55.1368
-54.1985
-53.1103
-51.9209
-50.7275
-49.6097
-48.5545
-47.4318
-46.0422
-44.2171
-41.9068
-39.2201
-36.3812
-33.6598
-31.248
-29.2532
-27.562
-26.1131
-24.4687
-22.8273
-20.1656
-18.0028
-12.8873
-11.9203
2.04804
110.325
116.457
122.83
128.229
131.704
135.557
139.678
139.575
143.023
147.056
130.297
92.2226
0.437529
-41.5648
-50.8724
-55.2893
-57.7203
-58.8845
-59.2794
-59.223
-58.9162
-58.4812
-57.9838
-57.453
-56.9008
-56.3332
-55.7493
-55.128
-54.4218
-53.5778
-52.5776
-51.4685
-50.3471
-49.2941
-48.2996
-47.2369
-45.9087
-44.1454
-41.8937
-39.2576
-36.4579
-33.7637
-31.3691
-29.3861
-27.7062
-26.2719
-24.6477
-23.0334
-20.4028
-18.2682
-13.1777
-12.234
1.7382
109.862
115.982
122.356
127.78
131.222
135.017
139.215
139.042
142.278
146.529
130.384
92.8408
1.98344
-39.3055
-48.439
-52.9033
-55.4438
-56.7409
-57.2793
-57.3703
-57.2111
-56.9211
-56.5641
-56.1678
-55.7436
-55.2967
-54.8263
-54.3115
-53.7058
-52.9565
-52.0444
-51.0158
-49.9665
-48.9784
-48.0446
-47.0419
-45.7752
-44.0738
-41.8809
-39.2955
-36.535
-33.8678
-31.4905
-29.5194
-27.8506
-26.4309
-24.8282
-23.2408
-20.6378
-18.5307
-13.4677
-12.5477
1.42886
104.037
109.397
115.502
121.874
127.324
130.733
134.464
138.739
138.505
141.514
145.956
130.445
93.4522
3.58457
-36.9903
-45.9708
-50.4938
-53.1498
-54.5839
-55.2686
-55.5095
-55.4996
-55.3558
-55.1402
-54.8795
-54.5838
-54.2582
-53.9016
-53.4938
-52.9889
-52.3344
-51.5107
-50.5627
-49.5857
-48.6626
-47.7895
-46.8469
-45.6417
-44.0025
-41.8683
-39.3337
-36.6125
-33.9724
-31.6123
-29.6528
-27.9952
-26.5912
-25.0098
-23.4462
-20.8702
-18.793
-13.7581
-12.8607
1.12045
103.581
108.93
115.017
121.384
126.861
130.239
133.901
138.251
137.965
140.73
145.34
130.483
94.0585
5.24064
-34.6207
-43.4694
-48.0614
-50.839
-52.4141
-53.248
-53.6407
-53.7817
-53.7856
-53.7125
-53.588
-53.4215
-53.2177
-52.9754
-52.6749
-52.271
-51.7117
-50.9765
-50.1094
-49.2048
-48.3467
-47.5343
-46.6519
-45.5084
-43.9313
-41.856
-39.3722
-36.6903
-34.0772
-31.7342
-29.7864
-28.1411
-26.7526
-25.1895
-23.6493
-21.1026
-19.0557
-14.0481
-13.1725
0.81292
103.126
108.461
114.528
120.888
126.39
129.739
133.328
137.749
137.421
139.93
144.69
130.502
94.6606
6.95109
-32.1985
-40.9361
-45.6073
-48.512
-50.2319
-51.2178
-51.7644
-52.0579
-52.2106
-52.281
-52.2935
-52.2569
-52.1753
-52.0477
-51.8548
-51.5523
-51.0883
-50.4419
-49.6558
-48.8236
-48.0306
-47.2791
-46.4569
-45.3751
-43.8602
-41.8439
-39.4111
-36.7685
-34.1824
-31.8565
-29.9214
-28.2879
-26.9123
-25.3673
-23.8524
-21.3354
-19.318
-14.3374
-13.4832
0.506173
102.671
107.99
114.034
120.385
125.912
129.234
132.744
137.235
136.874
139.114
144.015
130.504
95.2585
8.71532
-29.7253
-38.3722
-43.1324
-46.1697
-48.038
-49.1784
-49.8807
-50.3283
-50.631
-50.8458
-50.9961
-51.09
-51.1312
-51.1186
-51.0337
-50.8327
-50.4643
-49.9069
-49.2019
-48.4423
-47.7144
-47.0238
-46.2619
-45.2419
-43.7893
-41.8321
-39.4502
-36.8469
-34.2878
-31.98
-30.0571
-28.4331
-27.0702
-25.5451
-24.0559
-21.5679
-19.5797
-14.626
-13.793
0.200218
98.396
102.216
107.517
113.536
119.874
125.427
128.724
132.151
136.709
136.326
138.29
143.323
130.488
95.852
10.5329
-27.2026
-35.7789
-40.6374
-43.8126
-45.8327
-47.13
-47.9902
-48.5933
-49.0471
-49.4072
-49.696
-49.9209
-50.0853
-50.1881
-50.2114
-50.1123
-49.8397
-49.3715
-48.7477
-48.0608
-47.3982
-46.7684
-46.0669
-45.1087
-43.7186
-41.8206
-39.4897
-36.9257
-34.3945
-32.1042
-30.1913
-28.5766
-27.2281
-25.7233
-24.2591
-21.7998
-19.8407
-14.9141
-14.1018
-0.104887
97.965
101.762
107.042
113.035
119.357
124.935
128.21
131.549
136.169
135.775
137.461
142.615
130.454
96.4407
12.4032
-24.6323
-33.1575
-38.1234
-41.4413
-43.6165
-45.0733
-46.093
-46.853
-47.459
-47.9653
-48.3933
-48.7498
-49.0378
-49.2564
-49.3882
-49.3912
-49.2146
-48.8357
-48.2933
-47.6791
-47.0818
-46.513
-45.8718
-44.9757
-43.6481
-41.8092
-39.5294
-37.0055
-34.5017
-32.2269
-30.3238
-28.7202
-27.3864
-25.9013
-24.4619
-22.0312
-20.1014
-15.2016
-14.4095
-0.409096
95.8899
97.5368
101.308
106.565
112.529
118.834
124.437
127.692
130.938
135.616
135.223
136.63
141.893
130.4
97.0247
14.3255
-22.016
-30.5093
-35.5909
-39.0563
-41.3899
-43.0085
-44.1894
-45.1076
-45.8669
-46.5201
-47.088
-47.5766
-47.9887
-48.3234
-48.564
-48.6693
-48.5889
-48.2996
-47.8387
-47.2973
-46.7653
-46.2575
-45.6768
-44.8426
-43.5777
-41.7981
-39.5699
-37.0857
-34.6074
-32.3479
-30.4563
-28.864
-27.5444
-26.0788
-24.6642
-22.2623
-20.3615
-15.4885
-14.7161
-0.712385
95.4914
97.1116
100.855
106.086
112.019
118.304
123.932
127.17
130.319
135.049
134.67
135.798
141.155
130.326
97.604
16.2994
-19.3552
-27.8352
-33.0408
-36.6584
-39.1533
-40.9358
-42.2797
-43.3573
-44.2709
-45.0719
-45.7803
-46.4015
-46.9381
-47.3892
-47.7389
-47.9467
-47.9628
-47.7631
-47.3838
-46.9154
-46.4488
-46.002
-45.4818
-44.7098
-43.5075
-41.7875
-39.6106
-37.1645
-34.7115
-32.4689
-30.5891
-29.0075
-27.702
-26.256
-24.8663
-22.4931
-20.6211
-15.7748
-15.0215
-1.01473
95.0973
96.6892
100.402
105.605
111.506
117.769
123.42
126.644
129.692
134.47
134.118
134.96
140.401
130.231
98.1788
18.324
-16.6516
-25.1363
-30.4739
-34.2479
-36.9072
-38.8557
-40.364
-41.6024
-42.6712
-43.6208
-44.4702
-45.2246
-45.886
-46.4539
-46.9129
-47.2235
-47.3361
-47.2262
-46.9287
-46.5333
-46.1321
-45.7465
-45.2868
-44.5769
-43.4373
-41.7767
-39.65
-37.2418
-34.8156
-32.5901
-30.7215
-29.1507
-27.8593
-26.4329
-25.0681
-22.7234
-20.8801
-16.0604
-15.3257
-1.31609
94.7076
96.2696
99.9489
105.121
110.989
117.227
122.902
126.115
129.059
133.876
133.564
134.113
139.628
130.114
98.7494
20.3989
-13.9066
-22.4138
-27.8908
-31.8255
-34.6518
-36.7683
-38.4428
-39.8431
-41.068
-42.1669
-43.1579
-44.0459
-44.8325
-45.5175
-46.086
-46.4995
-46.709
-46.6891
-46.4735
-46.1511
-45.8154
-45.491
-45.0919
-44.4437
-43.3666
-41.765
-39.6884
-37.3192
-34.9198
-32.7109
-30.8535
-29.2935
-28.0164
-26.6096
-25.2695
-22.9533
-21.1385
-16.3453
-15.6286
-1.61644
94.322
95.8527
99.4962
104.636
110.469
116.68
122.378
125.583
128.419
133.269
133.006
133.254
138.838
129.974
99.3159
22.5233
-11.1221
-19.6687
-25.2922
-29.3914
-32.3875
-34.6741
-36.5161
-38.0794
-39.4613
-40.7102
-41.8435
-42.8654
-43.7776
-44.58
-45.2583
-45.775
-46.0814
-46.1516
-46.018
-45.7688
-45.4987
-45.2354
-44.8961
-44.3097
-43.2954
-41.7527
-39.7269
-37.3967
-35.0236
-32.8312
-30.9851
-29.436
-28.1732
-26.786
-25.4705
-23.1827
-21.3964
-16.6296
-15.9302
-1.91573
93.9405
95.4384
99.0438
104.149
109.946
116.128
121.847
125.048
127.773
132.649
132.438
132.38
138.03
129.812
99.8781
24.6961
-8.29932
-16.9019
-22.6786
-26.9464
-30.1149
-32.5733
-34.5841
-36.3116
-37.8514
-39.2509
-40.527
-41.6834
-42.7215
-43.6414
-44.4298
-45.0498
-45.4533
-45.6138
-45.5623
-45.3865
-45.182
-44.9786
-44.6991
-44.1755
-43.2241
-41.7406
-39.7654
-37.4738
-35.1269
-32.9511
-31.1165
-29.5783
-28.3297
-26.962
-25.6711
-23.4116
-21.6536
-16.913
-16.2305
-2.21394
93.563
95.0265
98.5915
103.661
109.419
115.57
121.311
124.51
127.121
132.016
131.856
131.49
137.205
129.626
100.436
26.9166
-5.43982
-14.1142
-20.0508
-24.4907
-27.834
-30.4661
-32.6472
-34.5398
-36.2383
-37.7891
-39.2084
-40.4997
-41.6641
-42.7019
-43.6005
-44.3241
-44.8249
-45.0757
-45.1066
-45.0041
-44.8636
-44.7203
-44.5024
-44.0418
-43.1532
-41.7285
-39.8035
-37.5503
-35.2297
-33.0707
-31.2475
-29.7203
-28.4859
-27.1377
-25.8713
-23.6401
-21.9101
-17.1958
-16.5294
-2.51102
93.1892
94.6171
98.1393
103.17
108.89
115.007
120.767
123.97
126.465
131.368
131.259
130.585
136.365
129.417
100.989
29.1839
-2.54495
-11.3065
-17.4093
-22.0248
-25.5453
-28.3528
-30.7054
-32.7642
-34.6221
-36.3248
-37.888
-39.3145
-40.6055
-41.7614
-42.7704
-43.5978
-44.196
-44.5377
-44.6508
-44.6196
-44.5432
-44.4626
-44.3069
-43.9087
-43.0824
-41.7161
-39.8411
-37.6263
-35.3321
-33.1898
-31.3781
-29.8619
-28.6417
-27.313
-26.0711
-23.868
-22.166
-17.4777
-16.8267
-2.80693
92.8192
94.21
97.6872
102.677
108.357
114.44
120.218
123.427
125.805
130.703
130.646
129.666
135.511
129.184
101.536
31.4972
0.383855
-8.47981
-14.7546
-19.5491
-23.2491
-26.2336
-28.7591
-30.9849
-33.0031
-34.8583
-36.5656
-38.1278
-39.5457
-40.82
-41.9397
-42.8709
-43.567
-43.9992
-44.1923
-44.2327
-44.2239
-44.2066
-44.112
-43.7756
-43.0112
-41.7032
-39.8782
-37.7019
-35.4341
-33.3086
-31.5083
-30.0032
-28.7972
-27.488
-26.2705
-24.0954
-22.4212
-17.7588
-17.1226
-3.10164
92.4527
93.8051
97.2351
102.182
107.822
113.868
119.663
122.882
125.141
130.022
130.018
128.735
134.643
128.928
102.078
33.8554
3.34526
-5.63474
-12.0873
-17.064
-20.9457
-24.1088
-26.8082
-29.202
-31.3812
-33.3894
-35.2415
-36.9397
-38.4847
-39.8777
-41.1082
-42.1438
-42.9376
-43.4577
-43.731
-43.8473
-43.9069
-43.9513
-43.917
-43.6422
-42.9395
-41.6899
-39.915
-37.7771
-35.5356
-33.4268
-31.6382
-30.1441
-28.9524
-27.6626
-26.4694
-24.3222
-22.6756
-18.039
-17.4169
-3.39508
92.0896
93.4024
96.7831
101.686
107.284
113.291
119.102
122.335
124.475
129.325
129.377
127.793
133.761
128.649
102.614
36.2578
6.33802
-2.77209
-9.40779
-14.5698
-18.6353
-21.9785
-24.853
-27.4158
-29.7565
-31.9184
-33.9157
-35.7502
-37.4227
-38.9345
-40.2765
-41.4162
-42.3043
-42.9128
-43.2717
-43.4647
-43.5905
-43.6959
-43.7217
-43.5085
-42.8677
-41.6763
-39.9513
-37.8517
-35.6366
-33.5447
-31.7676
-30.2846
-29.1072
-27.8368
-26.6679
-24.5485
-22.9293
-18.3183
-17.7096
-3.68723
91.7298
93.0017
96.3311
101.187
106.744
112.711
118.534
121.785
123.807
128.616
128.726
126.842
132.868
128.347
103.144
38.7033
9.36089
0.10741
-6.71664
-12.0669
-16.3182
-19.843
-22.8937
-25.6262
-28.1293
-30.4453
-32.5881
-34.5594
-36.3596
-37.991
-39.444
-40.6841
-41.6672
-42.3704
-42.8158
-43.083
-43.274
-43.4402
-43.5262
-43.3746
-42.7957
-41.6624
-39.9872
-37.9259
-35.7371
-33.662
-31.8967
-30.4248
-29.2617
-28.0106
-26.8658
-24.7742
-23.1821
-18.5967
-18.0005
-3.97804
91.3733
92.6031
95.879
100.687
106.201
112.126
117.961
121.234
123.136
127.896
128.066
125.883
131.961
128.024
103.666
41.1911
12.4127
3.0031
-4.01426
-9.55567
-13.9947
-17.7024
-20.9304
-23.8335
-26.4995
-28.9702
-31.259
-33.3672
-35.296
-37.0465
-38.6063
-39.9475
-41.0333
-41.8322
-42.3609
-42.7009
-42.9572
-43.1844
-43.3307
-43.2407
-42.7233
-41.648
-40.0225
-37.9995
-35.8371
-33.7789
-32.0252
-30.5646
-29.4157
-28.184
-27.0633
-24.9992
-23.4341
-18.8741
-18.2897
-4.26746
91.0199
92.2063
95.4269
100.185
105.655
111.537
117.382
120.68
122.463
127.17
127.399
124.915
131.042
127.681
104.182
43.7203
15.4922
5.91433
-1.30108
-7.03633
-11.6649
-15.557
-18.9633
-22.0377
-24.8672
-27.4931
-29.9282
-32.1744
-34.2313
-36.096
-37.7634
-39.2147
-40.4043
-41.2951
-41.9056
-42.3186
-42.6403
-42.9286
-43.1352
-43.1065
-42.6507
-41.6332
-40.0574
-38.0725
-35.9365
-33.8952
-32.1534
-30.7039
-29.5694
-28.3569
-27.2602
-25.2236
-23.6853
-19.1505
-18.577
-4.55542
90.6694
91.8114
94.9748
99.6813
105.108
110.945
116.797
120.125
121.79
126.44
126.727
123.94
130.11
127.318
104.69
46.2901
18.5986
8.8405
1.42249
-4.50923
-9.32914
-13.4068
-16.9924
-20.2389
-23.2326
-26.014
-28.5966
-30.9803
-33.1596
-35.1396
-36.9252
-38.4878
-39.7767
-40.7576
-41.45
-41.9362
-42.3236
-42.6728
-42.9396
-42.9722
-42.5778
-41.618
-40.0917
-38.145
-36.0353
-34.011
-32.281
-30.8429
-29.7226
-28.5294
-27.4565
-25.4473
-23.9356
-19.4258
-18.8624
-4.84189
90.3218
91.4183
94.5226
99.1756
104.558
110.35
116.206
119.567
121.119
125.708
126.049
122.957
129.165
126.935
105.189
48.8995
21.7305
11.781
4.15607
-1.97463
-6.98759
-11.2521
-15.0179
-18.4373
-21.5956
-24.5339
-27.2634
-29.7782
-32.0814
-34.1887
-36.0938
-37.7625
-39.1485
-40.2198
-40.9945
-41.554
-42.0068
-42.417
-42.7438
-42.8376
-42.5045
-41.6023
-40.1255
-38.2168
-36.1335
-34.1263
-32.4081
-30.9813
-29.8754
-28.7014
-27.6522
-25.6703
-24.1849
-19.7001
-19.1459
-5.12681
89.9769
91.0269
94.0703
98.6681
104.005
109.751
115.61
119.006
120.452
124.974
125.366
121.966
128.206
126.533
105.681
51.5478
24.8872
14.7353
6.89928
0.567211
-4.64047
-9.09305
-13.04
-16.6327
-19.9572
-23.0518
-25.9212
-28.5688
-31.0095
-33.2456
-35.2641
-37.0365
-38.5202
-39.6821
-40.5392
-41.1719
-41.6901
-42.1611
-42.5479
-42.7029
-42.4309
-41.5862
-40.1586
-38.288
-36.2311
-34.2409
-32.5348
-31.1193
-30.0277
-28.8729
-27.8474
-25.8925
-24.4333
-19.9732
-19.4272
-5.41012
89.6347
90.6371
93.6179
98.1588
103.451
109.149
115.007
118.443
119.788
124.239
124.677
120.968
127.233
126.111
106.164
54.2341
28.0676
17.7029
9.65181
3.11601
-2.28793
-6.9298
-11.0585
-14.8265
-18.3165
-21.5596
-24.5708
-27.3666
-29.9466
-32.3045
-34.4338
-36.3104
-37.8921
-39.1449
-40.0841
-40.7898
-41.3733
-41.9051
-42.3519
-42.5679
-42.3568
-41.5695
-40.1912
-38.3585
-36.328
-34.355
-32.6608
-31.2568
-30.1795
-29.0438
-28.0419
-26.114
-24.6806
-20.2451
-19.7064
-5.69177
89.2951
90.2489
93.1654
97.6477
102.895
108.545
114.399
117.876
119.127
123.503
123.982
119.961
126.246
125.668
106.638
56.9576
31.2708
20.6832
12.4133
5.67158
0.0697309
-4.76219
-9.07488
-13.0174
-16.6644
-20.0583
-23.2287
-26.1747
-28.8858
-31.3627
-33.6034
-35.5848
-37.2645
-38.6078
-39.629
-40.4077
-41.0564
-41.649
-42.1557
-42.4326
-42.2824
-41.5523
-40.223
-38.4284
-36.4242
-34.4684
-32.7863
-31.3938
-30.3308
-29.2143
-28.2358
-26.3346
-24.9269
-20.5157
-19.9833
-5.97169
88.9579
89.8621
92.7128
97.1348
102.336
107.938
113.786
117.306
118.47
122.765
123.281
118.947
125.244
125.204
107.103
59.7176
34.496
23.6759
15.1835
8.23356
2.43272
-2.59192
-7.08782
-11.1955
-15.0022
-18.5664
-21.8982
-24.9853
-27.8243
-30.4208
-32.7736
-34.8598
-36.6373
-38.071
-39.1741
-40.0256
-40.7395
-41.3929
-41.9594
-42.297
-42.2076
-41.5345
-40.2542
-38.4975
-36.5197
-34.5811
-32.9113
-31.5303
-30.4816
-29.3841
-28.4289
-26.5544
-25.172
-20.7851
-20.258
-6.24981
88.623
89.4768
92.2601
96.6202
101.776
107.328
113.167
116.733
117.814
122.025
122.572
117.926
124.226
124.717
107.558
62.5133
37.7423
26.6805
17.9619
10.8022
4.79915
-0.41743
-5.08645
-9.36255
-13.3508
-17.0877
-20.5704
-23.795
-26.7629
-29.4798
-31.9446
-34.1353
-36.0104
-37.5343
-38.7192
-39.6435
-40.4226
-41.1366
-41.7628
-42.1612
-42.1323
-41.5161
-40.2847
-38.5658
-36.6144
-34.6932
-33.0356
-31.6662
-30.6319
-29.5533
-28.6214
-26.7734
-25.416
-21.0531
-20.5301
-6.5261
88.2905
89.0929
91.8072
96.1039
101.214
106.716
112.542
116.155
117.16
121.28
121.857
116.9
123.192
124.205
108.003
65.344
41.0091
29.6964
20.7487
13.3753
7.17074
1.77304
-3.07294
-7.5417
-11.714
-15.612
-19.2418
-22.6048
-25.7024
-28.5397
-31.1162
-33.4113
-35.3838
-36.9978
-38.2643
-39.2614
-40.1056
-40.8802
-41.5661
-42.025
-42.0565
-41.4971
-40.3145
-38.6333
-36.7084
-34.8045
-33.1592
-31.8015
-30.7815
-29.7219
-28.813
-26.9914
-25.6588
-21.3198
-20.7998
-6.80046
87.96
88.7102
91.3543
95.5858
100.649
106.102
111.912
115.574
116.506
120.531
121.134
115.872
122.142
123.665
108.439
68.209
44.2954
32.7238
23.5417
15.9548
9.56018
3.97679
-1.07304
-5.7373
-10.0807
-14.1354
-17.9134
-21.4159
-24.6431
-27.6005
-30.2885
-32.6876
-34.7575
-36.4615
-37.8095
-38.8792
-39.7885
-40.6237
-41.3692
-41.8884
-41.9803
-41.4774
-40.3434
-38.7
-36.8015