/*--------------------------------*- C++ -*----------------------------------*\
  =========                 |
  \\      /  F ield         | OpenFOAM: The Open Source CFD Toolbox
   \\    /   O peration     | Website:  https://openfoam.org
    \\  /    A nd           | Version:  7
     \\/     M anipulation  |
\*---------------------------------------------------------------------------*/
FoamFile
{
    version     2.0;
    format      ascii;
    class       surfaceScalarField;
    location    "600";
    object      phi;
}
// * * * * * * * * * * * * * * * * * * * * * * * * * * * * * * * * * * * * * //

dimensions      [0 3 -1 0 0 0 0];

internalField   nonuniform List<scalar> 
45693
(
-0.00154468
0.0699611
-0.00153593
0.0707533
-0.00148195
0.0699488
-0.00153626
0.0700829
-0.00147339
0.0707447
-0.00142188
0.069937
0.0689001
-0.0014736
0.0700832
-0.00141352
0.0707363
-0.00136414
0.0699256
-0.00147348
0.0689
-0.0014136
0.0700832
-0.00135597
0.0707282
-0.00130882
0.0699146
-0.00147501
0.0675668
-0.00141337
0.0688998
-0.00135594
0.0700832
-0.00130083
0.0707202
-0.00125581
0.0699039
-0.0014768
0.0660444
-0.00141473
0.0675681
-0.0013556
0.0688995
-0.0013007
0.0700831
-0.00124802
0.0707124
-0.00120493
0.0698936
-0.00147887
0.0644853
-0.00141635
0.066046
-0.0013568
0.0675693
-0.00130027
0.068899
-0.00124778
0.0700828
-0.00119732
0.0707048
-0.00115612
0.0698837
-0.00148086
0.062901
-0.00141824
0.0644872
-0.00135826
0.0660475
-0.00130131
0.0675704
-0.00124726
0.0688985
-0.00119699
0.0700825
-0.0011487
0.0706973
-0.00110929
0.0698741
-0.00148278
0.0613339
-0.00142004
0.0629028
-0.00135998
0.0644889
-0.00130261
0.0660488
-0.00124817
0.0675713
-0.00119639
0.0688979
-0.00114828
0.0700821
-0.00110205
0.0706901
-0.00106442
0.0698649
0.0598493
-0.00142178
0.0613357
-0.00136161
0.0629045
-0.00130417
0.0644905
-0.00124932
0.0660499
-0.00119716
0.0675721
-0.00114761
0.0688972
-0.00110155
0.0700816
-0.00105736
0.070683
-0.00102138
0.069856
-0.00142358
0.0598511
-0.00136318
0.0613373
-0.00130566
0.062906
-0.00125073
0.0644919
-0.00119818
0.066051
-0.00114826
0.0675727
-0.00110081
0.0688965
-0.0010568
0.070081
-0.00101451
0.0706762
-0.000980073
0.0698474
-0.00142576
0.0584347
-0.00136479
0.0598527
-0.00130706
0.0613387
-0.00125206
0.0629073
-0.00119945
0.0644932
-0.00114915
0.0660519
-0.00110134
0.0675732
-0.00105599
0.0688957
-0.00101388
0.0700804
-0.000973374
0.0706695
-0.000940487
0.0698391
-0.00142874
0.0570938
-0.00136677
0.0584367
-0.0013085
0.0598541
-0.00125332
0.0613399
-0.00120065
0.0629085
-0.00115028
0.0644943
-0.00110212
0.0660526
-0.00105642
0.0675737
-0.00101301
0.0688948
-0.000972684
0.0700797
-0.000933966
0.0706629
-0.000902484
0.0698311
-0.00143285
0.0558003
-0.00136949
0.0570966
-0.00131028
0.0584385
-0.0012546
0.0598554
-0.00120177
0.061341
-0.00115135
0.0629096
-0.00110313
0.0644953
-0.00105708
0.0660533
-0.00101334
0.067574
-0.000971771
0.0688939
-0.00093322
0.070079
-0.000896136
0.0706566
-0.000866011
0.0698234
0.0545004
-0.0013733
0.0558042
-0.00131276
0.057099
-0.00125619
0.0584401
-0.00120289
0.0598565
-0.00115234
0.061342
-0.00110407
0.0629105
-0.00105797
0.0644962
-0.00101389
0.0660538
-0.000971999
0.0675742
-0.000932262
0.068893
-0.000895341
0.0700782
-0.000859836
0.0706504
-0.000831068
0.069816
-0.0013784
0.0545055
-0.00131629
0.0558077
-0.00125845
0.0571013
-0.00120431
0.0584415
-0.00115332
0.0598575
-0.00110493
0.0613429
-0.0010588
0.0629113
-0.00101468
0.064497
-0.000972458
0.0660543
-0.000932402
0.0675744
-0.000894342
0.068892
-0.000858995
0.0700773
-0.000825062
0.0706444
-0.000797557
0.0698089
-0.00138474
0.0531921
-0.00132104
0.0545103
-0.0012617
0.0558109
-0.00120635
0.0571033
-0.00115457
0.0584428
-0.00110579
0.0598584
-0.00105955
0.0613436
-0.0010154
0.062912
-0.000973139
0.0644977
-0.00093277
0.0660547
-0.000894401
0.0675744
-0.00085796
0.0688909
-0.000824181
0.0700764
-0.000791717
0.0706386
-0.000765382
0.069802
0.0518031
-0.00132701
0.0531981
-0.00126614
0.0545147
-0.00120935
0.0558139
-0.00115642
0.0571052
-0.00110689
0.0584438
-0.00106028
0.0598591
-0.00101604
0.0613443
-0.000973763
0.0629127
-0.000933355
0.0644983
-0.000894684
0.066055
-0.000857945
0.0675744
-0.000823114
0.0688899
-0.0007908
0.0700755
-0.000759706
0.0706329
-0.000734494
0.0697953
-0.00133397
0.0518101
-0.00127175
0.0532037
-0.00121348
0.0545189
-0.00115917
0.0558167
-0.00110854
0.0571069
-0.00106124
0.0584448
-0.00101666
0.0598597
-0.000974305
0.0613448
-0.000933887
0.0629132
-0.00089518
0.0644987
-0.000858149
0.0660552
-0.000823029
0.0675743
-0.000789707
0.0688888
-0.000758758
0.0700746
-0.00072898
0.0706274
-0.000704939
0.0697889
-0.00134163
0.0503826
-0.00127832
0.0518166
-0.00121875
0.053209
-0.00116302
0.0545227
-0.00111107
0.0558192
-0.00106272
0.0571083
-0.00101748
0.0584456
-0.000974817
0.0598602
-0.000934336
0.0613453
-0.000895625
0.0629136
-0.000858561
0.0644992
-0.00082316
0.0660553
-0.000789558
0.0675742
-0.000757641
0.0688876
-0.000728004
0.0700736
-0.000699583
0.070622
-0.000676526
0.0697828
-0.00134976
0.0489203
-0.00128558
0.0503899
-0.00122495
0.0518228
-0.00116796
0.0532139
-0.00111464
0.0545263
-0.00106503
0.0558215
-0.0010188
0.0571096
-0.000975512
0.0584463
-0.000934749
0.0598607
-0.000895989
0.0613456
-0.000858926
0.062914
-0.000823495
0.0644995
-0.000789621
0.0660553
-0.000757433
0.067574
-0.000726867
0.0688865
-0.000698582
0.0700726
-0.000671326
0.0706168
-0.000649301
0.0697769
-0.00135828
0.0474577
-0.00129329
0.048928
-0.00123182
0.0503967
-0.00117381
0.0518287
-0.00111927
0.0532185
-0.00106834
0.0545296
-0.0010209
0.0558236
-0.000976673
0.0571108
-0.000935328
0.0584469
-0.000896309
0.059861
-0.00085921
0.0613459
-0.000823785
0.0629143
-0.000789884
0.0644998
-0.000757434
0.0660553
-0.000726605
0.0675737
-0.000697429
0.0688854
-0.000670305
0.0700716
-0.000644254
0.0706118
-0.000623122
0.0697711
0.0460088
-0.00130137
0.0474657
-0.00123913
0.0489353
-0.00118031
0.0504032
-0.00112478
0.0518342
-0.00107267
0.0532229
-0.00102397
0.0545327
-0.000978582
0.0558255
-0.000936343
0.0571118
-0.00089678
0.0584474
-0.000859446
0.0598612
-0.000823995
0.0613461
-0.000790105
0.0629145
-0.000757629
0.0645
-0.000726548
0.0660553
-0.000697118
0.0675734
-0.000669139
0.0688842
-0.000643215
0.0700705
-0.000618225
0.0706069
-0.000598127
0.0697657
-0.00130992
0.0460174
-0.0012468
0.0474734
-0.00118723
0.0489422
-0.00113092
0.0504094
-0.00107786
0.0518394
-0.00102802
0.0532269
-0.000981418
0.0545355
-0.000938071
0.0558272
-0.00089766
0.0571127
-0.000859815
0.0584477
-0.000824152
0.0598614
-0.000790246
0.0613463
-0.000757787
0.0629147
-0.000726682
0.0645001
-0.000697008
0.0660552
-0.000668783
0.067573
-0.000642039
0.068883
-0.000617171
0.0700695
-0.000593376
0.0706021
-0.000573987
0.0697604
-0.0013191
0.0445883
-0.00125492
0.0460255
-0.00119451
0.0474807
-0.00113749
0.0489488
-0.00108367
0.0504152
-0.0010329
0.0518443
-0.000985201
0.0532307
-0.000940686
0.0545381
-0.000899216
0.0558288
-0.000860568
0.0571135
-0.000824428
0.058448
-0.000790331
0.0598615
-0.000757865
0.0613464
-0.00072678
0.0629148
-0.000697085
0.0645002
-0.000668624
0.066055
-0.000641642
0.0675726
-0.000615988
0.0688818
-0.000592312
0.0700684
-0.000569381
0.0705975
-0.000550982
0.0697553
0.0431718
-0.00126364
0.044597
-0.00120221
0.0460332
-0.00114438
0.0474876
-0.00108988
0.048955
-0.00103838
0.0504207
-0.000989791
0.0518489
-0.000944215
0.0532342
-0.000901623
0.0545405
-0.000861964
0.0558302
-0.000825063
0.0571141
-0.00079052
0.0584482
-0.000757882
0.0598615
-0.000726801
0.0613464
-0.000697128
0.0629148
-0.000668647
0.0645002
-0.000641438
0.0660548
-0.000615555
0.0675722
-0.000591124
0.0688806
-0.000568308
0.0700674
-0.000546517
0.0705931
-0.000528783
0.0697504
-0.00127313
0.0431813
-0.0012105
0.0446053
-0.00115169
0.0460405
-0.00109642
0.0474941
-0.00104426
0.0489609
-0.000994966
0.0504258
-0.000948527
0.0518532
-0.000904911
0.0532375
-0.000864174
0.0545427
-0.000826308
0.0558314
-0.000791045
0.0571146
-0.000757992
0.0584483
-0.000726756
0.0598614
-0.000697095
0.0613463
-0.00066864
0.0629148
-0.000641413
0.0645002
-0.00061531
0.0660546
-0.000590657
0.0675717
-0.000567118
0.0688795
-0.000545437
0.0700663
-0.000524456
0.0705887
-0.000507577
0.0697457
-0.00128343
0.0417587
-0.00121952
0.0431903
-0.00115956
0.0446131
-0.00110335
0.0460474
-0.00105046
0.0475003
-0.00100053
0.0489664
-0.000953408
0.0504307
-0.000908957
0.0518572
-0.000867232
0.0532406
-0.000828332
0.0545448
-0.000792148
0.0558325
-0.000758414
0.057115
-0.000726793
0.0584483
-0.000696995
0.0598613
-0.000668558
0.0613463
-0.00064136
0.0629148
-0.00061524
0.0645001
-0.000590375
0.0660543
-0.000566621
0.0675712
-0.000544248
0.0688783
-0.000523373
0.0700652
-0.000503384
0.0705846
-0.00048722
0.0697412
0.040321
-0.00122933
0.0417685
-0.00116813
0.0431989
-0.00111082
0.0446206
-0.00105703
0.046054
-0.00100639
0.0475062
-0.000958666
0.0489717
-0.000913558
0.0504353
-0.000871026
0.051861
-0.000831173
0.0532434
-0.000793996
0.0545466
-0.000759384
0.0558335
-0.000727119
0.0571154
-0.000696963
0.0584483
-0.000668406
0.0598612
-0.000641233
0.0613461
-0.000615144
0.0629147
-0.000590263
0.0645
-0.000566305
0.066054
-0.000543724
0.0675707
-0.000522186
0.0688771
-0.000502299
0.0700641
-0.00048316
0.0705805
-0.00046762
0.0697368
-0.00123992
0.0403316
-0.00117747
0.0417778
-0.00111896
0.043207
-0.00106411
0.0446277
-0.00101262
0.0460602
-0.000964219
0.0475117
-0.000918526
0.0489766
-0.000875359
0.0504397
-0.000834726
0.0518646
-0.000796632
0.053246
-0.000761067
0.0545483
-0.000727965
0.0558344
-0.000697201
0.0571156
-0.000668313
0.0584482
-0.000641034
0.059861
-0.000614977
0.061346
-0.000590129
0.0629145
-0.000566156
0.0644998
-0.000543378
0.0660536
-0.000521638
0.0675702
-0.000501116
0.0688759
-0.000482075
0.070063
-0.000463689
0.0705766
-0.000448869
0.0697326
-0.00125126
0.0388732
-0.00118756
0.0403417
-0.00112785
0.0417867
-0.00107185
0.0432148
-0.00101934
0.0446344
-0.000970115
0.0460661
-0.000923779
0.047517
-0.000880051
0.0489813
-0.000838805
0.0504437
-0.000799957
0.0518679
-0.000763507
0.0532485
-0.000729492
0.0545498
-0.000697931
0.0558351
-0.000668469
0.0571158
-0.000640884
0.0584481
-0.000614735
0.0598607
-0.000589925
0.0613458
-0.000565987
0.0629144
-0.000543194
0.0644996
-0.000521265
0.0660533
-0.000500548
0.0675696
-0.000480898
0.0688747
-0.000462606
0.0700619
-0.000445063
0.0705728
-0.000430872
0.0697286
0.0373979
-0.00119837
0.038884
-0.00113746
0.0403513
-0.0010803
0.0417952
-0.00102668
0.0432221
-0.000976486
0.0446408
-0.000929361
0.0460717
-0.000885018
0.047522
-0.000843233
0.0489858
-0.000803793
0.0504476
-0.000766615
0.051871
-0.000731747
0.0532507
-0.000699311
0.0545512
-0.00066909
0.0558357
-0.000640965
0.0571158
-0.000614532
0.0584479
-0.000589644
0.0598605
-0.000565749
0.0613455
-0.000542993
0.0629142
-0.00052105
0.0644994
-0.00050015
0.0660529
-0.000480312
0.067569
-0.000461438
0.0688735
-0.000443985
0.0700609
-0.000427189
0.0705691
-0.000413581
0.0697248
-0.00120989
0.0374095
-0.00114777
0.0388943
-0.00108945
0.0403604
-0.00103472
0.0418032
-0.000983458
0.0432291
-0.000935399
0.0446468
-0.000890301
0.046077
-0.000847928
0.0475267
-0.00080797
0.0489899
-0.000770221
0.0504512
-0.000734648
0.0518739
-0.000701391
0.0532528
-0.000670332
0.0545524
-0.000641484
0.0558362
-0.000614544
0.0571159
-0.000589394
0.0584476
-0.000565434
0.0598601
-0.000542724
0.0613453
-0.00052082
0.0629139
-0.000499907
0.0644992
-0.000479892
0.0660524
-0.000460836
0.0675684
-0.000442825
0.0688724
-0.000426116
0.0700598
-0.000410018
0.0705655
-0.000397044
0.0697211
-0.00122215
0.035911
-0.00115876
0.0374205
-0.00109928
0.0389042
-0.00104343
0.0403691
-0.000991091
0.0418108
-0.000942013
0.0432357
-0.000896019
0.0446525
-0.000852925
0.046082
-0.000812404
0.0475311
-0.000774158
0.0489939
-0.000738034
0.0504546
-0.000704097
0.0518766
-0.000672247
0.0532547
-0.000642596
0.0545536
-0.000614968
0.0558367
-0.000589341
0.0571158
-0.00056514
0.0584473
-0.000542378
0.0598598
-0.000520524
0.061345
-0.00049965
0.0629137
-0.000479623
0.0644989
-0.000460396
0.066052
-0.00044221
0.0675678
-0.000424967
0.0688712
-0.000408953
0.0700587
-0.000393598
0.0705621
-0.000381071
0.0697175
0.0343929
-0.00117046
0.0359227
-0.00110976
0.0374309
-0.00105279
0.0389135
-0.000999381
0.0403774
-0.000949264
0.0418181
-0.000902291
0.043242
-0.000858339
0.044658
-0.000817129
0.0460867
-0.000778344
0.0475353
-0.000741743
0.0489976
-0.000707273
0.0504577
-0.000674767
0.0518791
-0.000644355
0.0532565
-0.000615959
0.0545545
-0.000589678
0.055837
-0.000565029
0.0571157
-0.000542046
0.058447
-0.000520149
0.0598594
-0.00049933
0.0613446
-0.000479343
0.0629134
-0.000460104
0.0644986
-0.000441753
0.0660515
-0.000424341
0.0675672
-0.000407816
0.0688701
-0.000392541
0.0700577
-0.00037774
0.0705587
-0.000365851
0.0697141
-0.00118293
0.0344054
-0.00112093
0.0359339
-0.00106279
0.0374409
-0.0010083
0.0389224
-0.000957149
0.0403853
-0.000909177
0.041825
-0.000864284
0.0432479
-0.000822252
0.0446631
-0.000782809
0.0460912
-0.000745693
0.0475392
-0.000710765
0.0490011
-0.000677744
0.0504607
-0.000646698
0.0518815
-0.00061757
0.0532581
-0.000590554
0.0545554
-0.000565284
0.0558372
-0.00054188
0.0571155
-0.000519782
0.0584466
-0.000498931
0.059859
-0.000479001
0.0613443
-0.000459803
0.0629131
-0.000441441
0.0644983
-0.000423869
0.0660511
-0.000407181
0.0675665
-0.000391417
0.068869
-0.000376693
0.0700566
-0.00036263
0.0705555
-0.000351194
0.0697108
-0.0011962
0.0328553
-0.00113284
0.0344173
-0.00107345
0.0359446
-0.00101783
0.0374505
-0.000965639
0.0389309
-0.000916674
0.0403928
-0.000870821
0.0418315
-0.000827886
0.0432535
-0.000787655
0.0446679
-0.000749909
0.0460954
-0.00071449
0.0475429
-0.000681028
0.0490044
-0.000649487
0.0504635
-0.000619746
0.0518836
-0.000592026
0.0532596
-0.000566053
0.0545562
-0.00054206
0.0558374
-0.000519567
0.0571153
-0.000498532
0.0584462
-0.00047858
0.0598586
-0.000459442
0.0613439
-0.000441122
0.0629128
-0.000423539
0.064498
-0.000406697
0.0660506
-0.000390774
0.0675659
-0.000375583
0.0688679
-0.000361594
0.0700556
-0.000348082
0.0705524
-0.000337157
0.0697077
-0.00121033
0.0312686
-0.00114553
0.032868
-0.00108482
0.0344287
-0.001028
0.0359547
-0.000974725
0.0374596
-0.000924756
0.038939
-0.000877948
0.0403999
-0.000834089
0.0418377
-0.000792991
0.0432589
-0.000754491
0.0446725
-0.000718471
0.0460994
-0.000684539
0.0475465
-0.000652574
0.0490074
-0.000622354
0.0504661
-0.000594044
0.0518857
-0.000567394
0.0532609
-0.000542728
0.0545569
-0.000519677
0.0558375
-0.000498272
0.057115
-0.000478153
0.0584458
-0.000459002
0.0598582
-0.000440744
0.0613436
-0.000423203
0.0629124
-0.00040635
0.0644976
-0.000390279
0.0660501
-0.000374935
0.0675652
-0.000360499
0.0688668
-0.000347058
0.0700546
-0.000334151
0.0705494
-0.000323651
0.0697046
-0.00122535
0.0296357
-0.00115905
0.0312822
-0.00109695
0.0328802
-0.00103886
0.0344395
-0.000984428
0.0359644
-0.000933413
0.0374682
-0.000885639
0.0389467
-0.000840862
0.0404067
-0.000798875
0.0418436
-0.000759543
0.0432639
-0.000722801
0.0446768
-0.000688295
0.0461031
-0.000655881
0.0475498
-0.000625254
0.0490103
-0.000596483
0.0504685
-0.000569261
0.0518875
-0.000543946
0.0532621
-0.000520252
0.0545574
-0.000498318
0.0558376
-0.000477853
0.0571147
-0.000458551
0.0584454
-0.000440287
0.0598577
-0.000422811
0.0613432
-0.000405999
0.0629121
-0.000389918
0.0644973
-0.000374431
0.0660496
-0.000359848
0.0675646
-0.000345979
0.0688657
-0.000333139
0.0700535
-0.000320747
0.0705465
-0.000310707
0.0697017
-0.00124129
0.0279443
-0.00117343
0.0296501
-0.00110989
0.0312951
-0.00105045
0.0328918
-0.000994793
0.0344499
-0.000942664
0.0359737
-0.000893885
0.0374765
-0.000848179
0.038954
-0.000805308
0.0404131
-0.000765121
0.0418492
-0.000727581
0.0432687
-0.000692385
0.0446809
-0.000659423
0.0461067
-0.000628367
0.0475529
-0.000599205
0.0490131
-0.000571537
0.0504708
-0.000545672
0.0518893
-0.000521353
0.0532632
-0.000498805
0.0545579
-0.000477839
0.0558376
-0.000458214
0.0571144
-0.000439814
0.0584449
-0.000422339
0.0598572
-0.000405595
0.0613428
-0.000389556
0.0629117
-0.000374058
0.0644969
-0.000359336
0.0660491
-0.000345325
0.0675639
-0.000332077
0.0688646
-0.000319749
0.0700525
-0.000307903
0.0705437
-0.000298284
0.0696989
-0.00125822
0.0261846
-0.00118872
0.0279596
-0.00112365
0.0296638
-0.00106282
0.0313075
-0.00100587
0.0329028
-0.000952554
0.0344598
-0.000902704
0.0359825
-0.00085603
0.0374843
-0.000812267
0.038961
-0.000771229
0.0404192
-0.000732869
0.0418544
-0.000696906
0.0432732
-0.000663284
0.0446848
-0.000631705
0.04611
-0.000602133
0.0475558
-0.00057409
0.0490156
-0.000547794
0.0504729
-0.000522945
0.0518908
-0.000499797
0.0532642
-0.000478244
0.0545583
-0.000458145
0.0558375
-0.000439443
0.057114
-0.000421847
0.0584444
-0.000405111
0.0598567
-0.00038914
0.0613423
-0.000373685
0.0629114
-0.000358953
0.0644965
-0.000344808
0.0660486
-0.000331422
0.0675633
-0.000318704
0.0688636
-0.00030692
0.0700516
-0.000295577
0.070541
-0.000286362
0.0696963
0.0243388
-0.00120496
0.0262008
-0.0011383
0.0279743
-0.001076
0.029677
-0.00101769
0.0313193
-0.000963128
0.0329134
-0.000912139
0.0344692
-0.000864435
0.0359909
-0.00081974
0.0374918
-0.000777845
0.0389676
-0.000738667
0.040425
-0.000701915
0.0418595
-0.000667558
0.0432775
-0.000635347
0.0446884
-0.000605277
0.0461132
-0.000576842
0.0475586
-0.000550186
0.049018
-0.000524921
0.0504749
-0.000501262
0.0518923
-0.000479133
0.0532651
-0.000458474
0.0545587
-0.000439324
0.0558374
-0.000421448
0.0571136
-0.000404603
0.0584439
-0.000388647
0.0598563
-0.000373261
0.0613419
-0.00035857
0.062911
-0.000344415
0.0644961
-0.000330901
0.066048
-0.00031805
0.0675626
-0.000305893
0.0688626
-0.000294609
0.0700506
-0.00028375
0.0705384
-0.000274918
0.0696937
-0.00122221
0.024356
-0.00115388
0.0262164
-0.00109003
0.0279883
-0.0010303
0.0296896
-0.000974426
0.0313306
-0.000922234
0.0329235
-0.000873433
0.0344782
-0.000827747
0.0359989
-0.000784957
0.0374989
-0.000744955
0.0389739
-0.000707417
0.0404305
-0.000672302
0.0418642
-0.000639386
0.0432816
-0.000608712
0.0446919
-0.0005798
0.0461161
-0.000552771
0.0475611
-0.00052716
0.0490202
-0.0005031
0.0504768
-0.000480479
0.0518937
-0.000459266
0.0532659
-0.000439583
0.0545589
-0.000421283
0.0558372
-0.000404177
0.0571132
-0.000388125
0.0584434
-0.000372759
0.0598558
-0.000358139
0.0613415
-0.000344025
0.0629106
-0.000330501
0.0644957
-0.000317526
0.0660475
-0.00030524
0.067562
-0.0002936
0.0688615
-0.000282797
0.0700496
-0.000272397
0.0705358
-0.000263937
0.0696913
-0.00124056
0.0224053
-0.00117044
0.0243726
-0.00110496
0.0262313
-0.00104373
0.0280017
-0.000986485
0.0297017
-0.000933028
0.0313414
-0.000883068
0.0329331
-0.000836327
0.0344868
-0.000792582
0.0360065
-0.000751721
0.0375057
-0.00071339
0.0389799
-0.00067752
0.0404358
-0.000643876
0.0418687
-0.000612527
0.0432854
-0.000583037
0.0446951
-0.000555555
0.0461189
-0.000529586
0.0475636
-0.000505194
0.0490223
-0.000482186
0.0504785
-0.000460499
0.0518949
-0.000440285
0.0532666
-0.000421476
0.0545591
-0.00040397
0.055837
-0.000387675
0.0571128
-0.000372226
0.0584428
-0.000357631
0.0598552
-0.000343588
0.061341
-0.000330104
0.0629102
-0.000317119
0.0644953
-0.000304714
0.066047
-0.00029295
0.0675613
-0.000281807
0.0688606
-0.000271461
0.0700487
-0.000261506
0.0705334
-0.000253401
0.0696889
0.0203215
-0.00118807
0.0224229
-0.00112085
0.0243885
-0.00105804
0.0262457
-0.000999344
0.0280146
-0.000944558
0.0297132
-0.000893378
0.0313517
-0.00084552
0.0329423
-0.000800759
0.034495
-0.000758982
0.0360138
-0.000719825
0.0375121
-0.000683193
0.0389855
-0.000648823
0.0404407
-0.000616775
0.0418729
-0.000586638
0.043289
-0.000558604
0.0446982
-0.000532202
0.0461215
-0.000507469
0.0475658
-0.000484142
0.0490243
-0.000462082
0.0504801
-0.000441411
0.051896
-0.000422093
0.0532672
-0.000404103
0.0545592
-0.00038743
0.0558368
-0.000371756
0.0571123
-0.000357088
0.0584423
-0.000343076
0.0598547
-0.000329663
0.0613406
-0.000316718
0.0629098
-0.000304303
0.0644949
-0.000292424
0.0660465
-0.000281161
0.0675607
-0.00027049
0.0688596
-0.000260586
0.0700478
-0.000251056
0.0705311
-0.000243281
0.0696867
-0.00120689
0.0203403
-0.00113779
0.0224399
-0.00107328
0.0244037
-0.00101305
0.0262594
-0.000956863
0.0280269
-0.0009044
0.0297242
-0.000855364
0.0313615
-0.000809528
0.0329511
-0.000766774
0.0345028
-0.000726737
0.0360207
-0.000689312
0.0375182
-0.000654208
0.0389909
-0.000621464
0.0404454
-0.000590655
0.041877
-0.000562002
0.0432924
-0.000535072
0.044701
-0.000509927
0.046124
-0.000486275
0.047568
-0.000463907
0.0490261
-0.000442876
0.0504815
-0.000423118
0.051897
-0.00040464
0.0532678
-0.000387506
0.0545593
-0.000371476
0.0558365
-0.0003566
0.0571118
-0.000342525
0.0584417
-0.000329148
0.0598542
-0.000316275
0.0613402
-0.000303899
0.0629094
-0.000292009
0.0644945
-0.000280635
0.0660459
-0.000269849
0.06756
-0.000259634
0.0688586
-0.000250154
0.0700469
-0.00024102
0.0705288
-0.000233572
0.0696845
-0.00122705
0.018078
-0.00115589
0.0203584
-0.00108954
0.0224561
-0.00102767
0.0244183
-0.000969991
0.0262725
-0.000916172
0.0280387
-0.000865897
0.0297348
-0.000818925
0.0313709
-0.000775137
0.0329595
-0.000734159
0.0345102
-0.000695889
0.0360273
-0.000660023
0.037524
-0.000626577
0.038996
-0.000595096
0.0404498
-0.000565799
0.0418808
-0.000538275
0.0432956
-0.000512627
0.0447037
-0.000488582
0.0461263
-0.000465904
0.04757
-0.000444578
0.0490278
-0.000424473
0.0504829
-0.000405571
0.051898
-0.00038797
0.0532682
-0.000371501
0.0545593
-0.000356289
0.0558362
-0.000342023
0.0571113
-0.000328592
0.0584412
-0.000315757
0.0598537
-0.000303453
0.0613397
-0.000291602
0.062909
-0.000280218
0.0644941
-0.000269324
0.0660454
-0.000258999
0.0675594
-0.000249221
0.0688577
-0.000240135
0.070046
-0.000231393
0.0705266
-0.000224252
0.0696824
-0.00124858
0.0155639
-0.00117534
0.0180975
-0.00110695
0.0203759
-0.00104327
0.0224717
-0.000984
0.0244323
-0.00092874
0.0262851
-0.000877154
0.0280499
-0.000828986
0.0297448
-0.000784105
0.0313799
-0.000742131
0.0329674
-0.000702957
0.0345173
-0.000666279
0.0360335
-0.000632102
0.0375296
-0.000599946
0.0390009
-0.000570005
0.040454
-0.000541863
0.0418843
-0.000515646
0.0432986
-0.00049112
0.0447063
-0.000468067
0.0461284
-0.000446446
0.0475718
-0.000426057
0.0490294
-0.00040682
0.0504841
-0.000388811
0.0518988
-0.000371894
0.0532686
-0.000356266
0.0545593
-0.000341684
0.0558358
-0.000328076
0.0571108
-0.000315197
0.0584406
-0.000302935
0.0598532
-0.000291156
0.0613393
-0.00027981
0.0629086
-0.000268906
0.0644937
-0.000258476
0.0660449
-0.000248592
0.0675588
-0.000239223
0.0688568
-0.000230526
0.0700451
-0.000222152
0.0705245
-0.000215309
0.0696804
-0.0012698
0.0126659
-0.00119623
0.0155848
-0.00112569
0.0181162
-0.00105999
0.0203926
-0.000998971
0.0224867
-0.000942163
0.0244458
-0.000889182
0.0262971
-0.000839748
0.0280607
-0.000793715
0.0297544
-0.000750688
0.0313884
-0.000710555
0.032975
-0.000673009
0.034524
-0.000638052
0.0360395
-0.000605193
0.0375348
-0.000574605
0.0390055
-0.000545844
0.040458
-0.000519033
0.0418877
-0.000493963
0.0433014
-0.000470452
0.0447086
-0.000448473
0.0461305
-0.000427802
0.0475736
-0.000408294
0.0490309
-0.000389962
0.0504853
-0.000372652
0.0518996
-0.000356595
0.0532689
-0.000341616
0.0545593
-0.000327712
0.0558355
-0.000314671
0.0571103
-0.000302373
0.0584401
-0.000290639
0.0598527
-0.000279364
0.0613388
-0.000268497
0.0629082
-0.000258057
0.0644932
-0.000248073
0.0660444
-0.0002386
0.0675582
-0.000229633
0.0688559
-0.000221302
0.0700443
-0.000213286
0.0705225
-0.000206722
0.0696785
-0.00128016
0.00912301
-0.0012172
0.0126869
-0.00114592
0.015605
-0.00107803
0.0181342
-0.00101503
0.0204086
-0.000956518
0.022501
-0.000902038
0.0244586
-0.000851256
0.0263086
-0.000804001
0.028071
-0.000759862
0.0297636
-0.000718717
0.0313966
-0.000680247
0.0329823
-0.000644458
0.0345304
-0.000610849
0.0360451
-0.000579588
0.0375398
-0.000550203
0.0390098
-0.0005228
0.0404618
-0.000497161
0.0418909
-0.000473128
0.0433041
-0.000450712
0.0447109
-0.000429701
0.0461324
-0.000409923
0.0475752
-0.00039133
0.0490323
-0.000373709
0.0504863
-0.000357275
0.0519003
-0.000341885
0.0532692
-0.000327604
0.0545591
-0.000314284
0.0558351
-0.000301838
0.0571097
-0.000290076
0.0584395
-0.000278849
0.0598522
-0.000268053
0.0613384
-0.000257649
0.0629077
-0.000247654
0.0644928
-0.000238085
0.0660438
-0.000229018
0.0675575
-0.00022043
0.068855
-0.000212455
0.0700435
-0.000204773
0.0705206
-0.000198485
0.0696767
-0.00124704
0.00451804
-0.00122834
0.00913415
-0.00116657
0.0127075
-0.0010976
0.0156246
-0.00103238
0.0181516
-0.00097193
0.020424
-0.000915797
0.0225148
-0.000863564
0.0244709
-0.000815008
0.0263196
-0.00076969
0.0280808
-0.000727474
0.0297724
-0.000688029
0.0314044
-0.000651354
0.0329892
-0.000616944
0.0345365
-0.000584964
0.0360505
-0.000554933
0.0375445
-0.000526932
0.039014
-0.000500723
0.0404654
-0.000476143
0.0418939
-0.000453229
0.0433066
-0.000431801
0.044713
-0.000411699
0.0461341
-0.00039285
0.0475767
-0.000374978
0.0490335
-0.000358244
0.0504873
-0.000342491
0.0519009
-0.000327817
0.0532694
-0.00031414
0.054559
-0.000301432
0.0558347
-0.000289534
0.0571092
-0.000278286
0.0584389
-0.000267541
0.0598516
-0.000257207
0.0613379
-0.000247247
0.0629073
-0.000237667
0.0644924
-0.000228507
0.0660433
-0.000219823
0.0675569
-0.000211602
0.0688542
-0.00020396
0.0700426
-0.000196608
0.0705187
-0.00019057
0.069675
-0.00116379
0.000750365
-0.00119743
0.00448713
-0.0011784
0.00914598
-0.00111789
0.0127278
-0.00105128
0.0156435
-0.000988603
0.0181683
-0.000930581
0.0204388
-0.000876746
0.022528
-0.000826789
0.0244827
-0.000780214
0.0263301
-0.000736862
0.0280902
-0.000696385
0.0297807
-0.000658773
0.0314118
-0.00062351
0.0329957
-0.000590762
0.0345423
-0.00056004
0.0360556
-0.000531419
0.037549
-0.000504637
0.0390179
-0.00047951
0.0404687
-0.000456072
0.0418968
-0.000434167
0.043309
-0.000413667
0.0447149
-0.00039451
0.0461358
-0.000376393
0.0475782
-0.000359418
0.0490347
-0.000343377
0.0504882
-0.000328354
0.0519014
-0.000314301
0.0532696
-0.000301254
0.0545588
-0.000289111
0.0558343
-0.000277739
0.0571086
-0.000266979
0.0584384
-0.000256699
0.0598511
-0.000246809
0.0613375
-0.000237263
0.0629069
-0.000228092
0.064492
-0.000219317
0.0660428
-0.000211004
0.0675563
-0.000203127
0.0688533
-0.000195813
0.0700418
-0.000188763
0.0705169
-0.000182981
0.0696733
-0.00112263
0.00267549
-0.00111724
0.000670179
-0.00114963
0.00445836
-0.0011303
0.00915839
-0.00107115
0.0127477
-0.00100684
0.0156618
-0.000946594
0.0181843
-0.000890921
0.020453
-0.000839416
0.0225406
-0.000791486
0.024494
-0.000746922
0.0263402
-0.000705349
0.0280992
-0.000666745
0.0297887
-0.000630579
0.0314189
-0.000597014
0.033002
-0.000565553
0.0345478
-0.000536271
0.0360605
-0.000508894
0.0375533
-0.000483216
0.0390216
-0.000459253
0.0404719
-0.000436846
0.0418995
-0.00041589
0.0433112
-0.000396354
0.0447168
-0.000377943
0.0461374
-0.000360735
0.0475795
-0.000344462
0.0490358
-0.000329161
0.050489
-0.000314773
0.0519019
-0.000301367
0.0532697
-0.000288902
0.0545586
-0.000277301
0.0558338
-0.000266429
0.0571081
-0.000256141
0.0584378
-0.000246305
0.0598506
-0.000236828
0.0613371
-0.00022769
0.0629065
-0.000218904
0.0644916
-0.000210504
0.0660423
-0.000202538
0.0675557
-0.000195
0.0688525
-0.000187986
0.0700411
-0.000181242
0.0705151
-0.000175691
0.0696717
-0.00110716
0.00494888
-0.00107794
0.00263619
-0.00107248
0.000593026
-0.0011036
0.00443166
-0.00108406
0.0091713
-0.00102625
0.0127671
-0.000964161
0.0156793
-0.000906289
0.0181996
-0.000853002
0.0204666
-0.000803576
0.0225527
-0.000757704
0.0245048
-0.000714962
0.0263498
-0.000675304
0.0281077
-0.000638181
0.0297963
-0.00060375
0.0314256
-0.000571503
0.0330079
-0.000541513
0.034553
-0.000513501
0.0360651
-0.000487252
0.0375573
-0.00046276
0.0390251
-0.000439849
0.0404749
-0.000418412
0.041902
-0.00039844
0.0433133
-0.000379668
0.0447185
-0.000362181
0.0461388
-0.000345685
0.0475807
-0.000330162
0.0490368
-0.000315507
0.0504897
-0.000301778
0.0519023
-0.000288971
0.0532698
-0.000277065
0.0545584
-0.000265978
0.0558334
-0.000255588
0.0571075
-0.00024575
0.0584373
-0.000236329
0.0598501
-0.000227259
0.0613366
-0.000218506
0.0629061
-0.000210094
0.0644912
-0.000202044
0.0660418
-0.000194421
0.0675552
-0.000187193
0.0688517
-0.000180483
0.0700403
-0.000174018
0.0705135
-0.00016869
0.0696702
-0.00109748
0.00652114
-0.00106376
0.0049347
-0.00103498
0.0025987
-0.00102945
0.000518873
-0.00105935
0.00440696
-0.00103956
0.00918461
-0.000983084
0.012786
-0.000923193
0.0156962
-0.000867744
0.0182144
-0.000816591
0.0204796
-0.000769275
0.0225643
-0.000725271
0.0245151
-0.000684489
0.026359
-0.000646348
0.0281159
-0.000610999
0.0298036
-0.000577918
0.031432
-0.000547173
0.0330136
-0.000518482
0.034558
-0.000491624
0.0360695
-0.000466586
0.0375611
-0.000443168
0.0390284
-0.000421247
0.0404777
-0.000400814
0.0419044
-0.000381624
0.0433153
-0.000363793
0.0447201
-0.000347033
0.0461402
-0.000331298
0.0475818
-0.000316428
0.0490377
-0.000302442
0.0504904
-0.000289325
0.0519026
-0.000277092
0.0532698
-0.000265717
0.0545581
-0.000255126
0.0558329
-0.000245197
0.057107
-0.000235779
0.0584367
-0.000226767
0.0598496
-0.00021808
0.0613362
-0.000209699
0.0629057
-0.000201638
0.0644908
-0.000193933
0.0660414
-0.000186624
0.0675546
-0.00017971
0.068851
-0.000173277
0.0700396
-0.00016708
0.0705118
-0.000161978
0.0696688
-0.00108859
0.00743064
-0.00105469
0.00651207
-0.00102205
0.00492176
-0.000993699
0.00256295
-0.000988157
0.000447676
-0.00101677
0.00438417
-0.000996706
0.00919823
-0.000941594
0.0128044
-0.000883994
0.0157125
-0.000830723
0.0182285
-0.00078174
0.0204921
-0.000736342
0.0225754
-0.000694345
0.0245249
-0.000655119
0.0263678
-0.000618793
0.0281237
-0.000584827
0.0298105
-0.000553283
0.0314381
-0.000523867
0.033019
-0.000496357
0.0345628
-0.000470735
0.0360736
-0.000446792
0.0375647
-0.000424385
0.0390316
-0.000403488
0.0404804
-0.000383856
0.0419066
-0.000365627
0.0433171
-0.000348539
0.0447216
-0.000332552
0.0461414
-0.00031748
0.0475829
-0.000303289
0.0490386
-0.000289924
0.050491
-0.000277394
0.0519029
-0.000265706
0.0532698
-0.000254843
0.0545578
-0.000244726
0.0558324
-0.000235226
0.0571064
-0.000226222