/*--------------------------------*- C++ -*----------------------------------*\
  =========                 |
  \\      /  F ield         | OpenFOAM: The Open Source CFD Toolbox
   \\    /   O peration     | Website:  https://openfoam.org
    \\  /    A nd           | Version:  7
     \\/     M anipulation  |
\*---------------------------------------------------------------------------*/
FoamFile
{
    version     2.0;
    format      ascii;
    class       volVectorField;
    location    "600";
    object      U;
}
// * * * * * * * * * * * * * * * * * * * * * * * * * * * * * * * * * * * * * //

dimensions      [0 1 -1 0 0 0 0];

internalField   nonuniform List<vector> 
23023
(
(47.5241 13.5677 0)
(46.8773 14.1604 0)
(47.51 13.5652 0)
(46.9647 14.4746 0)
(46.8571 14.1587 0)
(47.4965 13.5629 0)
(46.904 14.6854 0)
(46.9409 14.4746 0)
(46.8379 14.157 0)
(47.4839 13.5607 0)
(46.8763 14.6854 0)
(46.9178 14.4747 0)
(46.8195 14.1553 0)
(47.472 13.5585 0)
(46.93 14.8636 0)
(46.8493 14.6853 0)
(46.8956 14.4747 0)
(46.802 14.1537 0)
(47.4609 13.5564 0)
(46.9745 14.9972 0)
(46.8992 14.864 0)
(46.8231 14.6853 0)
(46.8742 14.4747 0)
(46.7854 14.1522 0)
(47.4505 13.5544 0)
(47.0433 15.1098 0)
(46.9403 14.9976 0)
(46.8691 14.8643 0)
(46.7977 14.6852 0)
(46.8536 14.4747 0)
(46.7697 14.1506 0)
(47.441 13.5524 0)
(47.1066 15.209 0)
(47.0058 15.1103 0)
(46.9067 14.998 0)
(46.8399 14.8645 0)
(46.7731 14.6851 0)
(46.8338 14.4746 0)
(46.7549 14.1491 0)
(47.4322 13.5505 0)
(47.1693 15.3076 0)
(47.0659 15.2095 0)
(46.9689 15.1107 0)
(46.8739 14.9983 0)
(46.8113 14.8647 0)
(46.7494 14.685 0)
(46.8149 14.4745 0)
(46.7409 14.1477 0)
(47.4241 13.5487 0)
(47.229 15.4141 0)
(47.1254 15.308 0)
(47.0259 15.2099 0)
(46.9328 15.1111 0)
(46.8418 14.9986 0)
(46.7836 14.8649 0)
(46.7264 14.6849 0)
(46.7968 14.4745 0)
(46.7279 14.1462 0)
(47.4169 13.5469 0)
(47.1814 15.4145 0)
(47.082 15.3084 0)
(46.9865 15.2103 0)
(46.8973 15.1115 0)
(46.8105 14.9988 0)
(46.7567 14.8651 0)
(46.7043 14.6848 0)
(46.7795 14.4744 0)
(46.7158 14.1449 0)
(47.4104 13.5452 0)
(47.2444 15.5338 0)
(47.1344 15.415 0)
(47.0393 15.3088 0)
(46.9478 15.2106 0)
(46.8626 15.1118 0)
(46.7799 14.9991 0)
(46.7305 14.8652 0)
(46.683 14.6846 0)
(46.7632 14.4742 0)
(46.7045 14.1435 0)
(47.4047 13.5436 0)
(47.3262 15.6646 0)
(47.1934 15.5344 0)
(47.0881 15.4154 0)
(46.9973 15.3092 0)
(46.9099 15.2109 0)
(46.8286 15.1121 0)
(46.7501 14.9993 0)
(46.7052 14.8654 0)
(46.6625 14.6844 0)
(46.7476 14.4741 0)
(46.6942 14.1422 0)
(47.3997 13.542 0)
(47.4411 15.7994 0)
(47.2707 15.6653 0)
(47.143 15.5349 0)
(47.0424 15.4157 0)
(46.9559 15.3095 0)
(46.8726 15.2112 0)
(46.7954 15.1123 0)
(46.7211 14.9994 0)
(46.6807 14.8654 0)
(46.643 14.6842 0)
(46.733 14.474 0)
(46.6847 14.1409 0)
(47.3955 13.5405 0)
(47.5985 15.9273 0)
(47.3808 15.8006 0)
(47.2158 15.6661 0)
(47.0932 15.5354 0)
(46.9974 15.4161 0)
(46.9153 15.3097 0)
(46.8361 15.2115 0)
(46.7629 15.1126 0)
(46.6928 14.9996 0)
(46.657 14.8655 0)
(46.6242 14.6841 0)
(46.7192 14.4738 0)
(46.6762 14.1397 0)
(47.3921 13.539 0)
(47.5336 15.9289 0)
(47.3211 15.8016 0)
(47.1615 15.6667 0)
(47.0441 15.5358 0)
(46.9531 15.4163 0)
(46.8754 15.31 0)
(46.8003 15.2117 0)
(46.7312 15.1128 0)
(46.6654 14.9997 0)
(46.6341 14.8656 0)
(46.6063 14.6839 0)
(46.7062 14.4737 0)
(46.6685 14.1384 0)
(47.3894 13.5376 0)
(47.7321 16.039 0)
(47.469 15.9304 0)
(47.262 15.8026 0)
(47.1079 15.6673 0)
(46.9957 15.5361 0)
(46.9095 15.4166 0)
(46.8362 15.3102 0)
(46.7653 15.2119 0)
(46.7003 15.1129 0)
(46.6388 14.9998 0)
(46.6121 14.8656 0)
(46.5893 14.6836 0)
(46.6942 14.4735 0)
(46.6618 14.1373 0)
(47.3875 13.5362 0)
(47.9712 16.1233 0)
(47.6629 16.0409 0)
(47.405 15.9317 0)
(47.2034 15.8035 0)
(47.0548 15.6679 0)
(46.948 15.5365 0)
(46.8667 15.4168 0)
(46.7978 15.3103 0)
(46.731 15.212 0)
(46.6702 15.1131 0)
(46.6131 14.9999 0)
(46.591 14.8656 0)
(46.5732 14.6834 0)
(46.683 14.4733 0)
(46.6559 14.1361 0)
(47.3864 13.5349 0)
(47.8979 16.1255 0)
(47.5942 16.0427 0)
(47.3415 15.933 0)
(47.1455 15.8043 0)
(47.0025 15.6684 0)
(46.901 15.5367 0)
(46.8246 15.417 0)
(46.7602 15.3105 0)
(46.6976 15.2122 0)
(46.6409 15.1132 0)
(46.5881 14.9999 0)
(46.5707 14.8656 0)
(46.5579 14.6832 0)
(46.6726 14.4731 0)
(46.6509 14.135 0)
(47.386 13.5337 0)
(48.1637 16.1829 0)
(47.8249 16.1277 0)
(47.5259 16.0443 0)
(47.2785 15.9342 0)
(47.0881 15.8051 0)
(46.9509 15.6688 0)
(46.8547 15.537 0)
(46.7833 15.4171 0)
(46.7233 15.3106 0)
(46.6649 15.2123 0)
(46.6124 15.1133 0)
(46.564 15 0)
(46.5512 14.8656 0)
(46.5435 14.683 0)
(46.6632 14.4729 0)
(46.6468 14.1339 0)
(47.3863 13.5325 0)
(48.4493 16.2174 0)
(48.0869 16.1853 0)
(47.7523 16.1297 0)
(47.458 16.0459 0)
(47.216 15.9353 0)
(47.0315 15.8058 0)
(46.9 15.6692 0)
(46.8093 15.5372 0)
(46.7427 15.4172 0)
(46.6873 15.3107 0)
(46.6331 15.2124 0)
(46.5848 15.1134 0)
(46.5408 15 0)
(46.5327 14.8655 0)
(46.53 14.6827 0)
(46.6546 14.4727 0)
(46.6436 14.1329 0)
(47.3873 13.5313 0)
(48.7487 16.2363 0)
(48.369 16.22 0)
(48.0103 16.1876 0)
(47.6799 16.1316 0)
(47.3907 16.0473 0)
(47.1542 15.9363 0)
(46.9755 15.8064 0)
(46.8498 15.6695 0)
(46.7646 15.5374 0)
(46.703 15.4173 0)
(46.652 15.3108 0)
(46.6021 15.2125 0)
(46.558 15.1135 0)
(46.5184 15 0)
(46.515 14.8655 0)
(46.5173 14.6825 0)
(46.6468 14.4725 0)
(46.6413 14.1319 0)
(47.3891 13.5302 0)
(49.0623 16.2452 0)
(48.665 16.2391 0)
(48.2889 16.2225 0)
(47.9339 16.1897 0)
(47.608 16.1334 0)
(47.3238 16.0487 0)
(47.093 15.9372 0)
(46.9202 15.807 0)
(46.8004 15.6698 0)
(46.7207 15.5375 0)
(46.6641 15.4174 0)
(46.6176 15.3109 0)
(46.5719 15.2126 0)
(46.5321 15.1136 0)
(46.4969 15 0)
(46.4981 14.8654 0)
(46.5056 14.6823 0)
(46.64 14.4723 0)
(46.6398 14.1309 0)
(47.3916 13.5291 0)
(48.9754 16.2483 0)
(48.5815 16.2418 0)
(48.2089 16.2249 0)
(47.8579 16.1918 0)
(47.5365 16.135 0)
(47.2575 16.05 0)
(47.0324 15.9381 0)
(46.8657 15.8075 0)
(46.7518 15.6701 0)
(46.6776 15.5376 0)
(46.626 15.4175 0)
(46.5841 15.3109 0)
(46.5426 15.2126 0)
(46.507 15.1136 0)
(46.4762 15 0)
(46.4822 14.8654 0)
(46.4947 14.682 0)
(46.634 14.4721 0)
(46.6392 14.1299 0)
(47.3948 13.528 0)
(49.306 16.2485 0)
(48.8884 16.2513 0)
(48.498 16.2444 0)
(48.1291 16.2272 0)
(47.7822 16.1937 0)
(47.4654 16.1366 0)
(47.1917 16.0512 0)
(46.9725 15.9389 0)
(46.812 15.808 0)
(46.7041 15.6703 0)
(46.6354 15.5377 0)
(46.5888 15.4175 0)
(46.5514 15.311 0)
(46.5142 15.2126 0)
(46.4828 15.1136 0)
(46.4565 15 0)
(46.4671 14.8653 0)
(46.4847 14.6818 0)
(46.6288 14.4719 0)
(46.6395 14.129 0)
(47.3987 13.527 0)
(49.664 16.2357 0)
(49.2156 16.2518 0)
(48.8014 16.2541 0)
(48.4146 16.2469 0)
(48.0495 16.2293 0)
(47.7068 16.1956 0)
(47.3948 16.1381 0)
(47.1266 16.0523 0)
(46.9134 15.9397 0)
(46.759 15.8084 0)
(46.6571 15.6705 0)
(46.594 15.5378 0)
(46.5524 15.4175 0)
(46.5195 15.311 0)
(46.4866 15.2127 0)
(46.4594 15.1136 0)
(46.4376 15 0)
(46.4529 14.8652 0)
(46.4756 14.6815 0)
(46.6245 14.4717 0)
(46.6406 14.1281 0)
(47.4033 13.526 0)
(49.5702 16.2394 0)
(49.1251 16.2549 0)
(48.7145 16.2568 0)
(48.3314 16.2492 0)
(47.9703 16.2313 0)
(47.6319 16.1973 0)
(47.3248 16.1395 0)
(47.0621 16.0533 0)
(46.8549 15.9404 0)
(46.7068 15.8088 0)
(46.611 15.6707 0)
(46.5535 15.5378 0)
(46.5169 15.4175 0)
(46.4886 15.311 0)
(46.4598 15.2127 0)
(46.4369 15.1136 0)
(46.4196 14.9999 0)
(46.4396 14.8651 0)
(46.4673 14.6813 0)
(46.6211 14.4715 0)
(46.6426 14.1272 0)
(47.4086 13.5251 0)
(49.9566 16.2078 0)
(49.4762 16.2429 0)
(49.0345 16.2579 0)
(48.6276 16.2593 0)
(48.2484 16.2514 0)
(47.8913 16.2332 0)
(47.5573 16.1989 0)
(47.2553 16.1408 0)
(46.9982 16.0543 0)
(46.7973 15.941 0)
(46.6554 15.8091 0)
(46.5658 15.6708 0)
(46.5139 15.5378 0)
(46.4823 15.4175 0)
(46.4585 15.311 0)
(46.434 15.2127 0)
(46.4153 15.1136 0)
(46.4024 14.9999 0)
(46.4272 14.865 0)
(46.4599 14.681 0)
(46.6185 14.4712 0)
(46.6454 14.1263 0)
(47.4146 13.5242 0)
(50.3754 16.1512 0)
(49.8592 16.2117 0)
(49.382 16.2463 0)
(48.944 16.2607 0)
(48.5409 16.2617 0)
(48.1656 16.2535 0)
(47.8127 16.235 0)
(47.4832 16.2005 0)
(47.1863 16.1421 0)
(46.9351 16.0552 0)
(46.7404 15.9416 0)
(46.6049 15.8094 0)
(46.5214 15.671 0)
(46.4752 15.5378 0)
(46.4486 15.4175 0)
(46.4293 15.3109 0)
(46.4091 15.2126 0)
(46.3946 15.1136 0)
(46.3862 14.9998 0)
(46.4156 14.8649 0)
(46.4534 14.6808 0)
(46.6167 14.471 0)
(46.649 14.1255 0)
(47.4213 13.5234 0)
(50.2749 16.1556 0)
(49.7616 16.2155 0)
(49.2878 16.2494 0)
(48.8535 16.2634 0)
(48.4543 16.264 0)
(48.0831 16.2554 0)
(47.7344 16.2367 0)
(47.4097 16.2019 0)
(47.118 16.1432 0)
(46.8726 16.056 0)
(46.6843 15.9421 0)
(46.5553 15.8097 0)
(46.478 15.671 0)
(46.4374 15.5378 0)
(46.4158 15.4174 0)
(46.401 15.3109 0)
(46.385 15.2126 0)
(46.3748 15.1136 0)
(46.3708 14.9997 0)
(46.405 14.8648 0)
(46.4478 14.6805 0)
(46.6158 14.4708 0)
(46.6535 14.1247 0)
(47.4286 13.5225 0)
(50.7215 16.0708 0)
(50.174 16.1597 0)
(49.6638 16.219 0)
(49.1935 16.2525 0)
(48.763 16.2659 0)
(48.3679 16.2661 0)
(48.0008 16.2573 0)
(47.6566 16.2384 0)
(47.3366 16.2033 0)
(47.0503 16.1443 0)
(46.8109 16.0568 0)
(46.629 15.9426 0)
(46.5066 15.8099 0)
(46.4355 15.6711 0)
(46.4005 15.5378 0)
(46.384 15.4174 0)
(46.3736 15.3109 0)
(46.3618 15.2126 0)
(46.3559 15.1136 0)
(46.3563 14.9996 0)
(46.3952 14.8647 0)
(46.443 14.6803 0)
(46.6157 14.4706 0)
(46.6588 14.124 0)
(47.4366 13.5217 0)
(51.1978 15.9555 0)
(50.6176 16.0755 0)
(50.0728 16.1637 0)
(49.5658 16.2224 0)
(49.0991 16.2553 0)
(48.6727 16.2683 0)
(48.2817 16.2682 0)
(47.9189 16.2591 0)
(47.5791 16.2399 0)
(47.2641 16.2046 0)
(46.9832 16.1453 0)
(46.75 16.0575 0)
(46.5746 15.943 0)
(46.4587 15.8101 0)
(46.3939 15.6711 0)
(46.3646 15.5378 0)
(46.353 15.4173 0)
(46.3471 15.3108 0)
(46.3396 15.2125 0)
(46.3379 15.1135 0)
(46.3428 14.9996 0)
(46.3863 14.8645 0)
(46.4391 14.68 0)
(46.6164 14.4704 0)
(46.6649 14.1232 0)
(47.4452 13.521 0)
(51.0911 15.9606 0)
(50.5133 16.0799 0)
(49.9714 16.1675 0)
(49.4677 16.2257 0)
(49.0048 16.258 0)
(48.5824 16.2706 0)
(48.1958 16.2701 0)
(47.8374 16.2607 0)
(47.5022 16.2413 0)
(47.1921 16.2058 0)
(46.9169 16.1463 0)
(46.6899 16.0582 0)
(46.5211 15.9434 0)
(46.4118 15.8103 0)
(46.3533 15.6711 0)
(46.3296 15.5377 0)
(46.323 15.4172 0)
(46.3216 15.3107 0)
(46.3182 15.2125 0)
(46.3207 15.1135 0)
(46.3301 14.9995 0)
(46.3782 14.8644 0)
(46.4361 14.6798 0)
(46.618 14.4701 0)
(46.6718 14.1225 0)
(47.4544 13.5202 0)
(51.5949 15.813 0)
(50.9839 15.9655 0)
(50.4086 16.0841 0)
(49.8697 16.1711 0)
(49.3695 16.2287 0)
(48.9106 16.2606 0)
(48.4924 16.2728 0)
(48.1101 16.2719 0)
(47.7562 16.2623 0)
(47.4258 16.2427 0)
(47.1208 16.2069 0)
(46.8513 16.1472 0)
(46.6306 16.0588 0)
(46.4684 15.9437 0)
(46.3659 15.8104 0)
(46.3136 15.6711 0)
(46.2955 15.5376 0)
(46.2939 15.4172 0)
(46.2969 15.3107 0)
(46.2978 15.2124 0)
(46.3045 15.1134 0)
(46.3183 14.9994 0)
(46.3711 14.8643 0)
(46.4339 14.6795 0)
(46.6204 14.4699 0)
(46.6795 14.1218 0)
(47.4643 13.5195 0)
(52.1308 15.6289 0)
(51.4849 15.8183 0)
(50.8761 15.9701 0)
(50.3036 16.0881 0)
(49.7678 16.1745 0)
(49.2713 16.2316 0)
(48.8164 16.263 0)
(48.4026 16.2748 0)
(48.0248 16.2737 0)
(47.6755 16.2638 0)
(47.3498 16.244 0)
(47.0501 16.208 0)
(46.7864 16.148 0)
(46.5721 16.0594 0)
(46.4167 15.9441 0)
(46.3209 15.8105 0)
(46.2749 15.6711 0)
(46.2625 15.5376 0)
(46.2658 15.4171 0)
(46.2732 15.3106 0)
(46.2783 15.2124 0)
(46.2892 15.1133 0)
(46.3074 14.9993 0)
(46.3648 14.8642 0)
(46.4325 14.6793 0)
(46.6235 14.4697 0)
(46.688 14.1211 0)
(47.4748 13.5189 0)
(52.0183 15.6347 0)
(51.3743 15.8234 0)
(50.7679 15.9745 0)
(50.1982 16.0919 0)
(49.6658 16.1778 0)
(49.1731 16.2344 0)
(48.7224 16.2654 0)
(48.313 16.2767 0)
(47.9398 16.2753 0)
(47.5953 16.2652 0)
(47.2745 16.2452 0)
(46.9801 16.209 0)
(46.7223 16.1488 0)
(46.5145 16.0599 0)
(46.366 15.9443 0)
(46.2769 15.8106 0)
(46.2372 15.6711 0)
(46.2304 15.5375 0)
(46.2387 15.417 0)
(46.2505 15.3105 0)
(46.2597 15.2123 0)
(46.2747 15.1133 0)
(46.2973 14.9992 0)
(46.3594 14.864 0)
(46.432 14.6791 0)
(46.6275 14.4695 0)
(46.6973 14.1205 0)
(47.4859 13.5182 0)
(52.5866 15.4091 0)
(51.9051 15.6403 0)
(51.2631 15.8283 0)
(50.6593 15.9787 0)
(50.0926 16.0955 0)
(49.5637 16.1809 0)
(49.0749 16.237 0)
(48.6285 16.2676 0)
(48.2237 16.2786 0)
(47.8553 16.2769 0)
(47.5155 16.2665 0)
(47.1997 16.2463 0)
(46.9108 16.2099 0)
(46.659 16.1495 0)
(46.4578 16.0604 0)
(46.3161 15.9446 0)
(46.2339 15.8107 0)
(46.2005 15.671 0)
(46.1993 15.5374 0)
(46.2125 15.4169 0)
(46.2286 15.3104 0)
(46.242 15.2122 0)
(46.2612 15.1132 0)
(46.2882 14.9991 0)
(46.3548 14.8639 0)
(46.4324 14.6788 0)
(46.6323 14.4693 0)
(46.7073 14.1198 0)
(47.4976 13.5176 0)
(53.1917 15.1346 0)
(52.471 15.4153 0)
(51.7911 15.6457 0)
(51.1514 15.8329 0)
(50.5503 15.9827 0)
(49.9868 16.099 0)
(49.4615 16.1839 0)
(48.9767 16.2395 0)
(48.5348 16.2696 0)
(48.1348 16.2803 0)
(47.7711 16.2783 0)
(47.4363 16.2678 0)
(47.1256 16.2474 0)
(46.8422 16.2108 0)
(46.5966 16.1501 0)
(46.402 16.0608 0)
(46.2673 15.9448 0)
(46.1918 15.8108 0)
(46.1648 15.671 0)
(46.1692 15.5373 0)
(46.1873 15.4168 0)
(46.2078 15.3103 0)
(46.2252 15.2122 0)
(46.2486 15.1131 0)
(46.2799 14.999 0)
(46.3511 14.8637 0)
(46.4336 14.6786 0)
(46.6378 14.4691 0)
(46.7181 14.1192 0)
(47.5099 13.517 0)
(53.8353 14.8032 0)
(53.074 15.1414 0)
(52.3544 15.4211 0)
(51.6764 15.6508 0)
(51.0391 15.8373 0)
(50.441 15.9865 0)
(49.8808 16.1022 0)
(49.3593 16.1867 0)
(48.8787 16.2419 0)
(48.4414 16.2716 0)
(48.0461 16.2819 0)
(47.6874 16.2797 0)
(47.3576 16.2689 0)
(47.0521 16.2484 0)
(46.7744 16.2116 0)
(46.535 16.1507 0)
(46.3472 16.0612 0)
(46.2195 15.945 0)
(46.1509 15.8108 0)
(46.1301 15.6709 0)
(46.1401 15.5371 0)
(46.163 15.4166 0)
(46.1878 15.3103 0)
(46.2094 15.2121 0)
(46.2368 15.113 0)
(46.2725 14.9988 0)
(46.3483 14.8636 0)
(46.4356 14.6784 0)
(46.6442 14.4689 0)
(46.7297 14.1186 0)
(47.5227 13.5164 0)
(54.5192 14.4056 0)
(53.716 14.8106 0)
(52.9552 15.1478 0)
(52.237 15.4268 0)
(51.5611 15.6556 0)
(50.9264 15.8415 0)
(50.3313 15.9902 0)
(49.7747 16.1054 0)
(49.2571 16.1893 0)
(48.7808 16.2441 0)
(48.3482 16.2735 0)
(47.9579 16.2835 0)
(47.6042 16.281 0)
(47.2795 16.27 0)
(46.9794 16.2493 0)
(46.7073 16.2124 0)
(46.4743 16.1513 0)
(46.2933 16.0616 0)
(46.1726 15.9452 0)
(46.1109 15.8108 0)
(46.0965 15.6708 0)
(46.112 15.537 0)
(46.1397 15.4165 0)
(46.1688 15.3102 0)
(46.1944 15.212 0)
(46.226 15.113 0)
(46.266 14.9987 0)
(46.3463 14.8635 0)
(46.4384 14.6781 0)
(46.6513 14.4687 0)
(46.7419 14.1181 0)
(47.5361 13.5159 0)
(55.245 13.9302 0)
(54.3986 14.4137 0)
(53.5953 14.8178 0)
(52.8354 15.154 0)
(52.1189 15.4321 0)
(51.4452 15.6603 0)
(50.8133 15.8455 0)
(50.2215 15.9936 0)
(49.6685 16.1083 0)
(49.1549 16.1919 0)
(48.6832 16.2463 0)
(48.2553 16.2752 0)
(47.8701 16.285 0)
(47.5215 16.2822 0)
(47.202 16.2711 0)
(46.9073 16.2502 0)
(46.6411 16.2131 0)
(46.4144 16.1518 0)
(46.2404 16.0619 0)
(46.1268 15.9453 0)
(46.072 15.8108 0)
(46.0639 15.6707 0)
(46.085 15.5369 0)
(46.1175 15.4164 0)
(46.1508 15.3101 0)
(46.1804 15.2119 0)
(46.216 15.1129 0)
(46.2604 14.9986 0)
(46.3452 14.8633 0)
(46.442 14.6779 0)
(46.6591 14.4685 0)
(46.7549 14.1175 0)
(47.5501 13.5153 0)
(56.0152 13.3626 0)
(55.1238 13.9391 0)
(54.2765 14.4215 0)
(53.4734 14.8246 0)
(52.7146 15.1599 0)
(52 15.4373 0)
(51.3288 15.6647 0)
(50.6999 15.8494 0)
(50.1114 15.9969 0)
(49.5622 16.1112 0)
(49.0528 16.1943 0)
(48.5857 16.2483 0)
(48.1628 16.2769 0)
(47.7827 16.2863 0)
(47.4394 16.2834 0)
(47.1251 16.2721 0)
(46.8359 16.251 0)
(46.5757 16.2138 0)
(46.3555 16.1523 0)
(46.1885 16.0622 0)
(46.0821 15.9454 0)
(46.0342 15.8108 0)
(46.0323 15.6706 0)
(46.0589 15.5368 0)
(46.0962 15.4163 0)
(46.1337 15.31 0)
(46.1673 15.2118 0)
(46.207 15.1128 0)
(46.2556 14.9985 0)
(46.3449 14.8632 0)
(46.4465 14.6777 0)
(46.6677 14.4683 0)
(46.7687 14.117 0)
(47.5646 13.5148 0)
(55.8941 13.3724 0)
(55.0009 13.9477 0)
(54.153 14.429 0)
(53.3504 14.8311 0)
(52.593 15.1656 0)
(51.8804 15.4421 0)
(51.2119 15.6689 0)
(50.5861 15.853 0)
(50.0012 16.0001 0)
(49.4559 16.1139 0)
(48.9509 16.1966 0)
(48.4885 16.2502 0)
(48.0707 16.2785 0)
(47.6958 16.2876 0)
(47.3579 16.2845 0)
(47.049 16.273 0)
(46.7654 16.2518 0)
(46.5111 16.2144 0)
(46.2976 16.1528 0)
(46.1376 16.0624 0)
(46.0384 15.9455 0)
(45.9974 15.8107 0)
(46.0019 15.6705 0)
(46.0339 15.5366 0)
(46.0758 15.4162 0)
(46.1176 15.3098 0)
(46.1551 15.2117 0)
(46.1988 15.1127 0)
(46.2517 14.9984 0)
(46.3454 14.863 0)
(46.4517 14.6775 0)
(46.6771 14.4681 0)
(46.7831 14.1165 0)
(47.5797 13.5143 0)
(56.7124 12.6948 0)
(55.7709 13.3818 0)
(54.8762 13.9559 0)
(54.0281 14.4362 0)
(53.2263 14.8373 0)
(52.4705 15.171 0)
(51.7602 15.4468 0)
(51.0946 15.6729 0)
(50.4721 15.8565 0)
(49.8909 16.003 0)
(49.3496 16.1164 0)
(48.8491 16.1987 0)
(48.3916 16.252 0)
(47.9789 16.28 0)
(47.6095 16.2889 0)
(47.2769 16.2855 0)
(46.9735 16.2739 0)
(46.6956 16.2525 0)
(46.4475 16.215 0)
(46.2406 16.1532 0)
(46.0877 16.0627 0)
(45.9958 15.9456 0)
(45.9617 15.8107 0)
(45.9724 15.6704 0)
(46.0099 15.5365 0)
(46.0565 15.416 0)
(46.1024 15.3097 0)
(46.1438 15.2116 0)
(46.1915 15.1126 0)
(46.2487 14.9983 0)
(46.3467 14.8629 0)
(46.4577 14.6773 0)
(46.6872 14.4679 0)
(46.7983 14.116 0)
(47.5953 13.5139 0)
(57.583 11.8808 0)
(56.5899 12.7052 0)
(55.6458 13.3909 0)
(54.7499 13.9638 0)
(53.9019 14.443 0)
(53.1012 14.8433 0)
(52.3473 15.1762 0)
(51.6394 15.4513 0)
(50.9768 15.6768 0)
(50.3578 15.8598 0)
(49.7804 16.0059 0)
(49.2435 16.1188 0)
(48.7475 16.2008 0)
(48.295 16.2537 0)
(47.8877 16.2814 0)
(47.5237 16.29 0)
(47.1966 16.2864 0)
(46.8988 16.2747 0)
(46.6266 16.2532 0)
(46.3847 16.2155 0)
(46.1846 16.1536 0)
(46.0389 16.0629 0)
(45.9542 15.9456 0)
(45.9271 15.8106 0)
(45.9441 15.6703 0)
(45.987 15.5364 0)
(46.0382 15.4159 0)
(46.0881 15.3096 0)
(46.1335 15.2115 0)
(46.1851 15.1125 0)
(46.2465 14.9982 0)
(46.3489 14.8628 0)
(46.4645 14.6771 0)
(46.698 14.4677 0)
(46.8141 14.1155 0)
(47.6113 13.5134 0)
(57.4623 11.8922 0)
(56.465 12.7152 0)
(55.5187 13.3996 0)
(54.6222 13.9714 0)
(53.7745 14.4496 0)
(52.9752 14.849 0)
(52.2233 15.1811 0)
(51.5182 15.4555 0)
(50.8587 15.6805 0)
(50.2434 15.8629 0)
(49.67 16.0086 0)
(49.1374 16.1212 0)
(48.6462 16.2027 0)
(48.1987 16.2553 0)
(47.7969 16.2827 0)
(47.4384 16.2911 0)
(47.117 16.2874 0)
(46.8248 16.2754 0)
(46.5585 16.2538 0)
(46.3229 16.216 0)
(46.1296 16.1539 0)
(45.9912 16.0631 0)
(45.9138 15.9457 0)
(45.8936 15.8105 0)
(45.9168 15.6702 0)
(45.9651 15.5362 0)
(46.0208 15.4158 0)
(46.0748 15.3095 0)
(46.124 15.2114 0)
(46.1796 15.1124 0)
(46.2451 14.998 0)
(46.3519 14.8626 0)
(46.4721 14.6769 0)
(46.7095 14.4675 0)
(46.8306 14.115 0)
(47.6279 13.513 0)
(58.3949 10.9054 0)
(57.3387 11.9033 0)
(56.3378 12.7248 0)
(55.3898 13.4079 0)
(54.4929 13.9786 0)
(53.646 14.4559 0)
(52.8482 14.8544 0)
(52.0986 15.1858 0)
(51.3964 15.4596 0)
(50.7404 15.6839 0)
(50.1288 15.8659 0)
(49.5596 16.0112 0)
(49.0314 16.1233 0)
(48.5451 16.2046 0)
(48.1029 16.2569 0)
(47.7066 16.284 0)
(47.3538 16.2921 0)
(47.0381 16.2882 0)
(46.7516 16.2761 0)
(46.4913 16.2544 0)
(46.2621 16.2164 0)
(46.0757 16.1542 0)
(45.9445 16.0632 0)
(45.8745 15.9457 0)
(45.8612 15.8105 0)
(45.8906 15.67 0)
(45.9442 15.5361 0)
(46.0044 15.4156 0)
(46.0624 15.3094 0)
(46.1155 15.2113 0)
(46.1749 15.1123 0)
(46.2446 14.9979 0)
(46.3557 14.8625 0)
(46.4804 14.6767 0)
(46.7218 14.4673 0)
(46.8478 14.1146 0)
(47.645 13.5126 0)
(59.3959 9.68406 0)
(58.2742 10.9177 0)
(57.2124 11.9139 0)
(56.2085 12.734 0)
(55.2592 13.4159 0)
(54.3623 13.9855 0)
(53.5164 14.4619 0)
(52.7204 14.8596 0)
(51.9734 15.1903 0)
(51.2742 15.4635 0)
(50.6218 15.6873 0)
(50.0141 15.8688 0)
(49.4492 16.0136 0)
(48.9257 16.1254 0)
(48.4443 16.2063 0)
(48.0075 16.2583 0)
(47.6168 16.2851 0)
(47.2699 16.2931 0)
(46.9599 16.289 0)
(46.6793 16.2768 0)
(46.425 16.255 0)
(46.2022 16.2169 0)
(46.0228 16.1545 0)
(45.899 16.0633 0)
(45.8363 15.9457 0)
(45.83 15.8104 0)
(45.8655 15.6699 0)
(45.9243 15.5359 0)
(45.9891 15.4155 0)
(46.051 15.3093 0)
(46.1078 15.2113 0)
(46.1711 15.1122 0)
(46.2449 14.9978 0)
(46.3603 14.8623 0)
(46.4896 14.6765 0)
(46.7347 14.4671 0)
(46.8656 14.1142 0)
(47.6626 13.5122 0)
(60.4587 8.11864 0)
(59.2817 9.69787 0)
(58.1502 10.9296 0)
(57.0835 11.9241 0)
(56.0772 12.7428 0)
(55.127 13.4235 0)
(54.2304 13.9921 0)
(53.3858 14.4676 0)
(52.5919 14.8646 0)
(51.8476 15.1946 0)
(51.1517 15.4671 0)
(50.5029 15.6904 0)
(49.8994 15.8715 0)
(49.3389 16.0159 0)
(48.8201 16.1274 0)
(48.3439 16.208 0)
(47.9126 16.2597 0)
(47.5277 16.2863 0)
(47.1866 16.294 0)
(46.8825 16.2897 0)
(46.6078 16.2774 0)
(46.3596 16.2555 0)
(46.1434 16.2173 0)
(45.971 16.1547 0)
(45.8546 16.0635 0)
(45.7992 15.9457 0)
(45.7998 15.8103 0)
(45.8415 15.6697 0)
(45.9055 15.5358 0)
(45.9747 15.4154 0)
(46.0405 15.3092 0)
(46.101 15.2112 0)
(46.1682 15.1121 0)
(46.2461 14.9977 0)
(46.3657 14.8622 0)
(46.4994 14.6763 0)
(46.7483 14.467 0)
(46.8841 14.1138 0)
(47.6806 13.5118 0)
(61.4317 5.99735 0)
(60.3609 8.1332 0)
(59.1629 9.71128 0)
(58.0229 10.9411 0)
(56.9521 11.934 0)
(55.9439 12.7513 0)
(54.9932 13.4309 0)
(54.0973 13.9985 0)
(53.2542 14.4731 0)
(52.4626 14.8693 0)
(51.7212 15.1987 0)
(51.0288 15.4707 0)
(50.384 15.6934 0)
(49.7846 15.8741 0)
(49.2287 16.0181 0)
(48.7149 16.1293 0)
(48.2439 16.2096 0)
(47.8182 16.261 0)
(47.4391 16.2873 0)
(47.104 16.2949 0)
(46.8059 16.2905 0)
(46.5371 16.278 0)
(46.2951 16.256 0)
(46.0855 16.2176 0)
(45.9203 16.155 0)
(45.8113 16.0636 0)
(45.7633 15.9457 0)
(45.7708 15.8102 0)
(45.8186 15.6696 0)
(45.8878 15.5356 0)
(45.9613 15.4152 0)
(46.0309 15.3091 0)
(46.0952 15.2111 0)
(46.1661 15.112 0)
(46.248 14.9976 0)
(46.3718 14.8621 0)
(46.51 14.6761 0)
(46.7626 14.4668 0)
(46.9032 14.1134 0)
(47.6991 13.5115 0)
(61.3398 3.05388 0)
(61.3776 6.00522 0)
(60.2564 8.14758 0)
(59.0399 9.72426 0)
(57.8926 10.9521 0)
(56.8183 11.9434 0)
(55.8087 12.7594 0)
(54.858 13.4379 0)
(53.963 14.0046 0)
(53.1217 14.4784 0)
(52.3327 14.8738 0)
(51.5944 15.2026 0)
(50.9057 15.474 0)
(50.2648 15.6963 0)
(49.6699 15.8765 0)
(49.1187 16.0202 0)
(48.6099 16.131 0)
(48.1443 16.211 0)
(47.7243 16.2622 0)
(47.3512 16.2883 0)
(47.0221 16.2957 0)
(46.73 16.2911 0)
(46.4673 16.2786 0)
(46.2316 16.2564 0)
(46.0287 16.218 0)
(45.8706 16.1552 0)
(45.7691 16.0636 0)
(45.7286 15.9456 0)
(45.743 15.8101 0)
(45.7968 15.6695 0)
(45.871 15.5355 0)
(45.9488 15.4151 0)
(46.0223 15.309 0)
(46.0902 15.211 0)
(46.1649 15.1119 0)
(46.2508 14.9975 0)
(46.3787 14.8619 0)
(46.5213 14.6759 0)
(46.7776 14.4666 0)
(46.9229 14.113 0)
(47.7181 13.5111 0)
(58.0917 0.486826 0)
(61.3652 3.02546 0)
(61.3143 6.0137 0)
(60.1457 8.16176 0)
(58.9128 9.73681 0)
(57.7593 10.9627 0)
(56.6824 11.9524 0)
(55.6718 12.7672 0)
(54.7213 13.4446 0)
(53.8276 14.0104 0)
(52.9885 14.4834 0)
(52.2022 14.8782 0)
(51.4673 15.2063 0)
(50.7823 15.4772 0)
(50.1457 15.699 0)
(49.5553 15.8789 0)
(49.0089 16.0222 0)
(48.5052 16.1327 0)
(48.0451 16.2124 0)
(47.631 16.2633 0)
(47.2639 16.2892 0)
(46.941 16.2964 0)
(46.6551 16.2917 0)
(46.3985 16.2791 0)
(46.1691 16.2568 0)
(45.973 16.2183 0)
(45.8221 16.1554 0)
(45.7281 16.0637 0)
(45.695 15.9456 0)
(45.7162 15.81 0)
(45.776 15.6693 0)
(45.8553 15.5353 0)
(45.9374 15.415 0)
(46.0146 15.3089 0)
(46.086 15.2109 0)
(46.1644 15.1118 0)
(46.2544 14.9973 0)
(46.3864 14.8618 0)
(46.5334 14.6757 0)
(46.7933 14.4664 0)
(46.9432 14.1126 0)
(47.7374 13.5108 0)
(54.4953 1.73843 0)
(58.1233 0.400539 0)
(61.382 2.99852 0)
(61.2418 6.02273 0)
(60.0289 8.17568 0)
(58.7818 9.74892 0)
(57.6233 10.9728 0)
(56.5443 11.9611 0)
(55.5332 12.7746 0)
(54.5834 13.451 0)
(53.6912 14.0159 0)
(52.8544 14.4882 0)
(52.0711 14.8823 0)
(51.3397 15.2098 0)
(50.6587 15.4802 0)
(50.0264 15.7016 0)
(49.4407 15.8811 0)
(48.8993 16.0241 0)
(48.4009 16.1343 0)
(47.9465 16.2138 0)
(47.5383 16.2644 0)
(47.1774 16.2901 0)
(46.8607 16.2971 0)
(46.581 16.2923 0)
(46.3306 16.2796 0)
(46.1076 16.2572 0)
(45.9183 16.2185 0)
(45.7748 16.1555 0)
(45.6883 16.0637 0)
(45.6626 15.9455 0)
(45.6906 15.8098 0)
(45.7564 15.6692 0)
(45.8407 15.5352 0)
(45.9269 15.4148 0)
(46.0078 15.3088 0)
(46.0828 15.2108 0)
(46.1649 15.1117 0)
(46.2588 14.9972 0)
(46.3949 14.8617 0)
(46.5461 14.6756 0)
(46.8095 14.4663 0)
(46.9642 14.1123 0)
(47.7572 13.5105 0)
(53.5101 3.64223 0)
(54.4952 1.69602 0)
(58.1517 0.314514 0)
(61.3901 2.97305 0)
(61.1604 6.03223 0)
(59.9065 8.18932 0)
(58.6473 9.7606 0)
(57.4847 10.9826 0)
(56.4042 11.9694 0)
(55.393 12.7818 0)
(54.4442 13.4572 0)
(53.5538 14.0212 0)
(52.7196 14.4927 0)
(51.9395 14.8862 0)
(51.2119 15.2132 0)
(50.535 15.4831 0)
(49.9072 15.7041 0)
(49.3264 15.8832 0)
(48.79 16.0259 0)
(48.297 16.1358 0)
(47.8483 16.215 0)
(47.4462 16.2654 0)
(47.0916 16.2909 0)
(46.7812 16.2978 0)
(46.5077 16.2928 0)
(46.2637 16.28 0)
(46.0472 16.2576 0)
(45.8647 16.2188 0)
(45.7285 16.1557 0)
(45.6496 16.0638 0)
(45.6313 15.9455 0)
(45.6662 15.8097 0)
(45.7378 15.669 0)
(45.827 15.535 0)
(45.9174 15.4147 0)
(46.0019 15.3087 0)
(46.0804 15.2107 0)
(46.1661 15.1116 0)
(46.2639 14.9971 0)
(46.4041 14.8616 0)
(46.5596 14.6754 0)
(46.8265 14.4661 0)
(46.9857 14.1119 0)
(47.7775 13.5102 0)
(52.9367 5.01575 0)
(53.5552 3.62628 0)
(54.4937 1.65417 0)
(58.1768 0.22866 0)
(61.389 2.94898 0)
(61.0701 6.04212 0)
(59.7787 8.20265 0)
(58.5093 9.77186 0)
(57.3436 10.992 0)
(56.2622 11.9774 0)
(55.2514 12.7886 0)
(54.3038 13.4631 0)
(53.4156 14.0263 0)
(52.5842 14.4971 0)
(51.8075 14.89 0)
(51.0837 15.2164 0)
(50.4112 15.4859 0)
(49.7881 15.7065 0)
(49.2121 15.8852 0)
(48.681 16.0276 0)
(48.1936 16.1372 0)
(47.7507 16.2162 0)
(47.3548 16.2664 0)
(47.0066 16.2917 0)
(46.7026 16.2984 0)
(46.4355 16.2933 0)
(46.1977 16.2804 0)
(45.9878 16.2579 0)
(45.8123 16.219 0)
(45.6835 16.1558 0)
(45.6122 16.0638 0)
(45.6013 15.9454 0)
(45.6429 15.8096 0)
(45.7204 15.6689 0)
(45.8144 15.5349 0)
(45.9088 15.4146 0)
(45.9969 15.3085 0)
(46.0789 15.2106 0)
(46.1682 15.1116 0)
(46.2699 14.997 0)
(46.414 14.8614 0)
(46.5737 14.6752 0)
(46.844 14.466 0)
(47.0078 14.1116 0)
(47.7981 13.5099 0)
(52.4391 5.97597 0)
(53.002 5.01071 0)
(53.6004 3.61106 0)
(54.4908 1.61274 0)
(58.1982 0.142904 0)
(61.3786 2.92628 0)
(60.9713 6.05235 0)
(59.6458 8.21565 0)
(58.3681 9.78268 0)
(57.2002 11.001 0)
(56.1184 11.985 0)
(55.1083 12.7952 0)
(54.1624 13.4687 0)
(53.2766 14.0312 0)
(52.4482 14.5013 0)
(51.6751 14.8936 0)
(50.9554 15.2195 0)
(50.2873 15.4885 0)
(49.669 15.7087 0)
(49.0982 15.8871 0)
(48.5724 16.0292 0)
(48.0906 16.1386 0)
(47.6538 16.2173 0)
(47.2641 16.2673 0)
(46.9223 16.2924 0)
(46.6249 16.299 0)
(46.3641 16.2938 0)
(46.1328 16.2808 0)
(45.9295 16.2582 0)
(45.761 16.2192 0)
(45.6396 16.1559 0)
(45.5759 16.0638 0)
(45.5724 15.9453 0)
(45.6208 15.8095 0)
(45.704 15.6687 0)
(45.8029 15.5347 0)
(45.9012 15.4145 0)
(45.9928 15.3084 0)
(46.0782 15.2105 0)
(46.1711 15.1115 0)
(46.2766 14.9969 0)
(46.4247 14.8613 0)
(46.5886 14.6751 0)
(46.8622 14.4658 0)
(47.0305 14.1113 0)
(47.8191 13.5096 0)
(52.0713 6.55898 0)
(52.5074 5.97104 0)
(53.0685 5.0064 0)
(53.6457 3.59655 0)
(54.4862 1.57162 0)
(58.2157 0.0571816 0)
(61.3585 2.90491 0)
(60.8643 6.06287 0)
(59.5082 8.22828 0)
(58.2239 9.79309 0)
(57.0546 11.0096 0)
(55.973 11.9923 0)
(54.9639 12.8014 0)
(54.0199 13.4741 0)
(53.1367 14.0358 0)
(52.3117 14.5053 0)
(51.5424 14.897 0)
(50.8269 15.2224 0)
(50.1635 15.491 0)
(49.5501 15.7108 0)
(48.9845 15.8889 0)
(48.4642 16.0307 0)
(47.9882 16.1399 0)
(47.5574 16.2184 0)
(47.1741 16.2682 0)
(46.8389 16.2931 0)
(46.548 16.2995 0)
(46.2937 16.2942 0)
(46.0689 16.2811 0)
(45.8722 16.2585 0)
(45.7108 16.2194 0)
(45.5969 16.156 0)
(45.5409 16.0638 0)
(45.5448 15.9452 0)
(45.5998 15.8093 0)
(45.6888 15.6686 0)
(45.7923 15.5346 0)
(45.8946 15.4143 0)
(45.9896 15.3083 0)
(46.0784 15.2104 0)
(46.1748 15.1114 0)
(46.2841 14.9968 0)
(46.4361 14.8612 0)
(46.6041 14.6749 0)
(46.881 14.4657 0)
(47.0537 14.111 0)
(47.8405 13.5093 0)
(51.7651 7.00839 0)
(52.1344 6.55242 0)
(52.5778 5.96627 0)
(53.1361 5.00282 0)
(53.691 3.58271 0)
(54.4799 1.5307 0)
(58.229 -0.0286264 0)
(61.3286 2.88486 0)
(60.7492 6.07357 0)
(59.3661 8.24056 0)
(58.0769 9.80307 0)
(56.907 11.0179 0)
(55.8259 11.9993 0)
(54.8183 12.8074 0)
(53.8765 13.4792 0)
(52.9962 14.0402 0)
(52.1746 14.5091 0)
(51.4093 14.9002 0)
(50.6983 15.2252 0)
(50.0396 15.4934 0)
(49.4313 15.7128 0)
(48.871 15.8906 0)
(48.3564 16.0321 0)
(47.8862 16.1411 0)
(47.4617 16.2194 0)
(47.0849 16.269 0)
(46.7563 16.2937 0)
(46.4721 16.3 0)
(46.2244 16.2946 0)
(46.006 16.2815 0)
(45.8161 16.2587 0)
(45.6619 16.2196 0)
(45.5554 16.1561 0)
(45.5071 16.0638 0)
(45.5183 15.9452 0)
(45.58 15.8092 0)
(45.6746 15.6684 0)
(45.7828 15.5345 0)
(45.8889 15.4142 0)
(45.9873 15.3082 0)
(46.0794 15.2103 0)
(46.1792 15.1113 0)
(46.2923 14.9967 0)
(46.4482 14.8611 0)
(46.6203 14.6748 0)
(46.9004 14.4655 0)
(47.0775 14.1107 0)
(47.8624 13.5089 0)
(51.4923 7.40414 0)
(51.8215 7.00359 0)
(52.1996 6.54593 0)
(52.65 5.96166 0)
(53.2046 4.99998 0)
(53.7361 3.56952 0)
(54.4717 1.48978 0)
(58.2379 -0.114645 0)
(61.2888 2.86602 0)
(60.6265 6.08443 0)
(59.2198 8.25243 0)
(57.9273 9.81266 0)
(56.7574 11.0258 0)
(55.6773 12.006 0)
(54.6715 12.8131 0)
(53.7322 13.4841 0)
(52.8551 14.0444 0)
(52.0372 14.5127 0)
(51.276 14.9033 0)
(50.5696 15.2278 0)
(49.9158 15.4956 0)
(49.3128 15.7147 0)
(48.758 15.8922 0)
(48.249 16.0335 0)
(47.7849 16.1422 0)
(47.3667 16.2203 0)
(46.9965 16.2697 0)
(46.6746 16.2943 0)
(46.3971 16.3005 0)
(46.156 16.295 0)
(45.9443 16.2818 0)
(45.7611 16.2589 0)
(45.614 16.2197 0)
(45.5152 16.1561 0)
(45.4744 16.0638 0)
(45.493 15.9451 0)
(45.5613 15.8091 0)
(45.6615 15.6683 0)
(45.7742 15.5343 0)
(45.8841 15.4141 0)
(45.9859 15.3081 0)
(46.0812 15.2102 0)
(46.1845 15.1112 0)
(46.3013 14.9966 0)
(46.461 14.861 0)
(46.6371 14.6746 0)
(46.9203 14.4654 0)
(47.1019 14.1103 0)
(47.8845 13.5086 0)
(51.2588 7.73197 0)
(51.5434 7.40008 0)
(51.8798 6.99893 0)
(52.267 6.53953 0)
(52.7239 5.9572 0)
(53.2739 4.99788 0)
(53.7809 3.55695 0)
(54.4617 1.44863 0)
(58.242 -0.200928 0)
(61.2389 2.84841 0)
(60.4966 6.09538 0)
(59.0697 8.26394 0)
(57.7752 9.82183 0)
(56.6059 11.0334 0)
(55.5273 12.0124 0)
(54.5236 12.8186 0)
(53.5871 13.4888 0)
(52.7133 14.0484 0)
(51.8993 14.5161 0)
(51.1426 14.9063 0)
(50.4408 15.2303 0)
(49.7922 15.4978 0)
(49.1945 15.7166 0)
(48.6453 15.8937 0)