/*--------------------------------*- C++ -*----------------------------------*\
  =========                 |
  \\      /  F ield         | OpenFOAM: The Open Source CFD Toolbox
   \\    /   O peration     | Website:  https://openfoam.org
    \\  /    A nd           | Version:  7
     \\/     M anipulation  |
\*---------------------------------------------------------------------------*/
FoamFile
{
    version     2.0;
    format      ascii;
    class       volScalarField;
    location    "1200";
    object      nut;
}
// * * * * * * * * * * * * * * * * * * * * * * * * * * * * * * * * * * * * * //

dimensions      [0 2 -1 0 0 0 0];

internalField   nonuniform List<scalar> 
23117
(
5.21907e-06
5.2167e-06
5.23191e-06
5.21655e-06
5.2302e-06
5.23984e-06
5.21588e-06
5.22946e-06
5.23754e-06
5.24167e-06
5.21556e-06
5.22854e-06
5.23609e-06
5.23734e-06
5.23605e-06
5.21527e-06
5.2278e-06
5.2344e-06
5.23485e-06
5.23038e-06
5.22783e-06
5.21504e-06
5.22702e-06
5.23265e-06
5.23194e-06
5.22779e-06
5.22413e-06
5.2254e-06
5.21484e-06
5.22623e-06
5.2308e-06
5.22919e-06
5.2251e-06
5.2236e-06
5.22545e-06
5.22788e-06
5.21466e-06
5.22538e-06
5.2289e-06
5.22659e-06
5.22316e-06
5.22329e-06
5.22603e-06
5.22802e-06
5.22827e-06
5.21449e-06
5.22447e-06
5.22696e-06
5.22425e-06
5.22185e-06
5.2235e-06
5.22637e-06
5.22756e-06
5.22649e-06
5.22566e-06
5.21432e-06
5.22351e-06
5.22504e-06
5.22225e-06
5.2212e-06
5.22388e-06
5.22652e-06
5.22677e-06
5.22523e-06
5.2238e-06
5.22472e-06
5.21413e-06
5.22248e-06
5.22317e-06
5.22065e-06
5.22112e-06
5.22433e-06
5.22634e-06
5.2257e-06
5.22396e-06
5.22355e-06
5.22484e-06
5.22654e-06
5.21393e-06
5.2214e-06
5.22142e-06
5.21949e-06
5.22135e-06
5.22468e-06
5.22585e-06
5.22451e-06
5.22299e-06
5.22343e-06
5.22512e-06
5.22682e-06
5.22758e-06
5.2137e-06
5.22029e-06
5.21982e-06
5.21878e-06
5.22172e-06
5.22482e-06
5.22509e-06
5.22332e-06
5.22239e-06
5.22352e-06
5.2253e-06
5.22636e-06
5.22624e-06
5.22563e-06
5.21345e-06
5.21916e-06
5.21844e-06
5.21851e-06
5.22214e-06
5.22472e-06
5.22414e-06
5.22229e-06
5.22217e-06
5.22368e-06
5.22525e-06
5.22569e-06
5.22465e-06
5.22247e-06
5.22111e-06
5.21317e-06
5.21804e-06
5.21729e-06
5.21863e-06
5.22254e-06
5.22437e-06
5.22309e-06
5.22149e-06
5.22212e-06
5.22381e-06
5.22493e-06
5.22462e-06
5.22291e-06
5.22026e-06
5.21715e-06
5.21589e-06
5.21285e-06
5.21695e-06
5.21641e-06
5.21893e-06
5.22282e-06
5.2238e-06
5.22206e-06
5.22101e-06
5.22218e-06
5.22379e-06
5.22432e-06
5.22328e-06
5.22095e-06
5.21803e-06
5.21515e-06
5.21253e-06
5.21199e-06
5.21251e-06
5.2159e-06
5.21581e-06
5.2193e-06
5.22292e-06
5.22306e-06
5.22112e-06
5.2208e-06
5.22226e-06
5.22358e-06
5.22345e-06
5.22174e-06
5.21899e-06
5.21594e-06
5.21325e-06
5.21138e-06
5.21029e-06
5.21058e-06
5.21215e-06
5.21494e-06
5.21549e-06
5.2197e-06
5.22284e-06
5.2222e-06
5.22035e-06
5.22071e-06
5.2223e-06
5.22316e-06
5.22236e-06
5.22009e-06
5.21708e-06
5.2141e-06
5.21178e-06
5.21045e-06
5.2102e-06
5.2105e-06
5.21129e-06
5.21176e-06
5.21408e-06
5.21545e-06
5.2201e-06
5.22257e-06
5.22131e-06
5.21979e-06
5.2207e-06
5.22221e-06
5.22253e-06
5.22111e-06
5.21843e-06
5.21531e-06
5.21257e-06
5.21073e-06
5.21003e-06
5.21027e-06
5.21119e-06
5.21231e-06
5.21325e-06
5.21135e-06
5.21333e-06
5.21566e-06
5.22043e-06
5.22215e-06
5.22044e-06
5.21946e-06
5.22072e-06
5.22199e-06
5.22173e-06
5.21977e-06
5.2168e-06
5.21375e-06
5.21136e-06
5.21009e-06
5.20997e-06
5.21068e-06
5.21185e-06
5.21332e-06
5.21478e-06
5.21569e-06
5.21094e-06
5.21272e-06
5.216e-06
5.22066e-06
5.22158e-06
5.21964e-06
5.2193e-06
5.22072e-06
5.22163e-06
5.22079e-06
5.21839e-06
5.21529e-06
5.21242e-06
5.21048e-06
5.2098e-06
5.21017e-06
5.21123e-06
5.21266e-06
5.2142e-06
5.21581e-06
5.21732e-06
5.21817e-06
5.21052e-06
5.21225e-06
5.21637e-06
5.22077e-06
5.22092e-06
5.21895e-06
5.2192e-06
5.22066e-06
5.22112e-06
5.21975e-06
5.21702e-06
5.21391e-06
5.21133e-06
5.20991e-06
5.20977e-06
5.21056e-06
5.21189e-06
5.21347e-06
5.21512e-06
5.21672e-06
5.21826e-06
5.21969e-06
5.22048e-06
5.2101e-06
5.21193e-06
5.21676e-06
5.22073e-06
5.2202e-06
5.21842e-06
5.21914e-06
5.22051e-06
5.22049e-06
5.21865e-06
5.21571e-06
5.2127e-06
5.2105e-06
5.20962e-06
5.20994e-06
5.21106e-06
5.21258e-06
5.21427e-06
5.21596e-06
5.21759e-06
5.2191e-06
5.22052e-06
5.22182e-06
5.22256e-06
5.20969e-06
5.21177e-06
5.21714e-06
5.22057e-06
5.21947e-06
5.21805e-06
5.21912e-06
5.22027e-06
5.21977e-06
5.21754e-06
5.21449e-06
5.21167e-06
5.20991e-06
5.20954e-06
5.21025e-06
5.21161e-06
5.21328e-06
5.21503e-06
5.21674e-06
5.21836e-06
5.21987e-06
5.22125e-06
5.22255e-06
5.22371e-06
5.22443e-06
5.2093e-06
5.21176e-06
5.21749e-06
5.2203e-06
5.21875e-06
5.21783e-06
5.21908e-06
5.21994e-06
5.21897e-06
5.21643e-06
5.21338e-06
5.21083e-06
5.20953e-06
5.20962e-06
5.21065e-06
5.2122e-06
5.21395e-06
5.21573e-06
5.21744e-06
5.21905e-06
5.22054e-06
5.22191e-06
5.22317e-06
5.22437e-06
5.22542e-06
5.22611e-06
5.20894e-06
5.2119e-06
5.21781e-06
5.21992e-06
5.21808e-06
5.21768e-06
5.21902e-06
5.21951e-06
5.21812e-06
5.21537e-06
5.21239e-06
5.21017e-06
5.20935e-06
5.20982e-06
5.2111e-06
5.21278e-06
5.21459e-06
5.21638e-06
5.21808e-06
5.21966e-06
5.22113e-06
5.22248e-06
5.22374e-06
5.2249e-06
5.22601e-06
5.22696e-06
5.22764e-06
5.20861e-06
5.21218e-06
5.21806e-06
5.21946e-06
5.21749e-06
5.21757e-06
5.2189e-06
5.21901e-06
5.21725e-06
5.21437e-06
5.21153e-06
5.20968e-06
5.20931e-06
5.2101e-06
5.21157e-06
5.21334e-06
5.21518e-06
5.21696e-06
5.21864e-06
5.2202e-06
5.22164e-06
5.22298e-06
5.22423e-06
5.22539e-06
5.22646e-06
5.22751e-06
5.22838e-06
5.22905e-06
5.20832e-06
5.21258e-06
5.21824e-06
5.21894e-06
5.21699e-06
5.21748e-06
5.21872e-06
5.21845e-06
5.21638e-06
5.21345e-06
5.21081e-06
5.20935e-06
5.20937e-06
5.21043e-06
5.21205e-06
5.21388e-06
5.21572e-06
5.21749e-06
5.21914e-06
5.22067e-06
5.22209e-06
5.22342e-06
5.22465e-06
5.2258e-06
5.22689e-06
5.22789e-06
5.22889e-06
5.22968e-06
5.23035e-06
5.20808e-06
5.21297e-06
5.21832e-06
5.21838e-06
5.2166e-06
5.21742e-06
5.21849e-06
5.21785e-06
5.21553e-06
5.2126e-06
5.21021e-06
5.20915e-06
5.20952e-06
5.21079e-06
5.21252e-06
5.21438e-06
5.21622e-06
5.21796e-06
5.21958e-06
5.22109e-06
5.22249e-06
5.22379e-06
5.22502e-06
5.22617e-06
5.22725e-06
5.22828e-06
5.22922e-06
5.23017e-06
5.2309e-06
5.23155e-06
5.20788e-06
5.21335e-06
5.21832e-06
5.2178e-06
5.21631e-06
5.21736e-06
5.21821e-06
5.21721e-06
5.21471e-06
5.21185e-06
5.20973e-06
5.20907e-06
5.20972e-06
5.21117e-06
5.21297e-06
5.21485e-06
5.21667e-06
5.21838e-06
5.21998e-06
5.22145e-06
5.22283e-06
5.22412e-06
5.22534e-06
5.22648e-06
5.22757e-06
5.22859e-06
5.22956e-06
5.23045e-06
5.23136e-06
5.23204e-06
5.23268e-06
5.20774e-06
5.21373e-06
5.21824e-06
5.21723e-06
5.21613e-06
5.21729e-06
5.21787e-06
5.21656e-06
5.21393e-06
5.21119e-06
5.20937e-06
5.20907e-06
5.20997e-06
5.21155e-06
5.21339e-06
5.21527e-06
5.21707e-06
5.21876e-06
5.22032e-06
5.22177e-06
5.22313e-06
5.22441e-06
5.22562e-06
5.22676e-06
5.22784e-06
5.22887e-06
5.22983e-06
5.23076e-06
5.2316e-06
5.23247e-06
5.23311e-06
5.23374e-06
5.20765e-06
5.21409e-06
5.21807e-06
5.21668e-06
5.21598e-06
5.21719e-06
5.21749e-06
5.21591e-06
5.21321e-06
5.21061e-06
5.20911e-06
5.20913e-06
5.21024e-06
5.21192e-06
5.21379e-06
5.21566e-06
5.21744e-06
5.21909e-06
5.22062e-06
5.22205e-06
5.22339e-06
5.22466e-06
5.22585e-06
5.22699e-06
5.22807e-06
5.2291e-06
5.23007e-06
5.231e-06
5.23188e-06
5.23268e-06
5.23351e-06
5.2341e-06
5.23472e-06
5.20762e-06
5.21443e-06
5.21785e-06
5.21616e-06
5.21585e-06
5.21707e-06
5.21708e-06
5.21526e-06
5.21254e-06
5.21012e-06
5.20894e-06
5.20924e-06
5.21052e-06
5.21227e-06
5.21416e-06
5.21601e-06
5.21776e-06
5.21938e-06
5.22089e-06
5.22229e-06
5.22362e-06
5.22487e-06
5.22606e-06
5.22719e-06
5.22827e-06
5.2293e-06
5.23027e-06
5.2312e-06
5.23208e-06
5.23292e-06
5.23368e-06
5.23449e-06
5.23503e-06
5.23564e-06
5.20766e-06
5.21475e-06
5.21756e-06
5.21569e-06
5.21574e-06
5.21691e-06
5.21665e-06
5.21464e-06
5.21194e-06
5.20971e-06
5.20884e-06
5.20939e-06
5.21081e-06
5.21261e-06
5.2145e-06
5.21633e-06
5.21805e-06
5.21964e-06
5.22112e-06
5.2225e-06
5.22381e-06
5.22505e-06
5.22624e-06
5.22736e-06
5.22844e-06
5.22946e-06
5.23044e-06
5.23137e-06
5.23226e-06
5.2331e-06
5.2339e-06
5.23462e-06
5.23539e-06
5.2359e-06
5.23651e-06
5.20775e-06
5.21503e-06
5.21723e-06
5.21528e-06
5.21565e-06
5.21673e-06
5.21619e-06
5.21404e-06
5.21138e-06
5.20937e-06
5.20881e-06
5.20957e-06
5.2111e-06
5.21294e-06
5.21482e-06
5.21662e-06
5.2183e-06
5.21986e-06
5.22132e-06
5.22269e-06
5.22398e-06
5.22521e-06
5.22638e-06
5.2275e-06
5.22858e-06
5.2296e-06
5.23058e-06
5.23151e-06
5.2324e-06
5.23324e-06
5.23404e-06
5.23481e-06
5.2355e-06
5.23624e-06
5.23671e-06
5.23731e-06
5.20791e-06
5.21527e-06
5.21686e-06
5.21493e-06
5.21557e-06
5.21651e-06
5.21573e-06
5.21347e-06
5.21089e-06
5.2091e-06
5.20881e-06
5.20976e-06
5.21137e-06
5.21324e-06
5.2151e-06
5.21688e-06
5.21853e-06
5.22006e-06
5.22149e-06
5.22284e-06
5.22412e-06
5.22534e-06
5.22651e-06
5.22762e-06
5.22869e-06
5.22971e-06
5.23068e-06
5.23161e-06
5.2325e-06
5.23335e-06
5.23416e-06
5.23493e-06
5.23566e-06
5.23632e-06
5.23704e-06
5.23747e-06
5.23806e-06
5.20815e-06
5.21547e-06
5.21646e-06
5.21464e-06
5.21549e-06
5.21628e-06
5.21527e-06
5.21293e-06
5.21045e-06
5.2089e-06
5.20886e-06
5.20996e-06
5.21164e-06
5.21351e-06
5.21536e-06
5.21711e-06
5.21873e-06
5.22023e-06
5.22165e-06
5.22298e-06
5.22425e-06
5.22545e-06
5.22661e-06
5.22772e-06
5.22877e-06
5.22979e-06
5.23076e-06
5.23169e-06
5.23258e-06
5.23343e-06
5.23424e-06
5.23502e-06
5.23575e-06
5.23645e-06
5.23709e-06
5.23778e-06
5.23818e-06
5.23877e-06
5.20848e-06
5.21563e-06
5.21604e-06
5.21442e-06
5.21541e-06
5.21602e-06
5.21482e-06
5.21243e-06
5.21007e-06
5.20874e-06
5.20893e-06
5.21016e-06
5.2119e-06
5.21377e-06
5.2156e-06
5.21731e-06
5.2189e-06
5.22039e-06
5.22178e-06
5.22309e-06
5.22435e-06
5.22554e-06
5.22669e-06
5.22779e-06
5.22884e-06
5.22985e-06
5.23082e-06
5.23175e-06
5.23263e-06
5.23349e-06
5.2343e-06
5.23508e-06
5.23582e-06
5.23652e-06
5.2372e-06
5.2378e-06
5.23847e-06
5.23884e-06
5.23942e-06
5.20897e-06
5.21573e-06
5.21561e-06
5.21426e-06
5.21532e-06
5.21574e-06
5.21437e-06
5.21197e-06
5.20973e-06
5.20864e-06
5.20903e-06
5.21037e-06
5.21214e-06
5.21401e-06
5.21581e-06
5.2175e-06
5.21906e-06
5.22052e-06
5.22189e-06
5.22319e-06
5.22443e-06
5.22562e-06
5.22675e-06
5.22784e-06
5.22889e-06
5.22989e-06
5.23085e-06
5.23178e-06
5.23266e-06
5.23351e-06
5.23433e-06
5.23511e-06
5.23586e-06
5.23657e-06
5.23724e-06
5.23789e-06
5.23847e-06
5.23912e-06
5.23946e-06
5.24004e-06
5.20942e-06
5.21577e-06
5.21519e-06
5.21413e-06
5.21522e-06
5.21545e-06
5.21394e-06
5.21154e-06
5.20944e-06
5.20858e-06
5.20914e-06
5.21057e-06
5.21237e-06
5.21423e-06
5.216e-06
5.21766e-06
5.21919e-06
5.22063e-06
5.22198e-06
5.22327e-06
5.2245e-06
5.22567e-06
5.2268e-06
5.22788e-06
5.22892e-06
5.22991e-06
5.23087e-06
5.23179e-06
5.23267e-06
5.23352e-06
5.23433e-06
5.23512e-06
5.23587e-06
5.23658e-06
5.23727e-06
5.23792e-06
5.23854e-06
5.2391e-06
5.23972e-06
5.24004e-06
5.24061e-06
5.20977e-06
5.21575e-06
5.21477e-06
5.214e-06
5.21511e-06
5.21516e-06
5.21352e-06
5.21115e-06
5.20919e-06
5.20855e-06
5.20926e-06
5.21077e-06
5.21258e-06
5.21443e-06
5.21617e-06
5.2178e-06
5.21931e-06
5.22073e-06
5.22207e-06
5.22334e-06
5.22455e-06
5.22572e-06
5.22683e-06
5.2279e-06
5.22893e-06
5.22992e-06
5.23087e-06
5.23178e-06
5.23266e-06
5.2335e-06
5.23432e-06
5.2351e-06
5.23585e-06
5.23657e-06
5.23726e-06
5.23792e-06
5.23855e-06
5.23915e-06
5.23968e-06
5.24029e-06
5.24058e-06
5.24115e-06
5.21009e-06
5.21566e-06
5.21437e-06
5.21388e-06
5.21499e-06
5.21486e-06
5.21312e-06
5.21079e-06
5.20898e-06
5.20854e-06
5.20939e-06
5.21096e-06
5.21278e-06
5.21461e-06
5.21633e-06
5.21793e-06
5.21942e-06
5.22081e-06
5.22213e-06
5.22339e-06
5.22459e-06
5.22575e-06
5.22685e-06
5.22791e-06
5.22893e-06
5.22991e-06
5.23085e-06
5.23176e-06
5.23263e-06
5.23347e-06
5.23428e-06
5.23507e-06
5.23582e-06
5.23654e-06
5.23724e-06
5.2379e-06
5.23854e-06
5.23914e-06
5.23972e-06
5.24023e-06
5.24082e-06
5.24108e-06
5.24165e-06
5.21039e-06
5.21554e-06
5.214e-06
5.21378e-06
5.21485e-06
5.21455e-06
5.21275e-06
5.21047e-06
5.2088e-06
5.20855e-06
5.20953e-06
5.21114e-06
5.21297e-06
5.21477e-06
5.21647e-06
5.21804e-06
5.2195e-06
5.22088e-06
5.22219e-06
5.22343e-06
5.22462e-06
5.22576e-06
5.22686e-06
5.22791e-06
5.22891e-06
5.22988e-06
5.23082e-06
5.23172e-06
5.23259e-06
5.23342e-06
5.23423e-06
5.23501e-06
5.23576e-06
5.23649e-06
5.23719e-06
5.23786e-06
5.2385e-06
5.23911e-06
5.23969e-06
5.24025e-06
5.24074e-06
5.24131e-06
5.24155e-06
5.24211e-06
5.21065e-06
5.21537e-06
5.21365e-06
5.21368e-06
5.2147e-06
5.21425e-06
5.21239e-06
5.21017e-06
5.20866e-06
5.20858e-06
5.20966e-06
5.21132e-06
5.21314e-06
5.21492e-06
5.21659e-06
5.21814e-06
5.21958e-06
5.22094e-06
5.22223e-06
5.22346e-06
5.22464e-06
5.22577e-06
5.22685e-06
5.22789e-06
5.22889e-06
5.22985e-06
5.23077e-06
5.23167e-06
5.23253e-06
5.23336e-06
5.23416e-06
5.23494e-06
5.23569e-06
5.23642e-06
5.23712e-06
5.23779e-06
5.23844e-06
5.23905e-06
5.23965e-06
5.2402e-06
5.24074e-06
5.24121e-06
5.24177e-06
5.24199e-06
5.24254e-06
5.21089e-06
5.21518e-06
5.21334e-06
5.21359e-06
5.21454e-06
5.21396e-06
5.21206e-06
5.2099e-06
5.20854e-06
5.20863e-06
5.2098e-06
5.21148e-06
5.2133e-06
5.21506e-06
5.2167e-06
5.21822e-06
5.21965e-06
5.22099e-06
5.22226e-06
5.22348e-06
5.22465e-06
5.22577e-06
5.22684e-06
5.22786e-06
5.22885e-06
5.2298e-06
5.23072e-06
5.2316e-06
5.23246e-06
5.23328e-06
5.23408e-06
5.23486e-06
5.23561e-06
5.23633e-06
5.23703e-06
5.2377e-06
5.23835e-06
5.23898e-06
5.23957e-06
5.24015e-06
5.24068e-06
5.24121e-06
5.24166e-06
5.2422e-06
5.2424e-06
5.24295e-06
5.21111e-06
5.21495e-06
5.21305e-06
5.21351e-06
5.21438e-06
5.21367e-06
5.21174e-06
5.20966e-06
5.20845e-06
5.20868e-06
5.20993e-06
5.21164e-06
5.21345e-06
5.21518e-06
5.2168e-06
5.2183e-06
5.2197e-06
5.22103e-06
5.22229e-06
5.2235e-06
5.22465e-06
5.22575e-06
5.22681e-06
5.22783e-06
5.22881e-06
5.22975e-06
5.23065e-06
5.23153e-06
5.23238e-06
5.2332e-06
5.23399e-06
5.23476e-06
5.2355e-06
5.23623e-06
5.23692e-06
5.2376e-06
5.23825e-06
5.23888e-06
5.23948e-06
5.24006e-06
5.24061e-06
5.24113e-06
5.24164e-06
5.24207e-06
5.2426e-06
5.24278e-06
5.24332e-06
5.21129e-06
5.21471e-06
5.21281e-06
5.21343e-06
5.2142e-06
5.21338e-06
5.21145e-06
5.20945e-06
5.20838e-06
5.20875e-06
5.21006e-06
5.21179e-06
5.21358e-06
5.21529e-06
5.21688e-06
5.21836e-06
5.21975e-06
5.22106e-06
5.22231e-06
5.2235e-06
5.22464e-06
5.22573e-06
5.22678e-06
5.22779e-06
5.22875e-06
5.22968e-06
5.23058e-06
5.23145e-06
5.23229e-06
5.2331e-06
5.23389e-06
5.23465e-06
5.23539e-06
5.23611e-06
5.23681e-06
5.23748e-06
5.23813e-06
5.23876e-06
5.23937e-06
5.23995e-06
5.24051e-06
5.24104e-06
5.24155e-06
5.24204e-06
5.24245e-06
5.24297e-06
5.24313e-06
5.24367e-06
5.21146e-06
5.21444e-06
5.2126e-06
5.21335e-06
5.21403e-06
5.21311e-06
5.21118e-06
5.20925e-06
5.20833e-06
5.20882e-06
5.21019e-06
5.21192e-06
5.2137e-06
5.21539e-06
5.21696e-06
5.21842e-06
5.21979e-06
5.22108e-06
5.22232e-06
5.2235e-06
5.22462e-06
5.2257e-06
5.22674e-06
5.22773e-06
5.22869e-06
5.22961e-06
5.2305e-06
5.23136e-06
5.23219e-06
5.23299e-06
5.23377e-06
5.23453e-06
5.23527e-06
5.23598e-06
5.23667e-06
5.23735e-06
5.238e-06
5.23863e-06
5.23924e-06
5.23982e-06
5.24039e-06
5.24093e-06
5.24145e-06
5.24193e-06
5.24241e-06
5.24281e-06
5.24331e-06
5.24345e-06
5.24398e-06
5.2116e-06
5.21417e-06
5.21242e-06
5.21327e-06
5.21385e-06
5.21285e-06
5.21093e-06
5.20908e-06
5.2083e-06
5.20889e-06
5.21031e-06
5.21205e-06
5.21382e-06
5.21548e-06
5.21703e-06
5.21847e-06
5.21982e-06
5.2211e-06
5.22232e-06
5.22349e-06
5.2246e-06
5.22567e-06
5.22669e-06
5.22768e-06
5.22862e-06
5.22953e-06
5.23041e-06
5.23126e-06
5.23208e-06
5.23288e-06
5.23365e-06
5.2344e-06
5.23513e-06
5.23584e-06
5.23653e-06
5.2372e-06
5.23785e-06
5.23848e-06
5.23909e-06
5.23968e-06
5.24025e-06
5.2408e-06
5.24132e-06
5.24182e-06
5.24229e-06
5.24275e-06
5.24314e-06
5.24363e-06
5.24375e-06
5.24428e-06
5.21171e-06
5.21389e-06
5.21228e-06
5.21319e-06
5.21367e-06
5.2126e-06
5.21069e-06
5.20893e-06
5.20828e-06
5.20897e-06
5.21043e-06
5.21217e-06
5.21392e-06
5.21556e-06
5.21709e-06
5.21851e-06
5.21984e-06
5.22111e-06
5.22232e-06
5.22347e-06
5.22458e-06
5.22563e-06
5.22664e-06
5.22762e-06
5.22855e-06
5.22945e-06
5.23032e-06
5.23116e-06
5.23197e-06
5.23276e-06
5.23353e-06
5.23427e-06
5.23499e-06
5.23569e-06
5.23638e-06
5.23704e-06
5.23769e-06
5.23832e-06
5.23893e-06
5.23952e-06
5.24009e-06
5.24064e-06
5.24117e-06
5.24168e-06
5.24216e-06
5.24262e-06
5.24306e-06
5.24344e-06
5.24392e-06
5.24403e-06
5.24455e-06
5.2118e-06
5.2136e-06
5.21217e-06
5.2131e-06
5.21348e-06
5.21236e-06
5.21047e-06
5.20879e-06
5.20827e-06
5.20904e-06
5.21054e-06
5.21229e-06
5.21402e-06
5.21564e-06
5.21714e-06
5.21854e-06
5.21986e-06
5.22111e-06
5.22231e-06
5.22345e-06
5.22454e-06
5.22559e-06
5.22659e-06
5.22755e-06
5.22847e-06
5.22936e-06
5.23022e-06
5.23105e-06
5.23186e-06
5.23264e-06
5.23339e-06
5.23413e-06
5.23484e-06
5.23554e-06
5.23621e-06
5.23687e-06
5.23752e-06
5.23814e-06
5.23875e-06
5.23934e-06
5.23992e-06
5.24047e-06
5.24101e-06
5.24152e-06
5.24201e-06
5.24248e-06
5.24293e-06
5.24335e-06
5.24372e-06
5.24418e-06
5.24428e-06
5.24479e-06
5.21188e-06
5.21331e-06
5.21205e-06
5.21302e-06
5.2133e-06
5.21213e-06
5.21027e-06
5.20867e-06
5.20827e-06
5.20912e-06
5.21065e-06
5.21239e-06
5.2141e-06
5.2157e-06
5.21718e-06
5.21857e-06
5.21987e-06
5.22111e-06
5.2223e-06
5.22343e-06
5.22451e-06
5.22554e-06
5.22653e-06
5.22748e-06
5.22839e-06
5.22927e-06
5.23012e-06
5.23094e-06
5.23173e-06
5.23251e-06
5.23325e-06
5.23398e-06
5.23469e-06
5.23538e-06
5.23605e-06
5.2367e-06
5.23734e-06
5.23796e-06
5.23857e-06
5.23916e-06
5.23973e-06
5.24029e-06
5.24083e-06
5.24135e-06
5.24184e-06
5.24232e-06
5.24278e-06
5.24321e-06
5.24362e-06
5.24397e-06
5.24443e-06
5.24451e-06
5.24502e-06
5.21193e-06
5.21302e-06
5.21194e-06
5.21293e-06
5.21312e-06
5.21191e-06
5.21008e-06
5.20857e-06
5.20828e-06
5.2092e-06
5.21075e-06
5.21249e-06
5.21418e-06
5.21576e-06
5.21722e-06
5.21859e-06
5.21988e-06
5.22111e-06
5.22228e-06
5.2234e-06
5.22446e-06
5.22549e-06
5.22646e-06
5.2274e-06
5.2283e-06
5.22917e-06
5.23001e-06
5.23082e-06
5.23161e-06
5.23237e-06
5.23311e-06
5.23383e-06
5.23453e-06
5.23521e-06
5.23587e-06
5.23652e-06
5.23715e-06
5.23777e-06
5.23837e-06
5.23896e-06
5.23953e-06
5.24009e-06
5.24063e-06
5.24115e-06
5.24166e-06
5.24214e-06
5.24261e-06
5.24305e-06
5.24346e-06
5.24387e-06
5.2442e-06
5.24465e-06
5.24472e-06
5.24522e-06
5.21196e-06
5.21273e-06
5.21183e-06
5.21283e-06
5.21295e-06
5.21171e-06
5.20991e-06
5.20847e-06
5.20829e-06
5.20928e-06
5.21085e-06
5.21258e-06
5.21425e-06
5.21581e-06
5.21725e-06
5.2186e-06
5.21988e-06
5.2211e-06
5.22226e-06
5.22336e-06
5.22442e-06
5.22543e-06
5.2264e-06
5.22732e-06
5.22822e-06
5.22907e-06
5.2299e-06
5.23071e-06
5.23148e-06
5.23223e-06
5.23296e-06
5.23367e-06
5.23436e-06
5.23503e-06
5.23569e-06
5.23633e-06
5.23695e-06
5.23757e-06
5.23816e-06
5.23875e-06
5.23932e-06
5.23988e-06
5.24042e-06
5.24094e-06
5.24145e-06
5.24195e-06
5.24242e-06
5.24287e-06
5.2433e-06
5.2437e-06
5.24409e-06
5.24441e-06
5.24485e-06
5.24492e-06
5.2454e-06
5.21198e-06
5.21245e-06
5.21172e-06
5.21274e-06
5.21278e-06
5.21151e-06
5.20975e-06
5.20839e-06
5.20831e-06
5.20935e-06
5.21094e-06
5.21266e-06
5.21432e-06
5.21585e-06
5.21728e-06
5.21862e-06
5.21988e-06
5.22109e-06
5.22223e-06
5.22333e-06
5.22437e-06
5.22537e-06
5.22633e-06
5.22724e-06
5.22812e-06
5.22897e-06
5.22979e-06
5.23058e-06
5.23135e-06
5.23209e-06
5.23281e-06
5.23351e-06
5.23419e-06
5.23486e-06
5.2355e-06
5.23614e-06
5.23675e-06
5.23736e-06
5.23795e-06
5.23853e-06
5.2391e-06
5.23966e-06
5.2402e-06
5.24072e-06
5.24124e-06
5.24173e-06
5.24221e-06
5.24267e-06
5.24311e-06
5.24352e-06
5.24391e-06
5.24429e-06
5.2446e-06
5.24503e-06
5.24509e-06
5.24556e-06
5.21197e-06
5.21218e-06
5.21162e-06
5.21264e-06
5.21261e-06
5.21133e-06
5.2096e-06
5.20832e-06
5.20834e-06
5.20943e-06
5.21103e-06
5.21274e-06
5.21438e-06
5.21589e-06
5.2173e-06
5.21863e-06
5.21988e-06
5.22107e-06
5.22221e-06
5.22329e-06
5.22432e-06
5.22531e-06
5.22625e-06
5.22716e-06
5.22803e-06
5.22887e-06
5.22968e-06
5.23046e-06
5.23122e-06
5.23195e-06
5.23266e-06
5.23335e-06
5.23402e-06
5.23468e-06
5.23532e-06
5.23594e-06
5.23655e-06
5.23715e-06
5.23774e-06
5.23831e-06
5.23887e-06
5.23943e-06
5.23997e-06
5.24049e-06
5.24101e-06
5.24151e-06
5.24199e-06
5.24245e-06
5.2429e-06
5.24332e-06
5.24373e-06
5.2441e-06
5.24447e-06
5.24477e-06
5.2452e-06
5.24524e-06
5.24571e-06
5.21196e-06
5.21192e-06
5.21153e-06
5.21254e-06
5.21245e-06
5.21116e-06
5.20947e-06
5.20826e-06
5.20836e-06
5.2095e-06
5.21111e-06
5.21281e-06
5.21443e-06
5.21593e-06
5.21732e-06
5.21863e-06
5.21987e-06
5.22105e-06
5.22218e-06
5.22325e-06
5.22427e-06
5.22525e-06
5.22618e-06
5.22708e-06
5.22794e-06
5.22877e-06
5.22957e-06
5.23034e-06
5.23108e-06
5.23181e-06
5.23251e-06
5.23319e-06
5.23385e-06
5.23449e-06
5.23512e-06
5.23574e-06
5.23634e-06
5.23693e-06
5.23751e-06
5.23808e-06
5.23864e-06
5.23919e-06
5.23973e-06
5.24025e-06
5.24077e-06
5.24127e-06
5.24175e-06
5.24222e-06
5.24267e-06
5.24311e-06
5.24352e-06
5.24391e-06
5.24428e-06
5.24464e-06
5.24493e-06
5.24534e-06
5.24538e-06
5.24584e-06
5.21193e-06
5.21166e-06
5.21144e-06
5.21244e-06
5.21229e-06
5.21099e-06
5.20934e-06
5.20821e-06
5.20839e-06
5.20957e-06
5.21119e-06
5.21288e-06
5.21448e-06
5.21596e-06
5.21734e-06
5.21863e-06
5.21986e-06
5.22103e-06
5.22215e-06
5.22321e-06
5.22422e-06
5.22518e-06
5.22611e-06
5.22699e-06
5.22784e-06
5.22866e-06
5.22945e-06
5.23021e-06
5.23095e-06
5.23166e-06
5.23235e-06
5.23302e-06
5.23368e-06
5.23431e-06
5.23493e-06
5.23554e-06
5.23613e-06
5.23672e-06
5.23729e-06
5.23785e-06
5.2384e-06
5.23895e-06
5.23948e-06
5.24e-06
5.24052e-06
5.24102e-06
5.2415e-06
5.24198e-06
5.24244e-06
5.24288e-06
5.2433e-06
5.2437e-06
5.24408e-06
5.24443e-06
5.24478e-06
5.24506e-06
5.24547e-06
5.2455e-06
5.24595e-06
5.21188e-06
5.21142e-06
5.21135e-06
5.21234e-06
5.21214e-06
5.21084e-06
5.20922e-06
5.20817e-06
5.20843e-06
5.20964e-06
5.21127e-06
5.21294e-06
5.21452e-06
5.21599e-06
5.21735e-06
5.21863e-06
5.21985e-06
5.22101e-06
5.22211e-06
5.22316e-06
5.22416e-06
5.22512e-06
5.22603e-06
5.2269e-06
5.22775e-06
5.22855e-06
5.22933e-06
5.23009e-06
5.23081e-06
5.23152e-06
5.2322e-06
5.23286e-06
5.2335e-06
5.23413e-06
5.23474e-06
5.23534e-06
5.23592e-06
5.2365e-06
5.23706e-06
5.23762e-06
5.23816e-06
5.2387e-06
5.23923e-06
5.23975e-06
5.24026e-06
5.24076e-06
5.24125e-06
5.24172e-06
5.24218e-06
5.24263e-06
5.24306e-06
5.24347e-06
5.24386e-06
5.24423e-06
5.24457e-06
5.24491e-06
5.24518e-06
5.24558e-06
5.24561e-06
5.24605e-06
5.21183e-06
5.21118e-06
5.21127e-06
5.21224e-06
5.212e-06
5.21069e-06
5.20912e-06
5.20813e-06
5.20846e-06
5.20971e-06
5.21134e-06
5.213e-06
5.21456e-06
5.21601e-06
5.21736e-06
5.21863e-06
5.21984e-06
5.22098e-06
5.22208e-06
5.22311e-06
5.2241e-06
5.22505e-06
5.22595e-06
5.22682e-06
5.22765e-06
5.22845e-06
5.22922e-06
5.22996e-06
5.23068e-06
5.23137e-06
5.23204e-06
5.23269e-06
5.23333e-06
5.23394e-06
5.23454e-06
5.23513e-06
5.23571e-06
5.23628e-06
5.23683e-06
5.23738e-06
5.23792e-06
5.23845e-06
5.23897e-06
5.23949e-06
5.23999e-06
5.24049e-06
5.24098e-06
5.24146e-06
5.24192e-06
5.24237e-06
5.24281e-06
5.24322e-06
5.24362e-06
5.244e-06
5.24436e-06
5.24469e-06
5.24502e-06
5.24528e-06
5.24568e-06
5.2457e-06
5.24613e-06
5.21176e-06
5.21096e-06
5.21119e-06
5.21215e-06
5.21186e-06
5.21055e-06
5.20902e-06
5.2081e-06
5.2085e-06
5.20978e-06
5.2114e-06
5.21305e-06
5.2146e-06
5.21603e-06
5.21737e-06
5.21863e-06
5.21982e-06
5.22096e-06
5.22204e-06
5.22307e-06
5.22405e-06
5.22498e-06
5.22587e-06
5.22673e-06
5.22755e-06
5.22834e-06
5.2291e-06
5.22983e-06
5.23054e-06
5.23122e-06
5.23189e-06
5.23253e-06
5.23315e-06
5.23376e-06
5.23435e-06
5.23493e-06
5.2355e-06
5.23605e-06
5.2366e-06
5.23714e-06
5.23767e-06
5.23819e-06
5.23871e-06
5.23922e-06
5.23972e-06
5.24022e-06
5.2407e-06
5.24118e-06
5.24165e-06
5.2421e-06
5.24254e-06
5.24296e-06
5.24337e-06
5.24376e-06
5.24412e-06
5.24447e-06
5.24479e-06
5.24511e-06
5.24537e-06
5.24576e-06
5.24578e-06
5.2462e-06
5.21168e-06
5.21075e-06
5.21111e-06
5.21205e-06
5.21172e-06
5.21042e-06
5.20893e-06
5.20808e-06
5.20853e-06
5.20984e-06
5.21147e-06
5.2131e-06
5.21463e-06
5.21605e-06
5.21737e-06
5.21862e-06
5.2198e-06
5.22093e-06
5.222e-06
5.22302e-06
5.22399e-06
5.22491e-06
5.2258e-06
5.22664e-06
5.22746e-06
5.22824e-06
5.22899e-06
5.22971e-06
5.23041e-06
5.23108e-06
5.23173e-06
5.23236e-06
5.23298e-06
5.23357e-06
5.23416e-06
5.23473e-06
5.23529e-06
5.23583e-06
5.23637e-06
5.2369e-06
5.23742e-06
5.23794e-06
5.23845e-06
5.23895e-06
5.23945e-06
5.23994e-06
5.24042e-06
5.2409e-06
5.24136e-06
5.24182e-06
5.24226e-06
5.24269e-06
5.2431e-06
5.2435e-06
5.24388e-06
5.24423e-06
5.24457e-06
5.24488e-06
5.24519e-06
5.24544e-06
5.24583e-06
5.24584e-06
5.24625e-06
5.2116e-06
5.21056e-06
5.21104e-06
5.21195e-06
5.21159e-06
5.2103e-06
5.20884e-06
5.20806e-06
5.20857e-06
5.2099e-06
5.21152e-06
5.21315e-06
5.21466e-06
5.21606e-06
5.21737e-06
5.21861e-06
5.21979e-06
5.2209e-06
5.22196e-06
5.22297e-06
5.22393e-06
5.22484e-06
5.22572e-06
5.22656e-06
5.22736e-06
5.22813e-06
5.22887e-06
5.22958e-06
5.23027e-06
5.23094e-06
5.23158e-06
5.2322e-06
5.2328e-06
5.23339e-06
5.23397e-06
5.23453e-06
5.23507e-06
5.23561e-06
5.23614e-06
5.23666e-06
5.23718e-06
5.23768e-06
5.23818e-06
5.23868e-06
5.23917e-06
5.23966e-06
5.24013e-06
5.24061e-06
5.24107e-06
5.24153e-06
5.24197e-06
5.2424e-06
5.24282e-06
5.24323e-06
5.24361e-06
5.24398e-06
5.24433e-06
5.24465e-06
5.24496e-06
5.24526e-06
5.2455e-06
5.24588e-06
5.24589e-06
5.2463e-06
5.2115e-06
5.21037e-06
5.21098e-06
5.21186e-06
5.21147e-06
5.21018e-06
5.20876e-06
5.20805e-06
5.20861e-06
5.20995e-06
5.21158e-06
5.21319e-06
5.21469e-06
5.21608e-06
5.21737e-06
5.2186e-06
5.21977e-06
5.22087e-06
5.22192e-06
5.22292e-06
5.22387e-06
5.22478e-06
5.22564e-06
5.22647e-06
5.22726e-06
5.22802e-06
5.22876e-06
5.22946e-06
5.23014e-06
5.23079e-06
5.23143e-06
5.23204e-06
5.23263e-06
5.23321e-06
5.23378e-06
5.23433e-06
5.23487e-06
5.23539e-06
5.23591e-06
5.23643e-06
5.23693e-06
5.23743e-06
5.23792e-06
5.23841e-06
5.23889e-06
5.23937e-06
5.23984e-06
5.24031e-06
5.24077e-06
5.24123e-06
5.24167e-06
5.24211e-06
5.24253e-06
5.24294e-06
5.24333e-06
5.24371e-06
5.24407e-06
5.2444e-06
5.24472e-06
5.24501e-06
5.24531e-06
5.24554e-06
5.24592e-06
5.24594e-06
5.24633e-06
5.21141e-06
5.2102e-06
5.21091e-06
5.21177e-06
5.21135e-06
5.21007e-06
5.20869e-06
5.20805e-06
5.20864e-06
5.21001e-06
5.21163e-06
5.21323e-06
5.21471e-06
5.21609e-06
5.21737e-06
5.21859e-06
5.21975e-06
5.22084e-06
5.22188e-06
5.22287e-06
5.22381e-06
5.22471e-06
5.22556e-06
5.22638e-06
5.22717e-06
5.22792e-06
5.22864e-06
5.22934e-06
5.23001e-06
5.23065e-06
5.23128e-06
5.23188e-06
5.23246e-06
5.23303e-06
5.23359e-06
5.23413e-06
5.23466e-06
5.23518e-06
5.23569e-06
5.23619e-06
5.23668e-06
5.23717e-06
5.23766e-06
5.23813e-06
5.23861e-06
5.23908e-06
5.23955e-06
5.24001e-06
5.24047e-06
5.24092e-06
5.24137e-06
5.2418e-06
5.24223e-06
5.24264e-06
5.24304e-06
5.24343e-06
5.24379e-06
5.24414e-06
5.24446e-06
5.24477e-06
5.24506e-06
5.24534e-06
5.24557e-06
5.24595e-06
5.24596e-06
5.24635e-06
5.2113e-06
5.21005e-06
5.21085e-06
5.21168e-06
5.21124e-06
5.20997e-06
5.20863e-06
5.20804e-06
5.20868e-06
5.21006e-06
5.21168e-06
5.21326e-06
5.21473e-06
5.21609e-06
5.21737e-06
5.21858e-06
5.21973e-06
5.22081e-06
5.22184e-06
5.22282e-06
5.22375e-06
5.22464e-06
5.22549e-06
5.2263e-06
5.22707e-06
5.22782e-06
5.22853e-06
5.22922e-06
5.22988e-06
5.23051e-06
5.23113e-06
5.23172e-06
5.2323e-06
5.23286e-06
5.2334e-06
5.23393e-06
5.23445e-06
5.23496e-06
5.23546e-06
5.23595e-06
5.23644e-06
5.23692e-06
5.23739e-06
5.23786e-06
5.23833e-06
5.23879e-06
5.23925e-06
5.23971e-06
5.24016e-06
5.24061e-06
5.24106e-06
5.24149e-06
5.24192e-06
5.24233e-06
5.24274e-06
5.24313e-06
5.2435e-06
5.24386e-06
5.2442e-06
5.24451e-06
5.24481e-06
5.24509e-06
5.24536e-06
5.24559e-06
5.24596e-06
5.24598e-06
5.24636e-06
5.21119e-06
5.2099e-06
5.21079e-06
5.21159e-06
5.21113e-06
5.20987e-06
5.20857e-06
5.20804e-06
5.20872e-06
5.21011e-06
5.21173e-06
5.2133e-06
5.21475e-06
5.2161e-06
5.21737e-06
5.21857e-06
5.2197e-06
5.22078e-06
5.2218e-06
5.22278e-06
5.2237e-06
5.22458e-06
5.22541e-06
5.22621e-06
5.22698e-06
5.22772e-06
5.22842e-06
5.2291e-06
5.22975e-06
5.23037e-06
5.23098e-06
5.23157e-06
5.23213e-06
5.23268e-06
5.23322e-06
5.23374e-06
5.23425e-06
5.23475e-06
5.23524e-06
5.23572e-06
5.2362e-06
5.23667e-06
5.23713e-06
5.23759e-06
5.23805e-06
5.2385e-06
5.23896e-06
5.23941e-06
5.23985e-06
5.2403e-06
5.24074e-06
5.24117e-06
5.2416e-06
5.24202e-06
5.24243e-06
5.24282e-06
5.2432e-06
5.24357e-06
5.24391e-06
5.24424e-06
5.24455e-06
5.24483e-06
5.2451e-06
5.24537e-06
5.24559e-06
5.24596e-06
5.24599e-06
5.24636e-06
5.21107e-06
5.20977e-06
5.21074e-06
5.2115e-06
5.21103e-06
5.20977e-06
5.20851e-06
5.20804e-06
5.20875e-06
5.21016e-06
5.21177e-06
5.21333e-06
5.21477e-06
5.21611e-06
5.21736e-06
5.21855e-06
5.21968e-06
5.22075e-06
5.22177e-06
5.22273e-06
5.22364e-06
5.22451e-06
5.22534e-06
5.22613e-06
5.22689e-06
5.22762e-06
5.22831e-06
5.22898e-06
5.22962e-06
5.23024e-06
5.23084e-06
5.23141e-06
5.23197e-06
5.23251e-06
5.23304e-06
5.23355e-06
5.23405e-06
5.23454e-06
5.23502e-06
5.23549e-06
5.23596e-06
5.23642e-06
5.23687e-06
5.23732e-06
5.23777e-06
5.23822e-06
5.23866e-06
5.2391e-06
5.23954e-06
5.23998e-06
5.24042e-06
5.24085e-06
5.24127e-06
5.24169e-06
5.2421e-06
5.2425e-06
5.24289e-06
5.24326e-06
5.24361e-06
5.24395e-06
5.24427e-06
5.24457e-06
5.24485e-06
5.2451e-06
5.24537e-06
5.24558e-06
5.24596e-06
5.24599e-06
5.24636e-06
5.21096e-06
5.20965e-06
5.21068e-06
5.21142e-06
5.21093e-06
5.20969e-06
5.20846e-06
5.20804e-06
5.20879e-06
5.21021e-06
5.21181e-06
5.21335e-06
5.21478e-06
5.21611e-06
5.21736e-06
5.21854e-06
5.21966e-06
5.22072e-06
5.22173e-06
5.22268e-06
5.22358e-06
5.22444e-06
5.22527e-06
5.22605e-06
5.2268e-06
5.22752e-06
5.2282e-06
5.22886e-06
5.2295e-06
5.23011e-06
5.23069e-06
5.23126e-06
5.23181e-06
5.23234e-06
5.23286e-06
5.23337e-06
5.23386e-06
5.23434e-06
5.23481e-06
5.23527e-06
5.23572e-06
5.23617e-06
5.23662e-06
5.23706e-06
5.2375e-06
5.23793e-06
5.23837e-06
5.2388e-06