/*--------------------------------*- C++ -*----------------------------------*\
  =========                 |
  \\      /  F ield         | OpenFOAM: The Open Source CFD Toolbox
   \\    /   O peration     | Website:  https://openfoam.org
    \\  /    A nd           | Version:  7
     \\/     M anipulation  |
\*---------------------------------------------------------------------------*/
FoamFile
{
    version     2.0;
    format      ascii;
    class       volScalarField;
    location    "1200";
    object      p;
}
// * * * * * * * * * * * * * * * * * * * * * * * * * * * * * * * * * * * * * //

dimensions      [0 2 -2 0 0 0 0];

internalField   nonuniform List<scalar> 
23117
(
2.26363
6.40882
0.552376
9.77641
2.08973
0.642474
12.326
4.20425
2.142
0.756618
14.4527
5.99307
4.00552
2.36185
0.660073
16.2787
7.58409
5.65798
4.28399
2.01598
0.662881
17.8965
8.95452
7.21566
5.95558
3.84219
1.90282
0.685698
19.3541
10.1594
8.63126
7.52719
5.44564
3.68029
1.8497
0.69171
20.6846
11.2255
9.93249
8.96273
6.9791
5.23975
3.6119
1.78433
0.691014
21.9086
12.1783
11.1293
10.2898
8.39233
6.75592
5.1421
3.52821
1.74847
0.680687
23.0427
13.0362
12.2371
11.5153
9.71122
8.16692
6.6437
5.03335
3.47072
1.73295
0.663612
24.0981
13.813
13.2676
12.6517
10.9396
9.49721
8.04767
6.52272
4.95638
3.43139
1.72331
0.648339
25.0838
14.5196
14.231
13.708
12.0877
10.7468
9.38008
7.92068
6.43604
4.90253
3.39829
1.71427
0.640258
26.0071
15.1648
15.1354
14.6929
13.163
11.9239
10.6388
9.25499
7.83047
6.37333
4.85876
3.37012
1.70237
0.640149
26.8729
15.7554
15.9876
15.6134
14.173
13.034
11.8308
10.522
9.16797
7.76486
6.32195
4.8223
3.34541
1.68669
0.645706
27.688
16.2974
16.7933
16.4758
15.1237
14.083
12.9605
11.7281
10.4438
9.10502
7.71143
6.27917
4.79014
3.32247
1.66858
0.653585
28.4554
16.7949
17.557
17.285
16.0206
15.0757
14.0327
12.8766
11.6638
10.3884
9.05418
7.66718
6.2417
4.75953
3.30032
1.64973
0.661133
29.1793
17.2523
18.2827
18.0456
16.8685
16.0168
15.0515
13.9719
12.8305
11.6206
10.3447
9.01237
7.62821
6.2064
4.729
3.27822
1.63115
0.667089
29.8626
17.6729
18.9734
18.7612
17.6714
16.91
16.0209
15.0172
13.9477
12.8035
11.5879
10.3093
8.97536
7.59106
6.17131
4.69767
3.25553
1.6131
0.67131
30.5083
18.0597
19.6321
19.435
18.4327
17.7589
16.9444
16.0161
15.0182
13.9403
12.7857
11.5626
10.2778
8.93955
7.55352
6.1351
4.66497
3.23177
1.59533
0.67421
31.119
18.4154
20.261
20.0697
19.1555
18.5664
17.8248
16.9713
16.0449
15.0336
13.9408
12.7739
11.54
10.2465
8.90261
7.51409
6.09682
4.63048
3.20661
1.57744
0.676281
31.6969
18.7422
20.8622
20.6679
19.8425
19.3349
18.665
17.8857
17.0303
16.0858
15.0553
13.9458
12.7635
11.5165
10.2131
8.86288
7.47172
6.05586
4.59389
3.17987
1.55905
0.677866
32.2444
19.0423
21.4375
21.2315
20.4959
20.0667
19.4671
18.7613
17.9767
17.099
16.1315
15.08
13.9506
12.7508
11.4896
10.1758
8.81921
7.4257
6.0118
4.55495
3.15143
1.53992
0.679136
32.7633
19.3176
21.9885
21.7626
21.1177
20.7638
20.2331
19.6001
18.886
18.0753
17.1711
16.1786
15.1029
13.9516
12.7333
11.4575
10.1333
8.77082
7.37559
5.9644
4.51352
3.12126
1.51996
0.680148
33.2556
19.5696
22.5168
22.2629
21.7099
21.4277
20.9649
20.404
19.7596
19.0162
18.176
17.2431
16.2224
15.1206
13.9465
12.7094
11.4191
10.085
8.71723
7.32112
5.91351
4.46952
3.08934
1.49913
0.6809
33.7228
19.8
23.0236
22.7339
22.2741
22.0602
21.6641
21.1742
20.5993
19.9231
19.1475
18.2752
17.3103
16.2594
15.1306
13.9334
12.6775
11.3733
10.0302
8.65817
7.26219
5.85913
4.42295
3.05573
1.47743
0.681389
34.1668
20.0102
23.51
23.177
22.8117
22.6625
22.332
21.9123
21.4061
20.7972
20.0866
19.2759
18.3681
17.3692
16.2872
15.131
13.9108
12.637
11.3198
9.96875
8.59356
7.1988
5.80131
4.37387
3.02047
1.4549
0.681622
34.5888
20.2016
23.9772
23.5936
23.3241
23.2359
22.97
22.6193
22.1813
21.6396
20.9944
20.2461
19.3967
18.4513
17.4174
16.3038
15.1204
13.8781
12.5872
11.2583
9.90057
8.52347
7.13108
5.74019
4.32239
2.98364
1.43156
0.681616
34.9905
20.3755
24.4261
23.985
23.8126
23.7816
23.5792
23.2963
22.9258
22.4512
21.8718
21.1866
20.3968
19.5065
18.5223
17.4528
16.3078
15.098
13.8345
12.528
11.1888
9.82578
8.44808
7.05922
5.67594
4.26864
2.94532
1.40743
0.681397
35.373
20.5329
24.8577
24.3523
24.2784
24.3005
24.1607
23.9443
23.6404
23.2327
22.7194
22.0982
21.3691
20.5354
19.6028
18.579
17.4739
16.2982
15.0631
13.78
12.4594
11.1115
9.74463
8.36766
6.98348
5.60876
4.21276
2.90562
1.38255
0.680995
35.7377
20.675
25.2728
24.6967
24.7224
24.7937
24.7155
24.5641
24.3259
23.9848
23.5377
22.9812
22.3141
21.5386
20.6592
19.6832
18.6199
17.4798
16.2745
15.0156
13.7145
12.3816
11.0266
9.65748
8.28256
6.90415
5.53889
4.15491
2.86461
1.35693
0.68044
36.0857
20.8029
25.6722
25.0193
25.1458
25.2621
25.2445
25.1565
24.9831
24.7081
24.3274
23.8362
23.2322
22.5162
21.692
20.7657
19.7462
18.6437
17.4698
16.2365
14.9556
13.6384
12.295
10.9346
9.56477
8.19316
6.82155
5.46657
4.09525
2.8224
1.33062
0.679758
36.418
20.9173
26.0566
25.321
25.5494
25.7066
25.7487
25.7223
25.6127
25.4031
25.0888
24.6634
24.1235
23.4686
22.7013
21.8269
20.8533
19.7905
18.6498
17.4436
16.1842
14.8833
13.552
12.2
10.8361
9.46695
8.09988
6.736
5.39205
4.03394
2.7791
1.30363
0.678988
36.7359
21.0195
26.4269
25.6029
25.9342
26.1281
26.2289
26.2622
26.2152
26.0704
25.8222
25.463
24.9881
24.3958
23.6872
22.8668
21.9414
20.9206
19.8154
18.638
17.4014
16.1179
14.7992
13.456
12.0974
10.7316
9.36457
8.00315
6.64786
5.31556
3.97113
2.73478
1.276
0.67816
37.0402
21.11
26.7835
25.8659
26.3011
26.5274
26.6859
26.777
26.7912
26.7104
26.528
26.2353
25.8262
25.2977
24.6497
23.8854
23.0106
22.0341
20.9666
19.8204
18.6083
17.3434
16.0382
14.704
13.351
11.9878
10.6217
9.25813
7.90342
6.55746
5.23735
3.90698
2.68954
1.24775
0.677318
37.3317
21.1899
27.1271
26.111
26.6508
26.9052
27.1206
27.2673
27.3415
27.3236
27.2066
26.9803
26.6377
26.1743
25.5886
24.8824
24.0607
23.1311
22.1039
20.991
19.8056
18.561
17.2703
15.9458
14.5985
13.2379
11.8718
10.507
9.1482
7.80111
6.46512
5.15765
3.84162
2.64348
1.2189
0.676503
37.6115
21.2599
27.4583
26.339
26.9841
27.2625
27.5336
27.7337
27.8666
27.9105
27.8581
27.6982
27.4225
27.0253
26.5036
25.8577
25.0914
24.2113
23.2271
22.1502
20.9937
19.7713
18.4966
17.1826
15.8415
14.4834
13.1173
11.7502
10.3882
9.03531
7.69666
6.37118
5.07668
3.77518
2.59666
1.18948
0.675768
37.8803
21.3208
27.7775
26.5509
27.3018
27.5999
27.9259
28.1771
28.367
28.4715
28.483
28.3892
28.1808
27.8506
27.3943
26.8107
26.1023
25.2745
24.3361
23.2979
22.1729
20.9748
19.7179
18.4158
17.0814
15.7262
14.3597
12.9901
11.6238
10.266
8.91998
7.59049
6.27594
4.99465
3.70778
2.54918
1.15951
0.675172
38.1387
21.3733
28.0853
26.7475
27.6045
27.9183
28.2982
28.598
28.8435
29.0072
29.0816
29.0535
28.9124
28.6499
28.2604
27.7411
27.0929
26.3202
25.4304
24.4339
23.3432
22.172
20.9349
19.6463
18.3197
16.9676
15.6008
14.2282
12.8572
11.4932
10.1409
8.80273
7.483
6.17968
4.91175
3.63955
2.5011
1.12901
0.674781
38.3875
21.418
28.3822
26.9297
27.8929
28.2183
28.6511
28.9972
29.2967
29.518
29.6542
29.6911
29.6173
29.4231
29.1015
28.6482
28.0627
27.3477
26.5096
25.5579
24.5044
23.3629
22.148
20.8747
19.5574
18.2092
16.8422
15.4664
14.0899
12.7193
11.3593
10.0136
8.68406
7.37457
6.08269
4.82818
3.57058
2.4525
1.09798
0.674669
38.6274
21.4557
28.6685
27.0983
28.1676
28.5008
28.9854
29.3754
29.7272
30.0044
30.2013
30.3023
30.2955
30.17
29.9172
29.5315
29.0108
28.3563
27.573
26.6693
25.6563
24.5474
23.3574
22.1017
20.7952
19.4522
18.0855
16.7063
15.324
13.9458
12.5774
11.2227
9.88461
8.56442
7.26557
5.98522
4.74409
3.50096
2.40345
1.06644
0.67492
38.859
21.487
28.9447
27.2539
28.4293
28.7665
29.3019
29.7331
30.1356
30.4671
30.7232
30.8874
30.9471
30.8903
30.7071
30.3905
29.9366
29.3451
28.6197
27.7673
26.7982
25.7253
24.5632
23.3274
22.0338
20.6973
19.3319
17.9496
16.5611
15.1747
13.7967
12.4322
11.084
9.75452
8.44426
7.15632
5.88751
4.65965
3.43079
2.35402
1.03442
0.675623
39.0828
21.5123
29.2111
27.3975
28.6784
29.016
29.6013
30.0712
30.5226
30.9065
31.2205
31.4467
31.5722
31.584
31.4709
31.2245
30.8393
30.3134
29.6488
28.851
27.9294
26.8959
25.7649
24.5521
23.2737
21.9455
20.5824
19.1978
17.8029
16.4076
15.0193
13.6436
12.2843
10.9439
9.62384
8.324
7.04714
5.78978
4.575
3.36013
2.30428
1.00191
0.676874
39.2993
21.5325
29.468
27.5298
28.9155
29.2502
29.8842
30.3903
30.889
31.3234
31.6935
31.9805
32.171
32.251
32.2083
32.0331
31.7182
31.2602
30.6593
29.9196
29.049
28.0586
26.9623
25.7756
24.5151
23.1974
21.8381
20.4518
19.0511
17.6466
16.247
14.859
13.4872
12.1347
10.803
9.49305
8.20401
6.93832
5.69224
4.49027
3.28905
2.25429
0.968939
0.678781
39.5091
21.5479
29.7158
27.6513
29.1412
29.4696
30.1514
30.6912
31.2353
31.7182
32.1429
32.4892
32.7436
32.8913
32.919
32.8156
32.5726
32.1846
31.6501
30.9717
30.1558
29.2124
28.1546
26.9976
25.7581
24.4532
23.0996
21.7129
20.3068
18.8932
17.4818
16.0804
14.6947
13.3283
11.9838
10.6618
9.3626
8.08465
6.83014
5.59506
4.40558
3.21762
2.20411
0.935509
0.681449
39.7127
21.5591
29.9547
27.763
29.3558
29.6751
30.4035
30.9745
31.5624
32.0918
32.5692
32.9733
33.2904
33.5049
33.6029
33.5718
33.4017
33.0856
32.6202
32.0064
31.2489
30.3563
29.3409
28.2174
27.0023
25.7133
24.3677
22.982
21.5713
20.1488
18.7254
17.3098
15.9088
14.5271
13.1678
11.8324
10.5209
9.23289
7.96625
6.72284
5.49843
4.32106
3.1459
2.15381
0.901642
0.684987
39.9104
21.5665
30.1849
27.8654
29.5599
29.8671
30.6411
31.2409
31.8708
32.4447
32.9731
33.4331
33.8115
34.092
34.2598
34.3012
34.2049
33.9624
33.5685
33.0223
32.3267
31.4891
30.5202
29.4342
28.2474
26.9774
25.6424
24.2598
22.8458
21.4149
19.9793
18.549
17.1317
15.7331
14.3573
13.0062
11.6809
10.3806
9.10431
7.8491
6.61666
5.4025
4.23679
3.07394
2.10344
0.867357
0.689504
40.1027
21.5706
30.4068
27.9591
29.7539
30.0465
30.8649
31.4912
32.1613
32.7776
33.3551
33.8694
34.3075
34.6528
34.8897
35.0035
34.9817
34.8141
34.4939
34.0182
33.3881
32.6093
31.6912
30.6471
29.4926
28.2454
26.924
25.5468
24.1312
22.6927
21.2451
19.7997
18.3653
16.9486
15.5544
14.1859
12.8443
11.53
10.2415
8.97719
7.73348
6.51179
5.30741
4.15288
3.00178
2.05307
0.832675
0.695109
40.2899
21.5718
30.6205
28.0448
29.9381
30.2139
31.0755
31.7259
32.4347
33.0912
33.7159
34.2825
34.7788
35.1875
35.4926
35.6785
35.7315
35.64
35.3953
34.9927
34.4316
33.7155
32.8526
31.8547
30.7369
29.5165
28.2123
26.8434
25.4281
23.9834
22.5243
21.0636
19.6113
18.1754
16.7615
15.3735
14.0136
12.6826
11.38
10.1039
8.85185
7.61964
6.40842
5.21328
4.0694
2.92947
2.00274
0.79762
0.701899
40.4724
21.5707
30.8263
28.1231
30.113
30.3699
31.2735
31.9459
32.6915
33.3863
34.0562
34.6732
35.2259
35.6965
36.0686
36.3261
36.454
36.4393
36.2717
35.9447
35.4556
34.8062
34.0028
33.0557
31.9791
30.7899
29.5069
28.1494
26.737
25.2878
23.8182
22.3422
20.8716
19.4155
17.9805
16.5714
15.1911
13.8412
12.5216
11.2314
9.96811
8.72856
7.50778
6.30671
5.12023
3.98644
2.85706
1.95251
0.76223
0.709967
40.6506
21.5675
31.0241
28.1945
30.2789
30.515
31.4595
32.1517
32.9325
33.6635
34.3766
35.0421
35.6493
36.1801
36.6181
36.9462
37.1487
37.2113
37.1222
36.873
36.4589
35.8798
35.1401
34.2485
33.218
32.0646
30.807
29.4648
28.0583
26.6066
25.1277
23.6371
22.148
20.6708
19.2135
17.7818
16.3792
15.0081
13.6691
12.3618
11.0846
9.83447
8.60756
7.3981
6.20683
5.02838
3.90407
2.78459
1.90243
0.72654
0.719398
40.8246
21.5626
31.2144
28.2597
30.4361
30.65
31.634
32.3441
33.1585
33.9236
34.678
35.3899
36.0497
36.6389
37.1412
37.5389
37.8155
37.9556
37.946
37.7763
37.4399
36.9346
36.2628
35.4314
34.4519
33.3393
32.1117
30.789
29.3918
27.9404
26.454
24.9496
23.4421
21.9432
20.4625
19.0066
17.5801
16.1858
14.825
13.498
12.2036
10.9399
9.70323
8.48906
7.29079
6.1089
4.93781
3.82235
2.71211
1.85254
0.690592
0.730256
40.9948
21.5563
31.3971
28.319
30.585
30.7753
31.7976
32.5236
33.37
34.1672
34.961
35.7172
36.4275
37.0734
37.6383
38.1043
38.4543
38.6718
38.7422
38.6535
38.3973
37.9691
37.3692
36.6026
35.679
34.6123
33.4198
32.1211
30.7372
29.2893
27.7976
26.2809
24.7553
23.2346
21.7295
20.248
18.7959
17.3765
15.9919
14.6426
13.3282
12.0474
10.7976
9.57461
8.37325
7.18598
6.01304
4.8486
3.74136
2.63966
1.80287
0.654443
0.742596
41.1617
21.549
31.5723
28.373
30.7258
30.8915
31.9508
32.691
33.5677
34.3951
35.2264
36.0248
36.7836
37.4841
38.1098
38.6427
39.065
39.3595
39.5102
39.5037
39.3297
38.9815
38.4573
37.7601
36.8975
35.8821
34.7299
33.4602
32.094
30.6532
29.1591
27.6319
26.0893
24.5467
23.0165
21.5082
20.0287
18.5824
17.1719
15.7982
14.4613
13.1603
11.8935
10.6579
9.44882
8.2603
7.0838
5.91935
4.76084
3.66113
2.56728
1.75348
0.618149
0.756455
41.3253
21.5408
31.7403
28.4222
30.8589
30.9992
32.0941
32.8468
33.7524
34.608
35.4748
36.3134
37.1187
37.8717
38.5563
39.1544
39.6478
40.0185
40.2496
40.3261
40.2359
39.9704
39.5255
38.9019
38.1054
37.1465
36.0402
34.8048
33.4613
32.0318
30.5387
29.0033
27.445
25.881
24.3254
22.7892
21.2808
19.8057
18.3672
16.9669
15.6052
14.2816
12.9946
11.7422
10.5211
9.32602
8.15033
6.98436
5.82793
4.67458
3.58173
2.49503
1.70438
0.581775
0.771856
41.4858
21.5322
31.9012
28.467
30.9845
31.0988
32.2281
32.9916
33.9245
34.8066
35.707
36.5837
37.4333
38.2367
38.9783
39.6398
40.2027
40.6487
40.9598
41.1197
41.1147
40.9342
40.5719
40.0262
39.3006
38.4037
37.3489
36.1535
34.8379
33.4245
31.9362
30.3956
28.8236
27.2391
25.658
24.0932
22.5544
21.0486
19.58
18.151
16.7624
15.4137
14.1039
12.8314
11.5936
10.3873
9.20634
8.04344
6.88777
5.73884
4.58989
3.5032
2.42296
1.65561
0.545388
0.788798
41.6435
21.5233
32.0549
28.5078
31.1029
31.1909
32.353
33.126
34.0849
34.9916
35.9238
36.8366
37.7284
38.58
39.3764
40.0993
40.7302
41.2501
41.6406
41.8841
41.9652
41.8716
41.5947
41.1307
40.4808
39.6513
38.6537
37.5042
36.2223
34.8302
33.3512
31.809
30.2258
28.6223
27.0162
25.4222
23.8518
22.3135
20.8127
19.3528
17.9349
16.559
15.224
13.9286
12.6709
11.4481
10.2566
9.08989
7.93975
6.79408
5.65214
4.50682
3.42559
2.35111
1.60718
0.50907
0.807263
41.7987
21.5144
32.2016
28.545
31.2142
31.2758
32.4695
33.2506
34.234
35.1636
36.1258
37.0726
38.0046
38.9023
39.7513
40.5335
41.2304
41.823
42.2918
42.6185
42.7864
42.7812
42.5924
42.2136
41.6438
40.8869
39.9526
38.855
37.6128
36.2476
34.783
33.2433
31.6521
30.0316
28.4014
26.7782
25.1753
23.6028
22.0678
20.5745
19.1249
17.7194
16.3572
15.0367
13.7561
12.5134
11.3057
10.1292
8.97677
7.83931
6.70336
5.5679
4.42543
3.34894
2.27955
1.55913
0.472899
0.827223
41.9515
21.5056
32.3414
28.579
31.3189
31.3542
32.5779
33.366
34.3725
35.3233
36.3138
37.2927
38.2628
39.2043
40.1037
40.943
41.704
42.3674
42.9134
43.3228
43.5776
43.662
43.5633
43.273
42.7874
42.1084
41.2429
40.2034
39.0072
37.6751
36.2304
34.698
33.1026
31.4678
29.8151
28.163
26.527
24.919
23.3477
21.8186
20.3348
18.8972
17.5052
16.1575
14.8519
13.5865
12.359
11.1666
10.0051
8.86701
7.74216
6.61565
5.48614
4.34574
3.27328
2.20832
1.51146
0.436955
0.848624
42.1021
21.4972
32.4744
28.6102
31.417
31.4264
32.6787
33.4726
34.5008
35.4714
36.4885
37.4975
38.5035
39.4868
40.4343
41.3285
42.1514
42.8837
43.5054
43.9966
44.3382
44.5128
44.506
44.307
43.9096
43.3131
42.5222
41.5471
40.4034
39.1107
37.692
36.1723
34.5771
32.9313
31.2582
29.5784
27.9092
26.2646
24.6552
23.088
21.5672
20.0947
18.6704
17.293
15.9604
14.6702
13.4202
12.208
11.0309
9.88448
8.76068
7.64834
6.53097
5.4069
4.26778
3.19867
2.1375
1.46419
0.401329
0.871401
42.2507
21.4892
32.6006
28.6388
31.5088
31.4927
32.7722
33.571
34.6197
35.6084
36.6504
37.6878
38.7278
39.7505
40.7439
41.6907
42.5733
43.3725
44.0681
44.6399
45.0676
45.3328
45.4192
45.3138
45.0081
44.4987
43.7878
42.8833
41.7987
40.5522
39.166
37.6649
36.075
34.4224
32.7317
31.0257
29.3237
27.642
25.9928
24.3852
22.8248
21.3146
19.855
18.4452
17.0831
15.7662
14.4917
13.2572
12.0604
10.8986
9.76728
8.65779
7.55788
6.44935
5.33019
4.19161
3.12513
2.06713
1.41733
0.366104
0.895477
42.3974
21.4819
32.7201
28.6652
31.5945
31.5537
32.8589
33.6616
34.7296
35.735
36.8004
37.8643
38.9363
39.9963
41.0332
42.0302
42.9702
43.8341
44.6018
45.2526
45.7657
46.1213
46.3017
46.2918
46.0809
45.6629
45.0372
44.2093
43.1905
41.9972
40.6503
39.1743
37.5954
35.9406
34.236
32.5061
30.7724
29.0533
27.3633
25.7133
24.1107
22.5596
21.0618
19.6166
18.2223
16.8762
15.5753
14.3167
13.0978
11.9164
10.7698
9.65357
8.55835
7.47076
6.37078
5.25603
4.11724
3.05268
1.99728
1.37089
0.331368
0.920757
42.5424
21.4753
32.8329
28.6897
31.6744
31.6097
32.9391
33.7449
34.831
35.8518
36.9391
38.0276
39.1297
40.2249
41.3032
42.348
43.343
44.2692
45.1068
45.8349
46.4321
46.8777
47.1525
47.2397
47.1261
46.8032
46.2677
45.5224
44.5759
43.4428
42.1425
40.6985
39.1369
37.4854
35.7712
34.0205
32.2568
30.5008
28.7692
27.0751
25.4277
23.8329
22.2934
20.8096
19.38
18.0021
16.6725
15.388
14.1453
12.942
11.7759
10.6445
9.54332
8.46235
7.38698
6.29527
5.18441
4.04469
2.98138
1.92802
1.32488
0.297204
0.947146
42.6856
21.4697
32.9393
28.7125
31.7486
31.661
33.0131
33.8214
34.9244
35.9594
37.067
38.1786
39.3089
40.4372
41.5545
42.6448
43.6923
44.6785
45.5837
46.3871
47.0669
47.6016
47.9708
48.1561
48.142
47.9175
47.4767
46.8195
45.952
44.8862
43.6398
42.2351
40.6978
39.0556
37.3369
35.5692
33.7781
31.9863
30.213
28.4735
26.7791
25.1376
23.5531
22.0272
20.559
19.146
17.7851
16.4725
15.2045
13.9778
12.7899
11.639
10.5227
9.43654
8.36975
7.30651
6.22278
5.11533
3.97398
2.91124
1.8594
1.2793
0.263688
0.974532
42.8276
21.4651
33.0391
28.7339
31.8174
31.7079
33.0813
33.8915
35.0102
36.0582
37.1848
38.3178
39.4745
40.6339
41.7881
42.9215
44.0189
45.0626
46.033
46.9095
47.6701
48.2928
48.756
49.0398
49.1269
49.0037
48.6617
48.0979
47.3156
46.3242
45.1393
43.7816
42.2759
40.6498
38.9323
37.1523
35.337
33.5114
31.6969
29.9112
28.168
26.4771
24.8443
23.2725
21.7619
20.3105
18.9151
17.5717
16.2763
15.0249
13.8141
12.6417
11.5058
10.4045
9.33318
8.28055
7.22932
6.15329
5.04878
3.90512
2.84231
1.7915
1.23417
0.230901
1.00279
42.9688
21.4614
33.1324
28.7541
31.8808
31.7508
33.144
33.9556
35.089
36.1488
37.293
38.446
39.6273
40.8158
42.0046
43.1788
44.3238
45.4223
46.4555
47.4027
48.2421
48.9511
49.5075
49.8899
50.0793
50.0598
49.8202
49.3548
48.6637
47.7537
46.6378
45.3349
43.8686
42.266
40.5563
38.7693
36.934
35.0772
33.2228
31.3909
29.5976
27.8548
26.1705
24.5492
22.9922
21.4984
20.0649
18.6877
17.3623
16.0842
14.8494
13.6545
12.4972
11.3762
10.2897
9.23323
8.19468
7.15536
6.08677
4.98474
3.83812
2.77459
1.72436
1.18949
0.19892
1.03181
43.1083
21.4585
33.2195
28.7733
31.9392
31.79
33.2015
34.014
35.1612
36.2317
37.3923
38.5637
39.7679
40.9837
42.2051
43.4176
44.6077
45.7585
46.8517
47.8672
48.7831
49.5767
50.2251
50.7057
50.998
51.084
50.95
50.5873
49.9931
49.1713
48.132
46.892
45.4732
43.9019
42.2071
40.4194
38.569
36.6847
34.7924
32.9149
31.0706
29.2741
27.5354
25.8609
24.2535
22.713
21.2374
19.8227
18.4642
17.157
15.8964
14.6782
13.499
12.3567
11.2503
10.1784
9.13662
8.11209
7.08458
6.02317
4.92318
3.77299
2.70811
1.65805
1.14528
0.167807
1.06147
43.2446
21.4569
33.3004
28.7917
31.9927
31.8257
33.2542
34.0673
35.2271
36.3074
37.4832
38.6715
39.8971
41.1382
42.3901
43.6388
44.8715
46.072
47.2227
48.3037
49.2937
50.1697
50.9085
51.4866
51.8819
52.0748
52.0489
51.7929
51.3009
50.5736
49.6184
48.4493
47.0864
45.5546
43.8827
42.1012
40.2415
38.334
36.4069
34.4852
32.59
30.7383
28.9427
27.2115
25.5496
23.9582
22.4359
20.9795
19.5843
18.245
16.9562
15.7131
14.5113
13.3475
12.2199
11.1279
10.0705
9.0433
8.03272
7.01692
5.96245
4.86406
3.70973
2.64291
1.59264
1.10154
0.13762
1.09163
43.3789
21.458
33.375
28.8093
32.0415
31.8583
33.3022
34.1156
35.2872
36.3763
37.5661
38.7701
40.0155
41.2802
42.5606
43.8432
45.116
46.3636
47.569
48.713
49.7744
50.7305
51.5578
52.2321
52.7303
53.0307
53.115
52.969
52.5839
51.9573
51.0933
50.0033
48.7049
47.2213
45.5804
43.8128
41.9505
40.0251
38.067
36.1034
34.158
32.2505
30.3959
28.6051
26.8847
25.2378
23.6643
22.1616
20.7254
19.3502
18.0303
16.76
15.5343
14.3488
13.2002
12.0871
11.0091
9.96589
8.95321
7.9565
6.95232
5.90454
4.80735
3.64833
2.57902
1.52819
1.05828
0.108411
1.12219
43.5195
21.461
33.4429
28.8265
32.0858
31.8878
33.3459
34.1593
35.3417
36.4389
37.6416
38.86
40.1237
41.4103
42.7173
44.0317
45.3422
46.6344
47.8917
49.0958
50.2259
51.2596
52.1732
52.9422
53.5423
53.9505
54.1464
54.1133
53.8394
53.3191
52.5533
51.5502
50.3248
48.8984
47.2974
45.5519
43.6943
41.7574
39.773
37.7707
35.7768
33.8135
31.8987
30.0455
28.2631
26.5563
24.9267
23.3727
21.8907
20.4754
19.1207
17.8204
16.5686
15.3601
14.1906
13.057
11.958
10.8939
9.86463
8.86628
7.88336
6.89068
5.84937
4.75301
3.58881
2.51645
1.46475
1.01553
0.0802271
1.15302
43.6688
21.46
33.5046
28.8438
32.1256
31.9145
33.3855
34.1988
35.3912
36.4955
37.7102
38.9418
40.2224
41.5293
42.8609
44.2049
45.5509
46.885
48.1917
49.453
50.6489
51.7575
52.7549
53.6166
54.3175
54.8333
55.1417
55.2237
55.0646
54.6557
53.9946
53.0861
51.9424
50.5822
49.0303
47.3158
45.471
43.5296
41.5246
39.4878
37.4479
35.4298
33.4541
31.5366
29.689
27.9182
26.2276
24.6172
23.0842
21.6239
20.2301
18.8962
17.6155
16.382
15.1906
14.0369
12.9179
11.8327
10.7821
9.76659
8.78243
7.81322
6.83194
5.79689
4.70101
3.53114
2.45522
1.40236
0.973289
0.0531044
1.18399
43.799
21.4531
33.5627
28.8612
32.1613
31.9388
33.4213
34.2343
35.4358
36.5467
37.7722
39.0159
40.3121
41.6377
42.9923
44.3639
45.743
47.1166
48.4698
49.7855
51.0444
52.2249
53.3036
54.2557
55.0557
55.6783
56.0996
56.2983
56.2571
55.9641
55.4137
54.6072
53.5536
52.2688
50.7754
49.1013
47.2781
45.3399
43.3211
41.2549
39.1725
37.1014
35.065
33.082
31.1664
29.3279
27.5718
25.8997
24.3103
22.7995
21.3615
19.9897
18.6767
17.4156
16.2004
15.0258
13.8876
12.7829
11.7111
10.6737
9.6717
8.70159
7.74599
6.77602
5.74703
4.65128
3.47533
2.39535
1.34109
0.93158
0.0270722
1.21501
43.8761
21.4605
33.6181
28.8767
32.193
31.9609
33.4534
34.266
35.476
36.5927
37.8281
39.0828
40.3934
41.7362
43.112
44.5093
45.9194
47.3299
48.7269
50.0942
51.4131
52.6626
53.8197
54.8597
55.7568
56.4849
57.0188
57.3352
57.4144
57.2414
56.8071
56.1096
55.1542
53.9539
52.5287
50.9047
49.1126
47.1863
45.161
43.0717
40.9513
38.8301
36.734
34.6849
32.6995
30.79
28.9641
27.2253
25.5737
24.0067
22.519
21.1041
19.7545
18.4625
17.221
16.0238
14.8657
13.7427
12.6519
11.5932
10.5686
9.5799
8.62366
7.68159
6.72284
5.69971
4.60378
3.42135
2.33686
1.28098
0.89042
0.00215285
1.24596
43.9728
21.5081
33.6613
28.8899
32.2211
31.9809
33.4823
34.2944
35.512
36.6339
37.8784
39.1431
40.4669
41.8255
43.2209
44.6419
46.0808
47.5259
48.9641
50.3801
51.7559
53.0713
54.3039
55.4291
56.421
57.2529
57.8986
58.3332
58.5345
58.4847
58.1715
57.5893
56.7401
55.6332
54.2859
52.722
50.9709
49.0659
47.0425
44.937
42.7843
40.6167
38.4632
36.3483
34.2919
32.3088
30.4092
28.5988
26.8797
25.2505
23.7071
22.2434
20.852
19.5248
18.2537
17.0316
15.8521
14.7103
13.6021
12.5249
11.4789
10.4668
9.49109
8.54857
7.61994
6.67229
5.65485
4.55844
3.3692
2.27978
1.22207
0.849831
-0.0216393
1.27674
44.1592
21.5423
33.6806
28.9075
32.2459
31.9983
33.508
34.3197
35.544
36.6705
37.9234
39.1972
40.5329
41.9061
43.3195
44.7625
46.2282
47.7055
49.1824
50.6442
52.0739
53.4521
54.757
55.9644
57.0484
57.9822
58.7384
59.2909
59.6155
59.6916
59.5038
59.0428
58.307
57.3023
56.0426
54.5491
52.8492
50.9754
48.9633
46.8495
44.6709
42.4619
40.2541
38.0749
35.947
33.8883
31.9118
30.0255
28.2336
26.5362
24.9308
23.4121
21.9731
20.6055
19.3007
18.0505
16.8475
15.6855
14.5596
13.4658
12.4019
11.3682
10.3682
9.40521
8.47625
7.56094
6.6243
5.61237
4.51523
3.31885
2.22412
1.16441
0.809832
-0.0442975
1.30726
44.219
21.466
33.7018
28.9385
32.2663
32.0128
33.5305
34.3421
35.5726
36.703
37.9634
39.2454
40.5921
41.9785
43.4085
44.8718
46.3622
47.8695
49.3825
50.8874
52.3681
53.8059
55.1798
56.4662
57.6395
58.6727
59.5378
60.2075
60.6558
60.8597
60.8008
60.4664
59.851
58.9567
57.7941
56.3812
54.7433
52.9112
50.92
48.8071
46.61
44.3656
42.1077
39.8665
37.6678
35.5325
33.4764
31.5103
29.6406
27.8695
26.1958
24.6155
23.1223
21.7083
20.3647
19.0824
17.8528
16.6686
15.5238
14.4134
13.3338
12.2826
11.2609
10.2727
9.32219
8.4066
7.5045
6.57876
5.5722
4.47408
3.2703
2.16988
1.10804
0.770447
-0.065821
1.33743
44.281
21.4399
33.759
28.9646
32.2807
32.0275
33.5498
34.3613
35.5979
36.7318
37.9988
39.2882
40.6449
42.0434
43.4886
44.9705
46.4838
48.0189
49.5656
51.1108
52.6394
54.1337
55.5734
56.9355
58.195
59.3247
60.2966
61.0822
61.6541
61.9871
62.06
61.8566
61.3679
60.592
59.5357
58.2137
56.6485
54.8691
52.9094
50.8069
48.6001
46.3271
44.0244
41.7247
39.4568
37.2447
35.1072
33.0581
31.1061
29.2558
27.5077
25.8591
24.305
22.838
21.4495
20.1299
18.8699
17.6608
16.4951
15.3671
14.2719
13.2059
12.1672
11.157
10.1803
9.24193
8.33953
7.45053
6.5356
5.53424
4.43493
3.22351
2.1171
1.05298
0.731698
-0.0862156
1.36718
44.3431
21.413
33.776
28.9472
32.2933
32.046
33.5672
34.3772
35.6196
36.7572
38.0301
39.326
40.6916
42.1012
43.5602
45.0592
46.5936
48.1545
49.7324
51.3153
52.889
54.4365
55.9386
57.3731
58.7155
59.9388
61.0149
61.9146
62.6094
63.072
63.2787
63.2103
62.8538
62.2037
61.2625
60.0415
58.5599
56.8444
54.9274
52.8458
50.6385
48.3452
46.0039
43.6503
41.316
39.028
36.8082
34.6734
32.6353
30.7007
28.8723
27.1491
25.5271
24
22.5597
21.1968
19.9013
18.6634
17.4744
16.3268
15.2152
14.1348
13.0821
12.0554
11.0564
10.0908
9.16436
8.27497
7.39895
6.49471
5.49843
4.39772
3.17847
2.06577
0.999273
0.693608
-0.105493
1.39641
44.4057
21.3865
33.7934
28.9401
32.3066
32.0607
33.5838
34.3921
35.6378
36.7787
38.0576
39.3593
40.7328
42.1523
43.624
45.1386
46.6923
48.277
49.8839
51.502
53.1178
54.7155
56.2767
57.7801
59.2017
60.5154
61.6928
62.7045
63.5208
64.113
64.4549
64.5245
64.3052
63.7874
62.9699
61.8596
60.4725
58.8323
56.9695
54.9199
52.7225
50.4178
48.0456
45.6437
43.2467
40.8847
38.5827
36.3606
34.2331
32.2098
30.2956
28.4914
26.7947
25.2003
23.7009
22.2876
20.9504
19.6788
18.4628
17.2935
16.1638
15.0681
14.0021
12.9624
11.9473
10.959
10.0042
9.0894
8.21282
7.34965
6.456
5.46467
4.36239
3.13516
2.01591
0.946944
0.656202
-0.123671
1.42508
44.4686
21.3605
33.8103
28.9329
32.3093
32.0554
33.5973
34.4086
35.6543
36.7964
38.0809
39.3883
40.7691
42.1972
43.6804
45.2093
46.7807
48.3873
50.021
51.6717
53.3268
54.9716
56.5886
58.1573
59.6548
61.0553
62.3309
63.4518
64.3878
65.1089
65.5867
65.7965
65.7184
65.3391
64.6529
63.6629
62.3809
60.8275
59.0309
57.025
54.8485
52.5423
50.1477
47.7045
45.2498
42.8168
40.4337
38.1236
35.9043
33.7884
31.7832
29.892
28.1139
26.4451
24.8792
23.4081
22.022
20.7105
19.4626
18.2682
17.1182
16.0058
14.9257
13.8737
12.8466
11.8427
10.8648
9.92045
9.01697
8.15302
7.30257
6.41938
5.43288
4.32888
3.09354
1.96752
0.896016
0.619503
-0.140771
1.45313
44.5313
21.3347
33.8265
28.9257
32.312
32.0522
33.6005
34.4215
35.6715
36.8125
38.1001
39.4128
40.8006
42.2367
43.7299
45.2717
46.8595
48.4861
50.1446
51.8254
53.5172
55.206
56.8754
58.506
60.0757
61.5594
62.9296
64.1568
65.2103
66.0588
66.6725
67.024
67.0905
66.8547
66.3071
65.4461
64.2798
62.8247
61.1062
59.1563
57.0125
54.7157
52.3081
49.8316
47.3254
44.8256
42.3636
39.9659
37.6533
35.4416
33.341
31.3571
29.4911
27.7408
26.101
24.5643
23.1218
21.7631
20.4771
19.2527
18.0794
16.9484
15.8529
14.7879
13.7496
12.7346
11.7416
10.7737
9.8394
8.94699
8.09546
7.25759
6.38477
5.40298
4.29714
3.0536
1.92061
0.846509
0.583535
-0.156819
1.4805
44.593
21.3092
33.8427
28.9187
32.3146
32.049
33.6001
34.4188
35.6849
36.8299
38.1173
39.4328
40.8272
42.2709
43.7733
45.3266
46.9291
48.5742
50.2554
51.9641
53.6899
55.4198
57.1384
58.8273
60.4654
62.0286
63.4898
64.8199
65.988
66.9621
67.711
68.205
68.4185
68.3307
67.9279
67.2043
66.1635
64.8182
63.19
61.3085
59.2097
56.934
54.5241
52.0231
49.4728
46.9117
44.3743
41.8903
39.484
37.1742
34.9743
32.8926
30.9326
29.094
27.3729
25.763
24.256
22.8423
21.5109
20.2503
19.049
17.8965
16.784
15.7049
14.6547
13.6296
12.6263
11.6438
10.6856
9.761
8.87939
8.04009
7.21465
6.35206
5.37489
4.26709
3.0153
1.8752
0.798441
0.548321
-0.171844
1.50714
44.6562
21.2832
33.8586
28.9123
32.3171
32.0458
33.5996
34.4163
35.6843
36.843
38.1354
39.4507
40.8487
42.2997
43.811
45.3747
46.9903
48.6521
50.3542
52.0887
53.8459
55.614
57.3786
59.1224
60.8252
62.4639
64.0124
65.4418
66.7213
67.8186
68.7012
69.3377
69.6999
69.7636
69.5111
68.9325
68.0268
66.8021
65.2765
63.4762
61.4352
59.1929
56.7921
54.2768
51.6907
49.0749
46.4668
43.8991
41.3997
38.9906
36.6884
34.5044
32.4447
30.5111
28.7015
27.0107
25.4315
23.9546
22.5698
21.2656
20.0301
18.8516
17.7193
16.6248
15.5618
14.5259
13.5136
12.5217
11.5493
10.6004
9.68518
8.8141
7.98681
7.17365
6.32118
5.34852
4.23869
2.97862
1.83127
0.751826
0.513884
-0.185879
1.53302
44.72
21.2584
33.874
28.9063
32.3194
32.0428
33.599
34.4139
35.6824
36.8404
38.149
39.4695
40.8679
42.3229
43.8426
45.4164
47.0439
48.7206
50.4417
52.1999
53.9862
55.7897
57.5972
59.3924
61.1562
62.8666
64.4983
66.0231
67.4105
68.628
69.6424
70.4208
70.9324
71.1502
71.0529
70.626
69.864
68.7707
67.3595
65.6534
63.6834
61.4875
59.108
56.5896
53.9773
51.3145
48.6414
45.9941
43.4033
40.8948
38.4883
36.1981
34.0336
31.9987
30.0935
28.3145
26.655
25.107
23.6604
22.3044
21.0272
19.8165
18.6602
17.5479
16.4709
15.4234
14.4014
13.4015
12.4207
11.458
10.518
9.61187
8.75104
7.93555
7.13452
6.29203
5.32381
4.21187
2.94352
1.78883
0.706676
0.480245
-0.198959
1.55811
44.7837
21.2341
33.8891
28.9001
32.3217
32.0396
33.5984
34.4114
35.6807
36.8379
38.1469
39.4834
40.8879
42.3435
43.8681
45.4512
47.0903
48.7806
50.5188
52.2985
54.1116
55.948
57.7952
59.6385
61.4597
63.2379
64.9487
66.5649
68.0564
69.3908
70.5343
71.453
72.1142
72.488
72.5495
72.2803
71.67
70.7179
69.4329
67.8338
65.9485
63.8125
61.4673
58.9578
56.3299
53.629
50.898
48.176
45.497
42.8899
40.3781
37.9792
35.7053
33.5634
31.5559
29.681
27.9336
26.3062
24.7897
23.3735
22.0462
20.7957
19.6093
18.475
17.382
16.3221
15.2896
14.2811
13.2932
12.3231
11.3698
10.4384
9.54099
8.69014
7.88624
7.09717
6.26454
5.30066
4.18657
2.90998
1.74787
0.662999
0.447425
-0.211123
1.58238
44.8478
21.2101
33.9038
28.8943
32.3237
32.0366
33.5977
34.409
35.6789
36.8355
38.1445
39.4805
40.9025
42.3648
43.8906
45.4794
47.1292
48.8327
50.5864
52.3855
54.2231
56.0897
57.974
59.862
61.7369
63.5789
65.3647
67.0681
68.6596
70.1072
71.3768
72.4337
73.2437
73.7744
73.9976
73.891
73.4398
72.6383
71.4906
70.0111
68.224
66.162
63.8649
61.3769
58.7451
56.0163
53.2356