/*--------------------------------*- C++ -*----------------------------------*\
  =========                 |
  \\      /  F ield         | OpenFOAM: The Open Source CFD Toolbox
   \\    /   O peration     | Website:  https://openfoam.org
    \\  /    A nd           | Version:  7
     \\/     M anipulation  |
\*---------------------------------------------------------------------------*/
FoamFile
{
    version     2.0;
    format      ascii;
    class       surfaceScalarField;
    location    "1200";
    object      phi;
}
// * * * * * * * * * * * * * * * * * * * * * * * * * * * * * * * * * * * * * //

dimensions      [0 3 -1 0 0 0 0];

internalField   nonuniform List<scalar> 
45906
(
-0.301699
0.0678817
-0.301468
0.0657124
-0.290112
0.0677218
-0.30134
0.0636048
-0.289961
0.0655616
-0.278768
0.0675824
-0.301259
0.0615468
-0.289824
0.0634676
-0.278641
0.0654346
-0.267885
0.06743
-0.301202
0.0595521
-0.289713
0.0614362
-0.278523
0.0633491
-0.26775
0.0652999
-0.257375
0.0672874
-0.30116
0.0576223
-0.289624
0.0594625
-0.278417
0.061331
-0.267627
0.0632259
-0.257238
0.0651624
-0.247108
0.0671363
-0.301126
0.0557834
-0.289549
0.0575481
-0.278324
0.0593693
-0.267514
0.061218
-0.257104
0.0630917
-0.246958
0.0650128
-0.2372
0.0669728
-0.301099
0.054008
-0.289486
0.0557203
-0.278241
0.0574651
-0.267408
0.0592639
-0.256975
0.0610892
-0.246811
0.0629442
-0.237039
0.0648517
-0.227636
0.066806
-0.301076
0.0522814
-0.289431
0.0539527
-0.278166
0.0556452
-0.267309
0.0573659
-0.256851
0.0591397
-0.246667
0.0609452
-0.236883
0.0627878
-0.227475
0.064691
-0.218464
0.0666475
-0.301056
0.0506283
-0.289382
0.0522319
-0.278097
0.0538836
-0.267214
0.0555507
-0.256731
0.0572458
-0.246527
0.0589998
-0.236731
0.0607941
-0.227322
0.0626348
-0.218316
0.0645429
-0.209633
0.0665054
-0.301038
0.0490214
-0.289336
0.0505829
-0.278032
0.052167
-0.267123
0.0537925
-0.256614
0.0554339
-0.246391
0.0571103
-0.236587
0.0588548
-0.227177
0.0606489
-0.218177
0.0624961
-0.209504
0.0644141
-0.201237
0.0663818
-0.301023
0.0474728
-0.289294
0.0489791
-0.27797
0.050521
-0.267035
0.0520782
-0.2565
0.0536786
-0.24626
0.0553029
-0.236448
0.056972
-0.22704
0.0587183
-0.218048
0.0605195
-0.209384
0.0623758
-0.201126
0.0643032
-0.193185
0.0662728
-0.301008
0.0459815
-0.289254
0.0474326
-0.27791
0.0489191
-0.266947
0.0504339
-0.256389
0.0519671
-0.246134
0.0535523
-0.236317
0.0551717
-0.226912
0.0568442
-0.217928
0.0585981
-0.209272
0.0604076
-0.201021
0.0622707
-0.193086
0.0642042
-0.18547
0.0661725
-0.300995
0.0445337
-0.289215
0.0459428
-0.277851
0.0473738
-0.266861
0.048833
-0.25628
0.0503251
-0.246012
0.0518456
-0.236193
0.0534282
-0.226793
0.0550524
-0.217816
0.0567327
-0.209168
0.058494
-0.200922
0.0603088
-0.19299
0.0621746
-0.185376
0.0641104
-0.178057
0.0660759
-0.300983
0.0431496
-0.289177
0.0444959
-0.277793
0.0458845
-0.266776
0.0472884
-0.256174
0.0487268
-0.245896
0.0502087
-0.236076
0.0517288
-0.226682
0.0533173
-0.217713
0.054949
-0.209071
0.0566354
-0.200829
0.0584003
-0.192898
0.0602166
-0.185284
0.0620819
-0.177965
0.0640179
-0.170932
0.0659806
-0.300971
0.0417935
-0.28914
0.0431123
-0.277735
0.0444379
-0.266691
0.0457997
-0.25607
0.0471848
-0.245785
0.0486155
-0.235967
0.050099
-0.226579
0.0516257
-0.217616
0.0532211
-0.208979
0.0548576
-0.20074
0.0565461
-0.192809
0.058311
-0.185193
0.0601263
-0.177873
0.06199
-0.170839
0.0639255
-0.164074
0.0658862
-0.30096
0.0404908
-0.289103
0.0417563
-0.277677
0.0430541
-0.266607
0.0443536
-0.255969
0.0456989
-0.245679
0.0470789
-0.235864
0.0485129
-0.226483
0.0500033
-0.217527
0.051536
-0.208893
0.0531348
-0.200654
0.0547719
-0.192722
0.0564593
-0.185105
0.0582224
-0.177783
0.0600361
-0.170748
0.0618986
-0.163983
0.0638339
-0.157493
0.0657934
-0.30095
0.0392269
-0.289066
0.0404536
-0.277618
0.0416979
-0.266523
0.0429704
-0.255872
0.0442558
-0.245578
0.0455984
-0.235768
0.046983
-0.226394
0.0484238
-0.217443
0.0499192
-0.208811
0.0514538
-0.200571
0.0530519
-0.192637
0.054687
-0.185018
0.0563723
-0.177694
0.0581336
-0.170658
0.0599465
-0.163893
0.0618087
-0.157403
0.0637443
-0.151162
0.0657033
-0.300939
0.0380066
-0.289028
0.0391893
-0.277559
0.0403947
-0.26644
0.041615
-0.255777
0.0428759
-0.245483
0.0441607
-0.235679
0.0455089
-0.226311
0.0468999
-0.217363
0.0483445
-0.208732
0.0498404
-0.20049
0.0513733
-0.192554
0.0529687
-0.184932
0.0546014
-0.177607
0.056285
-0.17057
0.0580456
-0.163805
0.0598586
-0.157316
0.0617212
-0.151075
0.0636577
-0.145088
0.0656164
-0.300929
0.0368243
-0.28899
0.0379685
-0.2775
0.0391302
-0.266358
0.0403129
-0.255686
0.0415241
-0.245393
0.0427863
-0.235595
0.0440773
-0.226233
0.0454311
-0.217288
0.0468247
-0.208656
0.0482685
-0.200412
0.0497617
-0.192472
0.0512915
-0.184848
0.0528844
-0.177521
0.0545156
-0.170484
0.0561987
-0.163719
0.0579595
-0.157231
0.0597733
-0.150991
0.0616368
-0.145005
0.0635746
-0.139259
0.0655331
-0.300919
0.0356798
-0.288951
0.0367856
-0.277441
0.037909
-0.266278
0.0390496
-0.255599
0.0402257
-0.245309
0.0414398
-0.235517
0.0427084
-0.22616
0.0440043
-0.217216
0.0453593
-0.208582
0.0467509
-0.200334
0.0481914
-0.192391
0.0496812
-0.184765
0.0512086
-0.177437
0.0528001
-0.1704
0.054431
-0.163634
0.0561145
-0.157147
0.0578762
-0.150909
0.0596911
-0.144924
0.0615559
-0.139179
0.063495
-0.133653
0.0654533
-0.300908
0.034574
-0.288912
0.0356403
-0.277381
0.036726
-0.266199
0.0378301
-0.255516
0.0389664
-0.24523
0.0401467
-0.235444
0.0413671
-0.226091
0.0426395
-0.217147
0.0439352
-0.20851
0.0452873
-0.200259
0.0466751
-0.192312
0.0481121
-0.184683
0.0495996
-0.177354
0.0511258
-0.170317
0.0527171
-0.163552
0.0543485
-0.157066
0.056033
-0.150828
0.0577959
-0.144845
0.0596121
-0.139101
0.0614783
-0.133577
0.0634189
-0.128278
0.065377
-0.300898
0.0335016
-0.288871
0.0345338
-0.277322
0.0355807
-0.266122
0.0366488
-0.255437
0.0377509
-0.245156
0.0388924
-0.235376
0.0400787
-0.226026
0.0413017
-0.21708
0.0425727
-0.20844
0.0438648
-0.200184
0.0452127
-0.192234
0.0465971
-0.184603
0.0480319
-0.177273
0.0495183
-0.170235
0.0510444
-0.163471
0.0526363
-0.156986
0.0542687
-0.15075
0.0559545
-0.144768
0.0577188
-0.139026
0.0595365
-0.133503
0.0614039
-0.128205
0.0633462
-0.123123
0.065304
-0.300887
0.0324637
-0.28883
0.0334606
-0.277262
0.0344743
-0.266047
0.0355057
-0.255362
0.0365739
-0.245087
0.0376818
-0.235313
0.0388286
-0.225964
0.0400163
-0.217016
0.0412369
-0.208371
0.0425037
-0.200111
0.0437914
-0.192157
0.0451359
-0.184524
0.0465182
-0.177193
0.0479521
-0.170155
0.0494384
-0.163392
0.0509651
-0.156908
0.052558
-0.150673
0.0541917
-0.144693
0.055879
-0.138952
0.0576448
-0.133431
0.059464
-0.128134
0.0613328
-0.123054
0.0632767
-0.118163
0.0652343
-0.300875
0.0314575
-0.288789
0.032422
-0.277203
0.0334016
-0.265974
0.0344017
-0.255291
0.0354349
-0.245022
0.0365093
-0.235253
0.0376218
-0.225904
0.0387689
-0.216953
0.0399532
-0.208303
0.0411691
-0.200038
0.0424313
-0.192082
0.0437158
-0.184446
0.0450584
-0.177114
0.0464398
-0.170077
0.0478736
-0.163314
0.0493606
-0.156831
0.0508882
-0.150597
0.0524824
-0.144618
0.0541175
-0.138879
0.0558064
-0.13336
0.0575737
-0.128065
0.0593946
-0.122986
0.0612648
-0.118097
0.0632103
-0.113408
0.0651678
-0.300863
0.0304855
-0.288746
0.0314151
-0.277145
0.0323635
-0.265904
0.0333315
-0.255224
0.0343352
-0.244962
0.0353746
-0.235196
0.0364527
-0.225846
0.0375643
-0.216891
0.0387073
-0.208236
0.0398865
-0.199967
0.0410979
-0.192008
0.042357
-0.18437
0.0436396
-0.177037
0.0449814
-0.17
0.0463627
-0.163237
0.0477971
-0.156755
0.0492849
-0.150523
0.0508138
-0.144545
0.0524094
-0.138808
0.0540461
-0.13329
0.0557367
-0.127997
0.0575057
-0.122919
0.0593282
-0.118032
0.0611999
-0.113345
0.063147
-0.108844
0.0651044
-0.300851
0.0295411
-0.288703
0.0304424
-0.277087
0.0313574
-0.265837
0.0322962
-0.255162
0.0332691
-0.244906
0.0342788
-0.235142
0.0353211
-0.225791
0.0363972
-0.216831
0.0375041
-0.208171
0.0386418
-0.199897
0.0398166
-0.191935
0.0410249
-0.184295
0.0422822
-0.176962
0.043564
-0.169924
0.0449056
-0.163162
0.0462874
-0.156681
0.0477225
-0.150449
0.0492115
-0.144473
0.0507419
-0.138737
0.052339
-0.133221
0.0539775
-0.12793
0.0556698
-0.122854
0.0574406
-0.117968
0.0592647
-0.113283
0.061138
-0.108784
0.0630867
-0.104461
0.065044
-0.300838
0.0286293
-0.288659
0.0294974
-0.27703
0.0303858
-0.265772
0.031293
-0.255104
0.0322379
-0.244853
0.0332165
-0.235092
0.0342279
-0.225737
0.0352673
-0.216772
0.0363382
-0.208106
0.0374397
-0.199829
0.0385731
-0.191863
0.0397449
-0.184222
0.0409515
-0.176887
0.0422078
-0.169849
0.0434894
-0.163088
0.0448313
-0.156607
0.0462139
-0.150377
0.0476501
-0.144402
0.0491405
-0.138668
0.0506724
-0.133153
0.0522713
-0.127864
0.0539116
-0.12279
0.0556057
-0.117906
0.0573783
-0.113223
0.0592042
-0.108725
0.061079
-0.104403
0.0630293
-0.100258
0.0649866
-0.300824
0.0277435
-0.288615
0.0285852
-0.276975
0.029442
-0.265711
0.0303244
-0.255049
0.0312386
-0.244804
0.0321886
-0.235043
0.033168
-0.225685
0.0341758
-0.216714
0.0352096
-0.208043
0.0362751
-0.199761
0.0373723
-0.191793
0.0385028
-0.18415
0.0396728
-0.176814
0.0408784
-0.169776
0.0421344
-0.163015
0.0434162
-0.156535
0.0447587
-0.150306
0.0461423
-0.144332
0.0475799
-0.138599
0.0490718
-0.133087
0.0506055
-0.127799
0.0522062
-0.122727
0.0538484
-0.117845
0.0555445
-0.113163
0.0573188
-0.108667
0.0591465
-0.104347
0.0610228
-0.100204
0.0629747
-0.0962213
0.064932
-0.30081
0.0268864
-0.288571
0.0276992
-0.276921
0.0285312
-0.265652
0.0293837
-0.254999
0.0302737
-0.244758
0.0311924
-0.234997
0.0321422
-0.225634
0.0331172
-0.216657
0.0341192
-0.207981
0.0351477
-0.199695
0.0362091
-0.191724
0.0373035
-0.184079
0.0384321
-0.176742
0.039601
-0.169704
0.0408061
-0.162942
0.0420621
-0.156463
0.0433445
-0.150235
0.0446879
-0.144263
0.0460728
-0.138531
0.047512
-0.13302
0.0490056
-0.127735
0.0505412
-0.122664
0.0521438
-0.117784
0.0537879
-0.113105
0.0554859
-0.108611
0.0572621
-0.104292
0.0590916
-0.10015
0.0609694
-0.0961695
0.0629229
-0.0923503
0.0648801
-0.300795
0.0260565
-0.288526
0.0268419
-0.276868
0.0276467
-0.265597
0.0284759
-0.254952
0.0293366
-0.244714
0.0302303
-0.234952
0.031148
-0.225585
0.0320929
-0.216602
0.0330619
-0.207921
0.0340587
-0.199631
0.0350831
-0.191656
0.0361416
-0.18401
0.0372341
-0.176672
0.0383615
-0.169632
0.0395298
-0.162871
0.0407348
-0.156392
0.0419912
-0.150165
0.0432744
-0.144194
0.0446191
-0.138464
0.0460054
-0.132955
0.0474463
-0.127671
0.0489418
-0.122603
0.0504794
-0.117724
0.052084
-0.113047
0.0537301
-0.108555
0.05543
-0.104238
0.0572081
-0.100098
0.0590393
-0.0961187
0.0609186
-0.0923012
0.0628737
-0.0886252
0.0648309
-0.300779
0.0252512
-0.288482
0.026012
-0.276818
0.0267911
-0.265545
0.0275946
-0.254908
0.0284322
-0.244673
0.0292958
-0.23491
0.0301876
-0.225537
0.0310999
-0.216548
0.0320388
-0.207862
0.0330028
-0.199567
0.0339956
-0.19159
0.0350172
-0.183942
0.0360737
-0.176603
0.0371647
-0.169562
0.0382913
-0.162801
0.0394593
-0.156322
0.0406646
-0.150095
0.0419217
-0.144126
0.0432061
-0.138397
0.0445522
-0.13289
0.0459403
-0.127608
0.047383
-0.122541
0.0488805
-0.117665
0.0504201
-0.112989
0.0520267
-0.108499
0.0536748
-0.104185
0.0553767
-0.100046
0.0571566
-0.096069
0.0589896
-0.092253
0.0608704
-0.0885786
0.0628271
-0.085061
0.0647843
-0.300762
0.0244718
-0.288438
0.0252068
-0.276769
0.025963
-0.265496
0.0267421
-0.254867
0.0275541
-0.244635
0.0283937
-0.234868
0.0292547
-0.22549
0.0301409
-0.216495
0.0310472
-0.207804
0.0319811
-0.199506
0.0329412
-0.191526
0.0339312
-0.183875
0.0349506
-0.176534
0.0360055
-0.169493
0.0370956
-0.162731
0.0382218
-0.156252
0.0393899
-0.150026
0.0405958
-0.144058
0.0418539
-0.138331
0.0431397
-0.132825
0.0444875
-0.127545
0.0458774
-0.12248
0.0473221
-0.117606
0.0488217
-0.112933
0.0503633
-0.108445
0.051972
-0.104132
0.0536221
-0.0999956
0.0553259
-0.0960201
0.0571077
-0.0922058
0.0589424
-0.0885329
0.0608247
-0.0850169
0.0627829
-0.0816327
0.0647401
-0.300744
0.0237155
-0.288393
0.0244276
-0.276722
0.0251597
-0.26545
0.025917
-0.25483
0.0267045
-0.244598
0.0275176
-0.234829
0.0283541
-0.225445
0.0292092
-0.216444
0.0300895
-0.207748
0.030991
-0.199446
0.0319212
-0.191463
0.0328783
-0.18381
0.033866
-0.176467
0.0348837
-0.169425
0.0359375
-0.162662
0.037027
-0.156184
0.0381531
-0.149958
0.0393217
-0.14399
0.0405285
-0.138265
0.0417879
-0.13276
0.0430753
-0.127482
0.0444249
-0.12242
0.0458168
-0.117548
0.0472636
-0.112876
0.0487652
-0.10839
0.050309
-0.10408
0.0519197
-0.0999453
0.0535718
-0.0959717
0.0552775
-0.0921592
0.0570611
-0.088488
0.0588976
-0.0849735
0.0607814
-0.0815909
0.0627411
-0.0783504
0.0646982
-0.300726
0.0229825
-0.28835
0.0236718
-0.276677
0.0243826
-0.265407
0.0251167
-0.254795
0.0258821
-0.244564
0.0266699
-0.234791
0.0274794
-0.2254
0.0283098
-0.216394
0.0291592
-0.207693
0.0300349
-0.199388
0.0309327
-0.191402
0.0318598
-0.183746
0.0328146
-0.176402
0.0338004
-0.169358
0.0348167
-0.162595
0.0358697
-0.156116
0.036959
-0.149891
0.0380854
-0.143924
0.0392548
-0.138199
0.0404628
-0.132696
0.0417238
-0.12742
0.043013
-0.122359
0.0443646
-0.11749
0.0457585
-0.11282
0.0472075
-0.108336
0.0487112
-0.104028
0.050257
-0.0998954
0.0518697
-0.0959237
0.0535238
-0.0921131
0.0552315
-0.0884438
0.0570168
-0.084931
0.058855
-0.0815499
0.0607403
-0.0783108
0.0627016
-0.0751888
0.0646586
-0.300706
0.022274
-0.288307
0.0229394
-0.276633
0.0236288
-0.265367
0.0243424
-0.254763
0.0250844
-0.244531
0.0258493
-0.234754
0.026633
-0.225357
0.0274364
-0.216346
0.0282613
-0.20764
0.0291062
-0.199331
0.0299782
-0.191342
0.0308729
-0.183684
0.0317975
-0.176338
0.0327502
-0.169292
0.0337345
-0.162528
0.0347499
-0.156048
0.0358026
-0.149824
0.036892
-0.143857
0.0380191
-0.138134
0.0391895
-0.132632
0.040399
-0.127358
0.0416617
-0.122299
0.0429528
-0.117431
0.0443065
-0.112764
0.0457026
-0.108282
0.0471537
-0.103976
0.0486595
-0.0998458
0.0502074
-0.0958761
0.0518221
-0.0920674
0.0534781
-0.0883999
0.0551876
-0.0848889
0.0569748
-0.0815095
0.0588147
-0.078272
0.0607014
-0.0751515
0.0626642
-0.0721632
0.0646212
-0.300686
0.021586
-0.288264
0.0222316
-0.276592
0.0228984
-0.265329
0.0235914
-0.254733
0.0243124
-0.2445
0.0250531
-0.234718
0.0258136
-0.225316
0.0265913
-0.216299
0.0273894
-0.207589
0.0282099
-0.199276
0.0290511
-0.191284
0.02992
-0.183623
0.0308121
-0.176274
0.0317345
-0.169228
0.0326855
-0.162462
0.0336687
-0.155982
0.0346835
-0.149757
0.0357361
-0.143791
0.036826
-0.138069
0.0379541
-0.132569
0.0391259
-0.127296
0.040337
-0.122239
0.0416016
-0.117373
0.0428948
-0.112708
0.0442506
-0.108229
0.0456489
-0.103925
0.0471021
-0.0997964
0.0486101
-0.0958287
0.0501601
-0.092022
0.0517767
-0.0883564
0.0534346
-0.0848472
0.055146
-0.0814696
0.0569348
-0.0782337
0.0587765
-0.0751147
0.0606647
-0.072128
0.0626289
-0.0692585
0.0645858
-0.300665
0.0209186
-0.288223
0.0215445
-0.276554
0.0221927
-0.265295
0.0228636
-0.254705
0.0235635
-0.24447
0.0242825
-0.234683
0.0250186
-0.225275
0.0257733
-0.216253
0.0265458
-0.207539
0.0273396
-0.199222
0.0281566
-0.191227
0.0289946
-0.183564
0.0298607
-0.176213
0.0307504
-0.169164
0.031671
-0.162397
0.0326207
-0.155916
0.0336031
-0.149691
0.0346177
-0.143726
0.0356706
-0.138004
0.0367614
-0.132505
0.0378906
-0.127234
0.039064
-0.122179
0.040277
-0.117315
0.0415436
-0.112653
0.042839
-0.108175
0.044197
-0.103873
0.0455975
-0.0997471
0.0470529
-0.0957815
0.0485629
-0.0919768
0.0501149
-0.0883132
0.0517334
-0.0848058
0.0533932
-0.0814299
0.0551063
-0.0781958
0.0568969
-0.0750785
0.0587402
-0.0720932
0.0606299
-0.0692252
0.0625956
-0.0664695
0.0645523
-0.300643
0.0202731
-0.288182
0.0208781
-0.276517
0.0215076
-0.265262
0.0221604
-0.254679
0.0228376
-0.244441
0.0235349
-0.23465
0.0242493
-0.225236
0.0249796
-0.216209
0.0257293
-0.207491
0.0264978
-0.199171
0.027288
-0.191172
0.0281017
-0.183506
0.0289368
-0.176153
0.0298004
-0.169102
0.0306881
-0.162333
0.0316072
-0.155852
0.032556
-0.149626
0.0335379
-0.143661
0.0345527
-0.13794
0.0356063
-0.132442
0.0366981
-0.127172
0.0378289
-0.122119
0.039004
-0.117257
0.040219
-0.112597
0.0414878
-0.108122
0.0427854
-0.103822
0.0441456
-0.0996979
0.0455483
-0.0957345
0.0470058
-0.0919318
0.0485179
-0.0882701
0.0500718
-0.0847646
0.0516922
-0.0813905
0.0533537
-0.0781581
0.0550686
-0.0750425
0.0568609
-0.0720589
0.0587059
-0.0691923
0.060597
-0.0664382
0.0625642
-0.0637914
0.0645207
-0.30062
0.0196469
-0.288143
0.0202337
-0.276482
0.0208432
-0.265232
0.0214777
-0.254654
0.0221361
-0.244414
0.0228103
-0.234618
0.0235029
-0.225199
0.0242116
-0.216167
0.0249372
-0.207444
0.0256829
-0.199121
0.0264478
-0.191119
0.0272347
-0.18345
0.0280454
-0.176094
0.028878
-0.169041
0.0297394
-0.162271
0.0306254
-0.155788
0.0315433
-0.149562
0.0324915
-0.143596
0.0334734
-0.137876
0.0344887
-0.132379
0.0355432
-0.127111
0.0366364
-0.122059
0.0377689
-0.117199
0.038946
-0.112541
0.0401631
-0.108068
0.041434
-0.103771
0.0427339
-0.0996487
0.0440964
-0.0956874
0.0455013
-0.0918869
0.0469609
-0.0882271
0.0484749
-0.0847235
0.0500307
-0.0813512
0.0516529
-0.0781206
0.0533162
-0.0750067
0.0550328
-0.0720247
0.0568268
-0.0691598
0.0586735
-0.0664071
0.0605659
-0.0637618
0.0625347
-0.0612241
0.0644909
-0.300596
0.0190399
-0.288104
0.0196086
-0.276449
0.0202008
-0.265205
0.0208156
-0.254632
0.0214551
-0.244388
0.02211
-0.234587
0.0227794
-0.225162
0.0234665
-0.216126
0.0241707
-0.2074
0.0248925
-0.199073
0.0256346
-0.191067
0.0263962
-0.183395
0.0271801
-0.176036
0.0279881
-0.168981
0.0288183
-0.162209
0.0296778
-0.155725
0.0305626
-0.149498
0.0314797
-0.143532
0.0324276
-0.137812
0.0334098
-0.132316
0.0344259
-0.127049
0.0354816
-0.121999
0.0365764
-0.117141
0.0377107
-0.112485
0.0388899
-0.108014
0.0401092
-0.103719
0.0413824
-0.0995994
0.0426846
-0.0956404
0.0440493
-0.0918419
0.0454563
-0.0881843
0.046918
-0.0846826
0.048434
-0.0813121
0.0499916
-0.0780832
0.0516155
-0.0749709
0.0532805
-0.0719907
0.0549988
-0.0691274
0.0567944
-0.0663764
0.0586427
-0.0637325
0.0605366
-0.0611962
0.0625068
-0.0587575
0.0644628
-0.300572
0.0184509
-0.288068
0.019003
-0.276418
0.0195777
-0.265179
0.0201752
-0.254611
0.0207944
-0.244363
0.02143
-0.234557
0.0220802
-0.225127
0.0227444
-0.216087
0.0234273
-0.207356
0.0241277
-0.199026
0.0248459
-0.191018
0.0255847
-0.183342
0.0263432
-0.17598
0.0271242
-0.168923
0.0279297
-0.162149
0.0287579
-0.155663
0.029616
-0.149435
0.0304997
-0.143469
0.0314164
-0.137749
0.0323644
-0.132254
0.0333472
-0.126987
0.0343644
-0.121939
0.0354216
-0.117083
0.0365181
-0.112428
0.0376545
-0.10796
0.0388359
-0.103667
0.0400575
-0.0995499
0.041333
-0.0955932
0.0426374
-0.0917969
0.0440043
-0.0881414
0.0454135
-0.0846417
0.0468771
-0.0812731
0.048395
-0.0780459
0.0499544
-0.0749353
0.0515799
-0.0719567
0.0532465
-0.0690951
0.0549664
-0.0663456
0.0567636
-0.0637035
0.0586137
-0.0611686
0.060509
-0.0587313
0.0624807
-0.0563866
0.0644362
-0.300546
0.0178812
-0.288032
0.0184154
-0.276389
0.0189738
-0.265156
0.0195541
-0.254591
0.0201553
-0.244339
0.0207703
-0.234529
0.0214013
-0.225094
0.0220466
-0.216049
0.0227067
-0.207315
0.0233859
-0.198981
0.0240828
-0.190969
0.0247977
-0.183291
0.0255333
-0.175926
0.0262888
-0.168866
0.0270673
-0.16209
0.0278706
-0.155602
0.0286971
-0.149373
0.029554
-0.143406
0.030437
-0.137686
0.0313536
-0.132191
0.032302
-0.126926
0.0332858
-0.121879
0.0343042
-0.117025
0.0353631
-0.112372
0.0364617
-0.107906
0.0376002
-0.103615
0.0387839
-0.0995002
0.0400078
-0.0955458
0.0412856
-0.0917518
0.0425923
-0.0880984
0.0439614
-0.0846008
0.0453726
-0.0812341
0.0468381
-0.0780088
0.0483578
-0.0748999
0.0499189
-0.0719228
0.0515461
-0.0690627
0.0532142
-0.0663149
0.0549356
-0.0636743
0.0567344
-0.0611411
0.0585862
-0.0587052
0.0604829
-0.056362
0.0624561
-0.0541214
0.0644111
-0.30052
0.0173295
-0.287998
0.0178471
-0.276362
0.018388
-0.265134
0.0189521
-0.254572
0.0195353
-0.244316
0.0201323
-0.234501
0.0207428
-0.225061
0.021369
-0.216013
0.0220104
-0.207275
0.022667
-0.198938
0.0233426
-0.190923
0.0240362
-0.183241
0.0247479
-0.175873
0.0254805
-0.16881
0.0262334
-0.162032
0.0270095
-0.155543
0.027811
-0.149312
0.0286361
-0.143344
0.029492
-0.137624
0.0303748
-0.132129
0.0312915
-0.126865
0.0322407
-0.121819
0.0332256
-0.116966
0.0342457
-0.112315
0.0353065
-0.107851
0.0364071
-0.103563
0.0375479
-0.0994503
0.0387339
-0.0954982
0.0399602
-0.0917065
0.0412403
-0.0880554
0.0425493
-0.0845598
0.0439204
-0.0811952
0.0453336
-0.0779716
0.046801
-0.0748645
0.0483224
-0.071889
0.0498851
-0.0690304
0.0515138
-0.0662841
0.0531834
-0.063645
0.0549064
-0.0611134
0.0567068
-0.0586792
0.0585602
-0.0563374
0.0604583
-0.0540984
0.062433
-0.0519419
0.0643875
-0.300494
0.0167931
-0.287965
0.017297
-0.276336
0.0178215
-0.265114
0.018368
-0.254554
0.0189344
-0.244294
0.0195132
-0.234475
0.0201058
-0.22503
0.0207118
-0.215978
0.0213344
-0.207237
0.0219723
-0.198896
0.0226254
-0.190878
0.0232978
-0.183193
0.0239881
-0.175822
0.0246967
-0.168756
0.0254266
-0.161975
0.0261769
-0.155484
0.026951
-0.149252
0.0277509
-0.143283
0.0285749
-0.137562
0.0294303
-0.132068
0.0303131
-0.126803
0.0312304
-0.121759
0.0321806
-0.116907
0.0331669
-0.112258
0.0341888
-0.107796
0.0352516
-0.10351
0.0363545
-0.0994
0.0374976
-0.0954503
0.038686
-0.091661
0.0399146
-0.0880121
0.041197
-0.0845187
0.0425082
-0.0811561
0.0438813
-0.0779345
0.0452965
-0.0748291
0.0467657
-0.0718553
0.0482887
-0.0689983
0.0498529
-0.0662533
0.051483
-0.0636157
0.0531541
-0.0610856
0.0548786
-0.058653
0.0566805
-0.0563129
0.0585357
-0.0540752
0.0604351
-0.0519203
0.0624114
-0.049848
0.0643652
-0.300466
0.0162736
-0.287935
0.0167622
-0.276312
0.0172729
-0.265096
0.0178031
-0.254537
0.0183513
-0.244272
0.0189132
-0.234449
0.0194879
-0.225001
0.0200762
-0.215945
0.0206787
-0.207201
0.0212978
-0.198856
0.0219324
-0.190835
0.0225822
-0.183146
0.0232513
-0.175773
0.0239385
-0.168704
0.0246443
-0.16192
0.0253715
-0.155427
0.0261197
-0.149193
0.026892
-0.143223
0.0276906
-0.137501
0.0285138
-0.132006
0.0293691
-0.126743
0.0302521
-0.121699
0.0311703
-0.116848
0.0321218
-0.112201
0.0331098
-0.107741
0.0341336
-0.103457
0.0351986
-0.0993493
0.0363038
-0.095402
0.0374494
-0.0916151
0.0386401
-0.0879685
0.0398711
-0.0844774
0.0411557
-0.0811169
0.042469
-0.0778973
0.0438442
-0.0747938
0.0452611
-0.0718216
0.046732
-0.0689662
0.0482566
-0.0662227
0.0498223
-0.0635865
0.0514538
-0.0610577
0.0531262
-0.0586265
0.0548521
-0.056288
0.0566556
-0.054052
0.0585125
-0.0518985
0.0604133
-0.0498278
0.0623911
-0.0478398
0.0643441
-0.300438
0.0157707
-0.287905
0.0162443
-0.276289
0.0167396
-0.265079
0.017256
-0.254522
0.0177872
-0.244252
0.018331
-0.234425
0.018889
-0.224972
0.0194595
-0.215913
0.0200445
-0.207166
0.0206437
-0.198818
0.0212596
-0.190793
0.0218908
-0.183102
0.0225374
-0.175725
0.0232033
-0.168653
0.0238876
-0.161867
0.0245907
-0.155371
0.0253156
-0.149135
0.0260618
-0.143164
0.0268326
-0.137441
0.0276302
-0.131946
0.0284531
-0.126682
0.0293084
-0.121639
0.0301921
-0.11679
0.0311114
-0.112144
0.0320644
-0.107686
0.0330543
-0.103404
0.0340802
-0.0992983
0.0351476
-0.0953533
0.0362552
-0.0915688
0.0374031
-0.0879246
0.0385962
-0.0844358
0.0398295
-0.0810776
0.0411163
-0.07786
0.0424316
-0.0747584
0.0438087
-0.071788
0.0452275
-0.0689342
0.0467
-0.0661922
0.0482261
-0.0635573
0.0497931
-0.0610298
0.0514259
-0.0585999
0.0530996
-0.0562628
0.0548269
-0.0540284
0.056632
-0.0518766
0.0584906
-0.0498073
0.0603928
-0.0478209
0.0623722
-0.0459172
0.0643242
-0.300409
0.015282
-0.287878
0.0157431
-0.276268
0.0162231
-0.265063
0.0167241
-0.254507
0.0172409
-0.244233
0.0177678
-0.234402
0.0183077
-0.224945
0.0188619
-0.215883
0.0194293
-0.207132
0.020011
-0.198781
0.020607
-0.190753
0.0212196
-0.183058
0.0218476
-0.175678
0.0224911
-0.168604
0.023154
-0.161815
0.0238355
-0.155316
0.0245361
-0.149078
0.0252589
-0.143105
0.0260034
-0.137381
0.026773
-0.131885
0.02757
-0.126621
0.0283927
-0.121579
0.0292485
-0.116731
0.0301331
-0.112086
0.0310538
-0.10763
0.0320085
-0.10335
0.0330005
-0.0992467
0.0340287
-0.0953042
0.0350984
-0.0915221
0.0362085
-0.0878804
0.0373588
-0.0843939
0.0385543
-0.0810379
0.0397898
-0.0778224
0.0410788
-0.0747228
0.0423961
-0.0717543
0.043775
-0.0689021
0.0451955
-0.0661617
0.0466695
-0.0635282
0.048197
-0.061002
0.0497653
-0.0585734
0.0513993
-0.0562375
0.0530743
-0.0540044
0.054803
-0.0518542
0.0566095
-0.0497866
0.05847
-0.0478016
0.0603735
-0.0458995
0.0623545
-0.044065
0.0643054
-0.30038
0.01481
-0.287852
0.0152561
-0.276248
0.0157232
-0.265049
0.0162088
-0.254492
0.0167098
-0.244214
0.0172223
-0.23438
0.0177456
-0.22492
0.0182819
-0.215854
0.018833
-0.2071
0.0193973
-0.198746
0.0199759
-0.190715
0.0205687
-0.183017
0.0211781
-0.175634
0.0218029
-0.168556
0.0224433
-0.161764
0.0231034
-0.155263
0.0237823
-0.149023
0.0244806
-0.143048
0.0252015
-0.137322
0.0259446
-0.131826
0.0267134
-0.126562
0.02751
-0.121519
0.028333
-0.116672
0.0291895
-0.112028
0.0300753
-0.107574
0.0309976
-0.103296
0.0319543
-0.0991947
0.0329485
-0.0952545
0.0339791
-0.0914749
0.0350512
-0.0878356
0.0361637
-0.0843516
0.0373165
-0.0809979
0.0385143
-0.0777846
0.039752
-0.0746871
0.041043
-0.0717205
0.0423623
-0.0688701
0.043743
-0.0661312
0.045165
-0.0634992
0.0466405
-0.0609743
0.0481693
-0.0585469
0.0497388
-0.0562121
0.051374
-0.0539803
0.0530501
-0.0518314
0.0547802
-0.0497653
0.0565882
-0.0477821
0.0584505
-0.0458814
0.0603554
-0.0440486
0.0623381
-0.0422885
0.0642877
-0.30035
0.0143522
-0.287828
0.0147858
-0.276229
0.0152373
-0.265036
0.0157101
-0.254479
0.0161952
-0.244196
0.016692
-0.234358
0.0172011
-0.224895
0.0177209
-0.215827
0.0182544
-0.20707
0.0188025
-0.198713
0.0193637
-0.190678
0.0199392
-0.182977
0.0205288
-0.175591
0.0211351
-0.16851
0.0217568
-0.161715
0.0223943
-0.155211
0.0230517
-0.148969
0.0237282
-0.142992
0.0244244
-0.137265
0.0251437
-0.131767
0.0258857
-0.126502
0.0266539
-0.121459
0.0274505
-0.116613
0.028274
-0.111971
0.0291315
-0.107517
0.0300189
-0.103241
0.030943
-0.0991422
0.0319018
-0.0952044
0.0328983
-0.0914272
0.0339313
-0.0877904
0.035006
-0.0843088
0.036121
-0.0809575
0.0372761
-0.0777465
0.0384762
-0.0746511
0.039716
-0.0716865
0.041009
-0.0688379
0.0423301
-0.0661007
0.0437125
-0.0634703
0.0451361
-0.0609468
0.046613
-0.0585206
0.048143
-0.0561869
0.0497136
-0.0539561
0.0513498
-0.0518083
0.0530271
-0.0497436
0.0547585
-0.0477619
0.056568
-0.045863
0.0584321
-0.0440315
0.0603383
-0.0422731
0.0623227
-0.0405925
0.0642709
-0.30032
0.0139072
-0.287805
0.0143297
-0.276212
0.0147682
-0.265024
0.0152254
-0.254466
0.0156971
-0.244179
0.0161782
-0.234338
0.0166718
-0.224871
0.0171776
-0.2158
0.0176947
-0.20704
0.0182253
-0.198681
0.0187704
-0.190643
0.0193285
-0.182939
0.0199009
-0.175549
0.0204874
-0.168465
0.0210906
-0.161668
0.0217094
-0.155161
0.0223441
-0.148916
0.0229989
-0.142937
0.0236732
-0.137208
0.0243676
-0.131709
0.0250856
-0.126443
0.0258268
-0.1214
0.0265948
-0.116554
0.0273917
-0.111912
0.028216
-0.10746
0.0290748
-0.103186
0.0299638
-0.0990892
0.0308899
-0.0951536
0.0318511
-0.0913789
0.03285
-0.0877446
0.0338855
-0.0842655
0.0349627
-0.0809166
0.0360801
-0.077708
0.0372376
-0.0746148
0.0384399
-0.0716522
0.0396818
-0.0688056
0.0409767
-0.0660702
0.0422995
-0.0634413
0.0436835
-0.0609192
0.0451085
-0.0584943
0.0465867
-0.0561618
0.0481179
-0.0539321
0.0496896
-0.0517853
0.0513268
-0.0497216
0.0530051
-0.0477412
0.0547378
-0.0458438
0.0565488
-0.0440142
0.0584148
-0.0422571
0.0603224
-0.0405782
0.0623084
-0.0389519
0.064255
-0.300289
0.0134777
-0.287784
0.0138864
-0.276195
0.0143131
-0.265013
0.0147572
-0.254453
0.0152129
-0.244163
0.0156809
-0.234319
0.0161589
-0.224849
0.0166495
-0.215775
0.0171527
-0.207013
0.017667
-0.19865
0.0181947
-0.190609
0.0187368
-0.182902
0.0192919
-0.175509
0.0198611
-0.168422
0.0204445
-0.161622
0.0210447
-0.155112
0.0216606
-0.148864
0.0222927
-0.142883
0.0229451
-0.137152
0.0236174
-0.131651
0.0243104
-0.126385
0.0250273
-0.121341
0.0257681
-0.116495
0.0265361
-0.111854
0.0273336
-0.107403
0.028159
-0.103131
0.0290193
-0.0990357
0.0299103
-0.0951023
0.0308386
-0.09133
0.0318022
-0.0876982
0.0328036
-0.0842216
0.0338417
-0.0808753
0.0349213
-0.077669
0.0360411
-0.0745781
0.0372009
-0.0716177
0.0384054
-0.068773
0.0396493
-0.0660394
0.0409459
-0.0634122
0.0422705
-0.0608917
0.043656
-0.0584681
0.0450823
-0.0561369
0.0465618
-0.0539082
0.048094
-0.0517624
0.0496667
-0.0496996
0.0513048
-0.0477202
0.0529841
-0.045824
0.054718
-0.043996
0.0565306
-0.0422408
0.0583984
-0.0405632
0.0603074
-0.0389386
0.0622952
-0.0373868
0.06424
-0.300258
0.0130599
-0.287765
0.0134587
-0.276179
0.0138707
-0.265003
0.0143031
-0.254441
0.0147453
-0.244148
0.0151975
-0.234301
0.0156625
-0.224828
0.0161377
-0.215752
0.0166258
-0.206986
0.0171263
-0.198621
0.0176378
-0.190577
0.0181625
-0.182867
0.0187016
-0.175471
0.0192537
-0.168381
0.0198199
-0.161577
0.0204002
-0.155065
0.0209975
-0.148815
0.0216107
-0.14283
0.0222402
-0.137098
0.0228906
-0.131595
0.0235611
-0.126327
0.0242528
-0.121283
0.0249691
-0.116437
0.0257096
-0.111796
0.026478
-0.107346
0.0272764
-0.103075
0.0281032
-0.0989817
0.0289653
-0.0950504
0.0298584
-0.0912804
0.0307891
-0.0876511
0.0317551
-0.0841771
0.0327591
-0.0808333
0.0337997
-0.0776295
0.0348818
-0.074541
0.036004
-0.0715828
0.037166
-0.0687402
0.0383725
-0.0660085
0.0396183
-0.063383
0.0409167
-0.0608641
0.0422429
-0.058442
0.0436298
-0.056112
0.0450575
-0.0538845
0.046538
-0.0517396
0.0480713
-0.0496778
0.0496448
-0.0476992
0.0512838
-0.045804
0.052964
-0.0439771
0.0546992
-0.0422235
0.0565132
-0.0405478
0.0583831
-0.0389246
0.0602934
-0.0373745
0.0622829
-0.0358771
0.0642258
-0.300227
0.0126549
-0.287748
0.0130425
-0.276164
0.0134438
-0.264994
0.0138616
-0.25443
0.0142917
-0.244133
0.0147306
-0.234283
0.01518
-0.224808
0.0156424
-0.215729
0.0161152
-0.206961
0.0166006
-0.198593
0.0170985
-0.190546
0.0176071
-0.182833
0.018129
-0.175435
0.0186651
-0.168342
0.0192141
-0.161535
0.0197772
-0.155019
0.0203546
-0.148766
0.020949
-0.142779
0.0215596
-0.137044
0.0221869
-0.13154
0.0228353
-0.126271
0.0235044
-0.121225
0.0241951
-0.116378
0.0249109
-0.111738
0.0256517
-0.107289
0.0264207
-0.103019
0.0272203
-0.0989272
0.0280487
-0.0949979
0.0289128
-0.0912302
0.0298082
-0.0876034
0.0307413
-0.0841319
0.0317099
-0.0807907