/*--------------------------------*- C++ -*----------------------------------*\
  =========                 |
  \\      /  F ield         | OpenFOAM: The Open Source CFD Toolbox
   \\    /   O peration     | Website:  https://openfoam.org
    \\  /    A nd           | Version:  7
     \\/     M anipulation  |
\*---------------------------------------------------------------------------*/
FoamFile
{
    version     2.0;
    format      ascii;
    class       volVectorField;
    location    "1200";
    object      U;
}
// * * * * * * * * * * * * * * * * * * * * * * * * * * * * * * * * * * * * * //

dimensions      [0 1 -1 0 0 0 0];

internalField   nonuniform List<vector> 
23117
(
(49.9676 13.1527 0)
(49.9146 13.0948 0)
(50.0572 13.1488 0)
(49.8925 13.0589 0)
(50.0175 13.1434 0)
(50.1194 13.1243 0)
(49.8748 13.0241 0)
(49.9987 13.1308 0)
(50.0864 13.1173 0)
(50.185 13.0877 0)
(49.864 12.9942 0)
(49.976 13.1157 0)
(50.0693 13.1074 0)
(50.1482 13.077 0)
(50.2314 13.062 0)
(49.8559 12.968 0)
(49.9596 13.1016 0)
(50.0477 13.0961 0)
(50.1297 13.066 0)
(50.1913 13.0549 0)
(50.2603 13.0345 0)
(49.8497 12.945 0)
(49.9455 13.0889 0)
(50.0305 13.0842 0)
(50.1061 13.0547 0)
(50.1711 13.045 0)
(50.2147 13.0271 0)
(50.2723 13.0033 0)
(49.8447 12.9248 0)
(49.9339 13.078 0)
(50.0145 13.0726 0)
(50.0863 13.0434 0)
(50.1437 13.0348 0)
(50.1915 13.0167 0)
(50.2202 12.9947 0)
(50.2704 12.9708 0)
(49.8406 12.9069 0)
(49.9237 13.0687 0)
(50.0005 13.0615 0)
(50.067 13.0323 0)
(50.1197 13.0243 0)
(50.1598 13.0064 0)
(50.1946 12.9838 0)
(50.215 12.962 0)
(50.2636 12.9387 0)
(49.837 12.8911 0)
(49.9147 13.0611 0)
(49.9876 13.0512 0)
(50.049 13.0218 0)
(50.0957 13.0139 0)
(50.1317 12.9956 0)
(50.1597 12.9732 0)
(50.189 12.9513 0)
(50.209 12.9306 0)
(50.2602 12.9092 0)
(49.8339 12.8772 0)
(49.9066 13.0549 0)
(49.9756 13.0418 0)
(50.0316 13.012 0)
(50.0727 13.0038 0)
(50.1034 12.9849 0)
(50.1291 12.9624 0)
(50.1535 12.9411 0)
(50.1848 12.9208 0)
(50.2096 12.9027 0)
(50.2646 12.8835 0)
(49.8312 12.865 0)
(49.8991 13.05 0)
(49.9642 13.0331 0)
(50.0148 13.0029 0)
(50.0502 12.9942 0)
(50.0764 12.9745 0)
(50.0988 12.9519 0)
(50.1233 12.931 0)
(50.1514 12.9116 0)
(50.1883 12.894 0)
(50.2188 12.8789 0)
(50.2761 12.8612 0)
(49.8287 12.8542 0)
(49.892 13.0462 0)
(49.9533 13.0252 0)
(49.9984 12.9945 0)
(50.0282 12.9851 0)
(50.0502 12.9645 0)
(50.0703 12.9418 0)
(50.0938 12.9213 0)
(50.1235 12.9026 0)
(50.1579 12.8859 0)
(50.1998 12.871 0)
(50.2338 12.8583 0)
(50.2914 12.8412 0)
(49.8265 12.8448 0)
(49.8852 13.0435 0)
(49.9427 13.0181 0)
(49.9822 12.987 0)
(50.0068 12.9766 0)
(50.025 12.955 0)
(50.0433 12.9323 0)
(50.0666 12.9122 0)
(50.0966 12.8941 0)
(50.133 12.878 0)
(50.1719 12.8638 0)
(50.2158 12.8505 0)
(50.2501 12.8392 0)
(50.3065 12.8223 0)
(49.8244 12.8367 0)
(49.8786 13.0418 0)
(49.9322 13.0116 0)
(49.9661 12.9801 0)
(49.9858 12.9688 0)
(50.0008 12.9463 0)
(50.0177 12.9235 0)
(50.0412 12.9037 0)
(50.0721 12.8862 0)
(50.1086 12.8706 0)
(50.1488 12.8567 0)
(50.189 12.8437 0)
(50.232 12.8312 0)
(50.2645 12.8207 0)
(50.3192 12.8038 0)
(49.8224 12.8297 0)
(49.8722 13.0408 0)
(49.9217 13.0058 0)
(49.9502 12.974 0)
(49.9653 12.9616 0)
(49.9776 12.9382 0)
(49.9937 12.9154 0)
(50.0176 12.896 0)
(50.0491 12.8789 0)
(50.0861 12.8637 0)
(50.1257 12.8498 0)
(50.1663 12.8368 0)
(50.2051 12.8244 0)
(50.2457 12.8122 0)
(50.2755 12.8022 0)
(50.3287 12.7854 0)
(49.8205 12.8237 0)
(49.8658 13.0406 0)
(49.9113 13.0005 0)
(49.9344 12.9685 0)
(49.9454 12.9551 0)
(49.9555 12.9309 0)
(49.9713 12.9082 0)
(49.9957 12.8892 0)
(50.0278 12.8723 0)
(50.0649 12.8572 0)
(50.104 12.8433 0)
(50.1431 12.8301 0)
(50.1816 12.8174 0)
(50.2178 12.8052 0)
(50.2559 12.7933 0)
(50.2833 12.7837 0)
(50.3354 12.7672 0)
(49.8188 12.8187 0)
(49.8594 13.0411 0)
(49.9008 12.9957 0)
(49.9186 12.9638 0)
(49.926 12.9492 0)
(49.9345 12.9244 0)
(49.9502 12.9019 0)
(49.9753 12.8831 0)
(50.0079 12.8664 0)
(50.0447 12.8512 0)
(50.083 12.837 0)
(50.1209 12.8235 0)
(50.1575 12.8104 0)
(50.1933 12.7978 0)
(50.227 12.786 0)
(50.2632 12.7745 0)
(50.2888 12.7655 0)
(50.3401 12.7494 0)
(49.817 12.8146 0)
(49.8529 13.0421 0)
(49.8903 12.9913 0)
(49.903 12.9596 0)
(49.9072 12.944 0)
(49.9146 12.9187 0)
(49.9306 12.8964 0)
(49.9563 12.8778 0)
(49.9891 12.8611 0)
(50.0255 12.8458 0)
(50.0626 12.8312 0)
(50.099 12.8171 0)
(50.1342 12.8035 0)
(50.1682 12.7905 0)
(50.2017 12.7783 0)
(50.2336 12.767 0)
(50.2685 12.7561 0)
(50.2928 12.7479 0)
(50.3436 12.7322 0)
(49.8153 12.8114 0)
(49.8464 13.0436 0)
(49.8797 12.9874 0)
(49.8876 12.9561 0)
(49.8891 12.9395 0)
(49.8958 12.9138 0)
(49.9123 12.8918 0)
(49.9386 12.8733 0)
(49.9714 12.8565 0)
(50.0069 12.8408 0)
(50.0427 12.8257 0)
(50.0776 12.811 0)
(50.1112 12.7968 0)
(50.1438 12.7833 0)
(50.1758 12.7708 0)
(50.2077 12.7591 0)
(50.2384 12.7485 0)
(50.2725 12.7383 0)
(50.296 12.7309 0)
(50.3463 12.7157 0)
(49.8136 12.8088 0)
(49.8398 13.0456 0)
(49.869 12.9839 0)
(49.8724 12.9531 0)
(49.8717 12.9356 0)
(49.8782 12.9097 0)
(49.8952 12.888 0)
(49.922 12.8696 0)
(49.9545 12.8526 0)
(49.989 12.8364 0)
(50.0233 12.8207 0)
(50.0565 12.8052 0)
(50.0885 12.7904 0)
(50.1198 12.7764 0)
(50.1507 12.7633 0)
(50.1813 12.7513 0)
(50.2123 12.7404 0)
(50.2423 12.7307 0)
(50.2758 12.7213 0)
(50.2985 12.7146 0)
(50.3484 12.6999 0)
(49.8119 12.807 0)
(49.833 13.0479 0)
(49.8583 12.9807 0)
(49.8574 12.9508 0)
(49.8551 12.9324 0)
(49.8616 12.9064 0)
(49.8793 12.885 0)
(49.9063 12.8666 0)
(49.9383 12.8493 0)
(49.9716 12.8326 0)
(50.0042 12.816 0)
(50.0357 12.7999 0)
(50.0662 12.7843 0)
(50.0962 12.7696 0)
(50.126 12.7561 0)
(50.1559 12.7437 0)
(50.1858 12.7325 0)
(50.2161 12.7224 0)
(50.2455 12.7135 0)
(50.2785 12.7049 0)
(50.3006 12.699 0)
(50.35 12.6847 0)
(49.8101 12.8057 0)
(49.8261 13.0506 0)
(49.8476 12.9779 0)
(49.8428 12.9489 0)
(49.8392 12.9297 0)
(49.846 12.9038 0)
(49.8644 12.8827 0)
(49.8915 12.8643 0)
(49.9227 12.8466 0)
(49.9545 12.8292 0)
(49.9854 12.8119 0)
(50.0152 12.7949 0)
(50.0443 12.7786 0)
(50.073 12.7632 0)
(50.1018 12.7491 0)
(50.1308 12.7362 0)
(50.1601 12.7246 0)
(50.1895 12.7143 0)
(50.2194 12.7051 0)
(50.2482 12.697 0)
(50.2807 12.6892 0)
(50.3023 12.6841 0)
(50.3513 12.6702 0)
(49.8084 12.805 0)
(49.8191 13.0535 0)
(49.8369 12.9754 0)
(49.8285 12.9476 0)
(49.8242 12.9277 0)
(49.8315 12.9019 0)
(49.8505 12.8812 0)
(49.8774 12.8626 0)
(49.9076 12.8445 0)
(49.9378 12.8263 0)
(49.967 12.8082 0)
(49.9951 12.7904 0)
(50.0227 12.7733 0)
(50.0503 12.7572 0)
(50.0781 12.7424 0)
(50.1063 12.729 0)
(50.1348 12.717 0)
(50.1637 12.7063 0)
(50.1926 12.6968 0)
(50.2221 12.6885 0)
(50.2505 12.6812 0)
(50.2825 12.6742 0)
(50.3035 12.6699 0)
(50.3521 12.6564 0)
(49.8065 12.8049 0)
(49.812 13.0567 0)
(49.8262 12.9731 0)
(49.8147 12.9468 0)
(49.81 12.9262 0)
(49.8179 12.9008 0)
(49.8374 12.8803 0)
(49.864 12.8616 0)
(49.8929 12.8428 0)
(49.9214 12.824 0)
(49.9488 12.805 0)
(49.9753 12.7863 0)
(50.0015 12.7684 0)
(50.028 12.7516 0)
(50.0548 12.7361 0)
(50.0822 12.7221 0)
(50.1101 12.7095 0)
(50.1383 12.6983 0)
(50.1668 12.6886 0)
(50.1953 12.68 0)
(50.2244 12.6725 0)
(50.2523 12.6661 0)
(50.2839 12.6598 0)
(50.3044 12.6563 0)
(50.3525 12.6432 0)
(49.8046 12.8052 0)
(49.8047 13.06 0)
(49.8156 12.9711 0)
(49.8013 12.9464 0)
(49.7966 12.9253 0)
(49.8052 12.9002 0)
(49.825 12.88 0)
(49.8511 12.861 0)
(49.8786 12.8417 0)
(49.9053 12.8221 0)
(49.9309 12.8023 0)
(49.9558 12.7828 0)
(49.9807 12.764 0)
(50.006 12.7464 0)
(50.032 12.7302 0)
(50.0586 12.7155 0)
(50.0857 12.7023 0)
(50.1133 12.6906 0)
(50.1412 12.6804 0)
(50.1694 12.6715 0)
(50.1976 12.6639 0)
(50.2263 12.6572 0)
(50.2537 12.6516 0)
(50.2849 12.6461 0)
(50.3049 12.6433 0)
(50.3527 12.6306 0)
(49.8026 12.8059 0)
(49.7973 13.0635 0)
(49.8052 12.9693 0)
(49.7884 12.9466 0)
(49.784 12.9249 0)
(49.7933 12.9003 0)
(49.8134 12.8803 0)
(49.8386 12.861 0)
(49.8646 12.8411 0)
(49.8895 12.8207 0)
(49.9133 12.8 0)
(49.9366 12.7797 0)
(49.9602 12.7602 0)
(49.9844 12.7418 0)
(50.0095 12.7248 0)
(50.0353 12.7093 0)
(50.0617 12.6954 0)
(50.0887 12.6831 0)
(50.1161 12.6723 0)
(50.1438 12.663 0)
(50.1717 12.6551 0)
(50.1995 12.6483 0)
(50.2278 12.6426 0)
(50.2549 12.6378 0)
(50.2857 12.633 0)
(50.3052 12.6309 0)
(50.3525 12.6186 0)
(49.8005 12.807 0)
(49.7899 13.0671 0)
(49.7949 12.9678 0)
(49.7761 12.9471 0)
(49.7722 12.925 0)
(49.7823 12.9009 0)
(49.8023 12.8811 0)
(49.8266 12.8615 0)
(49.8509 12.841 0)
(49.8739 12.8198 0)
(49.8959 12.7983 0)
(49.9178 12.7772 0)
(49.9401 12.7568 0)
(49.9633 12.7376 0)
(49.9874 12.7198 0)
(50.0123 12.7035 0)
(50.0381 12.6889 0)
(50.0645 12.6759 0)
(50.0913 12.6645 0)
(50.1185 12.6547 0)
(50.146 12.6463 0)
(50.1736 12.6393 0)
(50.2011 12.6335 0)
(50.2291 12.6286 0)
(50.2558 12.6246 0)
(50.2862 12.6205 0)
(50.3053 12.6191 0)
(50.3522 12.6072 0)
(49.7983 12.8084 0)
(49.7823 13.0708 0)
(49.7848 12.9665 0)
(49.7643 12.9481 0)
(49.7612 12.9255 0)
(49.7719 12.902 0)
(49.7918 12.8823 0)
(49.8149 12.8623 0)
(49.8374 12.8412 0)
(49.8586 12.8193 0)
(49.8789 12.7971 0)
(49.8993 12.7752 0)
(49.9204 12.754 0)
(49.9424 12.734 0)
(49.9656 12.7153 0)
(49.9897 12.6982 0)
(50.0148 12.6827 0)
(50.0405 12.669 0)
(50.0668 12.6569 0)
(50.0936 12.6465 0)
(50.1207 12.6377 0)
(50.1479 12.6303 0)
(50.1752 12.6242 0)
(50.2025 12.6192 0)
(50.2301 12.6152 0)
(50.2565 12.612 0)
(50.2865 12.6086 0)
(50.3052 12.6079 0)
(50.3517 12.5963 0)
(49.796 12.8101 0)
(49.7747 13.0745 0)
(49.775 12.9654 0)
(49.7531 12.9495 0)
(49.751 12.9264 0)
(49.7622 12.9036 0)
(49.7818 12.8839 0)
(49.8035 12.8636 0)
(49.8243 12.8419 0)
(49.8436 12.8193 0)
(49.8623 12.7964 0)
(49.8812 12.7737 0)
(49.901 12.7517 0)
(49.922 12.7309 0)
(49.9441 12.7113 0)
(49.9674 12.6933 0)
(49.9917 12.677 0)
(50.0168 12.6624 0)
(50.0426 12.6496 0)
(50.0689 12.6385 0)
(50.0956 12.6291 0)
(50.1225 12.6213 0)
(50.1496 12.6149 0)
(50.1767 12.6097 0)
(50.2037 12.6056 0)
(50.231 12.6024 0)
(50.257 12.6 0)
(50.2867 12.5973 0)
(50.3049 12.5973 0)
(50.351 12.586 0)
(49.7935 12.812 0)
(49.767 13.0783 0)
(49.7654 12.9644 0)
(49.7424 12.9512 0)
(49.7415 12.9278 0)
(49.7531 12.9056 0)
(49.7722 12.8859 0)
(49.7925 12.8652 0)
(49.8114 12.843 0)
(49.8289 12.8198 0)
(49.846 12.7962 0)
(49.8635 12.7727 0)
(49.882 12.75 0)
(49.9019 12.7283 0)
(49.923 12.7079 0)
(49.9454 12.689 0)
(49.9689 12.6717 0)
(49.9934 12.6563 0)
(50.0186 12.6426 0)
(50.0445 12.6308 0)
(50.0708 12.6208 0)
(50.0974 12.6124 0)
(50.1242 12.6055 0)
(50.151 12.6001 0)
(50.178 12.5959 0)
(50.2047 12.5927 0)
(50.2317 12.5902 0)
(50.2574 12.5885 0)
(50.2867 12.5865 0)
(50.3046 12.5872 0)
(50.3502 12.5762 0)
(49.7909 12.8142 0)
(49.7593 13.0821 0)
(49.7561 12.9637 0)
(49.7324 12.9533 0)
(49.7326 12.9294 0)
(49.7446 12.908 0)
(49.7629 12.8883 0)
(49.7817 12.8672 0)
(49.7989 12.8445 0)
(49.8146 12.8207 0)
(49.83 12.7964 0)
(49.8461 12.7723 0)
(49.8634 12.7488 0)
(49.8821 12.7262 0)
(49.9022 12.7049 0)
(49.9237 12.6851 0)
(49.9464 12.6669 0)
(49.9702 12.6505 0)
(49.9949 12.636 0)
(50.0202 12.6234 0)
(50.0462 12.6126 0)
(50.0725 12.6036 0)
(50.099 12.5963 0)
(50.1257 12.5904 0)
(50.1524 12.5859 0)
(50.1791 12.5826 0)
(50.2056 12.5803 0)
(50.2323 12.5786 0)
(50.2576 12.5777 0)
(50.2866 12.5763 0)
(50.3041 12.5776 0)
(50.3493 12.5669 0)
(49.7882 12.8165 0)
(49.7516 13.0859 0)
(49.7471 12.9632 0)
(49.7229 12.9557 0)
(49.7244 12.9314 0)
(49.7365 12.9106 0)
(49.7541 12.8909 0)
(49.7713 12.8695 0)
(49.7866 12.8463 0)
(49.8006 12.8219 0)
(49.8145 12.7971 0)
(49.8292 12.7724 0)
(49.8452 12.7481 0)
(49.8627 12.7247 0)
(49.8817 12.7025 0)
(49.9022 12.6818 0)
(49.9241 12.6626 0)
(49.9472 12.6453 0)
(49.9713 12.6298 0)
(49.9962 12.6163 0)
(50.0217 12.6048 0)
(50.0477 12.5951 0)
(50.0741 12.5871 0)
(50.1006 12.5808 0)
(50.1271 12.5759 0)
(50.1537 12.5724 0)
(50.1802 12.57 0)
(50.2064 12.5684 0)
(50.2329 12.5676 0)
(50.2578 12.5673 0)
(50.2865 12.5666 0)
(50.3036 12.5685 0)
(50.3483 12.5581 0)
(49.7854 12.819 0)
(49.744 13.0896 0)
(49.7385 12.9628 0)
(49.714 12.9584 0)
(49.7168 12.9336 0)
(49.7289 12.9136 0)
(49.7455 12.8938 0)
(49.7611 12.8721 0)
(49.7746 12.8484 0)
(49.7869 12.8236 0)
(49.7993 12.7983 0)
(49.8126 12.7729 0)
(49.8273 12.748 0)
(49.8436 12.7238 0)
(49.8615 12.7007 0)
(49.8811 12.679 0)
(49.902 12.6588 0)
(49.9244 12.6405 0)
(49.9478 12.6241 0)
(49.9723 12.6097 0)
(49.9974 12.5972 0)
(50.0232 12.5867 0)
(50.0493 12.5781 0)
(50.0756 12.5712 0)
(50.102 12.5659 0)
(50.1285 12.5621 0)
(50.1548 12.5595 0)
(50.1811 12.5579 0)
(50.2071 12.5572 0)
(50.2333 12.5571 0)
(50.258 12.5575 0)
(50.2863 12.5574 0)
(50.303 12.5599 0)
(50.3473 12.5497 0)
(49.7824 12.8217 0)
(49.7364 13.0933 0)
(49.7302 12.9626 0)
(49.7056 12.9614 0)
(49.7097 12.936 0)
(49.7217 12.9168 0)
(49.7373 12.8968 0)
(49.7512 12.8749 0)
(49.763 12.8509 0)
(49.7736 12.8257 0)
(49.7845 12.7998 0)
(49.7964 12.7739 0)
(49.8098 12.7483 0)
(49.8249 12.7233 0)
(49.8417 12.6994 0)
(49.8601 12.6767 0)
(49.8802 12.6556 0)
(49.9018 12.6362 0)
(49.9246 12.6188 0)
(49.9485 12.6034 0)
(49.9732 12.59 0)
(49.9987 12.5787 0)
(50.0246 12.5693 0)
(50.0507 12.5618 0)
(50.0771 12.556 0)
(50.1034 12.5517 0)
(50.1298 12.5488 0)
(50.1559 12.5471 0)
(50.182 12.5464 0)
(50.2077 12.5465 0)
(50.2337 12.5471 0)
(50.258 12.5482 0)
(50.286 12.5487 0)
(50.3023 12.5518 0)
(50.3462 12.5418 0)
(49.7792 12.8244 0)
(49.7289 13.097 0)
(49.7223 12.9626 0)
(49.6979 12.9646 0)
(49.7032 12.9387 0)
(49.7148 12.9203 0)
(49.7293 12.9001 0)
(49.7416 12.8779 0)
(49.7516 12.8536 0)
(49.7607 12.8281 0)
(49.7702 12.8018 0)
(49.7807 12.7754 0)
(49.7927 12.7491 0)
(49.8065 12.7234 0)
(49.8221 12.6986 0)
(49.8395 12.675 0)
(49.8586 12.6529 0)
(49.8793 12.6325 0)
(49.9015 12.614 0)
(49.9248 12.5976 0)
(49.9492 12.5832 0)
(49.9743 12.571 0)
(49.9999 12.5608 0)
(50.026 12.5526 0)
(50.0522 12.5461 0)
(50.0785 12.5414 0)
(50.1048 12.5381 0)
(50.131 12.5361 0)
(50.157 12.5353 0)
(50.1829 12.5354 0)
(50.2084 12.5363 0)
(50.234 12.5376 0)
(50.258 12.5394 0)
(50.2857 12.5404 0)
(50.3016 12.5441 0)
(50.345 12.5344 0)
(49.7759 12.8272 0)
(49.7216 13.1006 0)
(49.7147 12.9627 0)
(49.6906 12.968 0)
(49.6971 12.9415 0)
(49.7083 12.9239 0)
(49.7216 12.9036 0)
(49.7322 12.8812 0)
(49.7406 12.8566 0)
(49.7482 12.8308 0)
(49.7562 12.8042 0)
(49.7653 12.7773 0)
(49.776 12.7505 0)
(49.7885 12.724 0)
(49.8029 12.6984 0)
(49.8192 12.6738 0)
(49.8373 12.6507 0)
(49.8571 12.6292 0)
(49.8785 12.6097 0)
(49.9013 12.5922 0)
(49.9252 12.5768 0)
(49.9499 12.5636 0)
(49.9754 12.5526 0)
(50.0013 12.5435 0)
(50.0274 12.5364 0)
(50.0537 12.5311 0)
(50.08 12.5274 0)
(50.1062 12.5251 0)
(50.1322 12.524 0)
(50.158 12.5241 0)
(50.1837 12.5249 0)
(50.2089 12.5265 0)
(50.2344 12.5286 0)
(50.2581 12.531 0)
(50.2853 12.5326 0)
(50.3009 12.5368 0)
(50.3438 12.5273 0)
(49.7725 12.8301 0)
(49.7143 13.1042 0)
(49.7076 12.963 0)
(49.6838 12.9716 0)
(49.6915 12.9445 0)
(49.7021 12.9276 0)
(49.7142 12.9071 0)
(49.7232 12.8846 0)
(49.73 12.8599 0)
(49.7361 12.8338 0)
(49.7427 12.8069 0)
(49.7504 12.7796 0)
(49.7598 12.7522 0)
(49.7709 12.7251 0)
(49.784 12.6987 0)
(49.7991 12.6732 0)
(49.8162 12.6491 0)
(49.8351 12.6266 0)
(49.8557 12.6059 0)
(49.8779 12.5873 0)
(49.9012 12.5709 0)
(49.9256 12.5567 0)
(49.9508 12.5446 0)
(49.9766 12.5347 0)
(50.0026 12.5269 0)
(50.0289 12.5209 0)
(50.0552 12.5167 0)
(50.0814 12.514 0)
(50.1075 12.5127 0)
(50.1334 12.5125 0)
(50.159 12.5133 0)
(50.1845 12.515 0)
(50.2095 12.5173 0)
(50.2347 12.52 0)
(50.258 12.5231 0)
(50.285 12.5252 0)
(50.3002 12.5299 0)
(50.3426 12.5206 0)
(49.7689 12.833 0)
(49.7072 13.1077 0)
(49.7007 12.9634 0)
(49.6776 12.9753 0)
(49.6862 12.9476 0)
(49.6962 12.9315 0)
(49.707 12.9108 0)
(49.7144 12.8882 0)
(49.7197 12.8633 0)
(49.7244 12.8371 0)
(49.7295 12.81 0)
(49.7359 12.7823 0)
(49.7439 12.7544 0)
(49.7537 12.7267 0)
(49.7655 12.6995 0)
(49.7794 12.6731 0)
(49.7954 12.648 0)
(49.8133 12.6245 0)
(49.8331 12.6027 0)
(49.8545 12.583 0)
(49.8774 12.5654 0)
(49.9014 12.5501 0)
(49.9263 12.5371 0)
(49.9519 12.5263 0)
(49.9779 12.5176 0)
(50.0041 12.5109 0)
(50.0304 12.506 0)
(50.0567 12.5029 0)
(50.0829 12.5012 0)
(50.1088 12.5008 0)
(50.1346 12.5015 0)
(50.16 12.5031 0)
(50.1853 12.5055 0)
(50.21 12.5085 0)
(50.235 12.5119 0)
(50.258 12.5156 0)
(50.2847 12.5182 0)
(50.2994 12.5235 0)
(50.3414 12.5143 0)
(49.7652 12.8359 0)
(49.7003 13.1111 0)
(49.6943 12.964 0)
(49.6717 12.9792 0)
(49.6813 12.9508 0)
(49.6905 12.9355 0)
(49.7001 12.9146 0)
(49.7059 12.892 0)
(49.7098 12.867 0)
(49.713 12.8407 0)
(49.7168 12.8134 0)
(49.7218 12.7854 0)
(49.7284 12.757 0)
(49.7369 12.7287 0)
(49.7474 12.7008 0)
(49.76 12.6736 0)
(49.7748 12.6476 0)
(49.7917 12.623 0)
(49.8106 12.6001 0)
(49.8313 12.5792 0)
(49.8536 12.5605 0)
(49.8772 12.5441 0)
(49.9018 12.5299 0)
(49.9272 12.5181 0)
(49.9531 12.5085 0)
(49.9793 12.5011 0)
(50.0057 12.4955 0)
(50.032 12.4918 0)
(50.0583 12.4897 0)
(50.0843 12.4889 0)
(50.1101 12.4894 0)
(50.1357 12.491 0)
(50.161 12.4934 0)
(50.186 12.4965 0)
(50.2106 12.5002 0)
(50.2352 12.5042 0)
(50.258 12.5085 0)
(50.2843 12.5116 0)
(50.2987 12.5174 0)
(50.3402 12.5084 0)
(49.7614 12.8388 0)
(49.6936 13.1144 0)
(49.6882 12.9647 0)
(49.6664 12.9832 0)
(49.6767 12.9541 0)
(49.6851 12.9396 0)
(49.6934 12.9185 0)
(49.6977 12.8959 0)
(49.7002 12.8709 0)
(49.7021 12.8445 0)
(49.7046 12.817 0)
(49.7082 12.7888 0)
(49.7134 12.7601 0)
(49.7205 12.7312 0)
(49.7296 12.7026 0)
(49.741 12.6746 0)
(49.7546 12.6476 0)
(49.7704 12.622 0)
(49.7884 12.598 0)
(49.8083 12.576 0)
(49.8299 12.5561 0)
(49.853 12.5385 0)
(49.8773 12.5232 0)
(49.9024 12.5103 0)
(49.9282 12.4998 0)
(49.9544 12.4914 0)
(49.9809 12.4852 0)
(50.0073 12.4808 0)
(50.0337 12.4782 0)
(50.0598 12.4771 0)
(50.0858 12.4773 0)
(50.1115 12.4786 0)
(50.1369 12.481 0)
(50.1619 12.4841 0)
(50.1868 12.4879 0)
(50.2111 12.4923 0)
(50.2355 12.4968 0)
(50.258 12.5017 0)
(50.284 12.5054 0)
(50.298 12.5116 0)
(50.339 12.5027 0)
(49.7574 12.8417 0)
(49.6871 13.1176 0)
(49.6825 12.9655 0)
(49.6614 12.9873 0)
(49.6725 12.9574 0)
(49.6799 12.9437 0)
(49.687 12.9224 0)
(49.6899 12.8999 0)
(49.691 12.8749 0)
(49.6916 12.8485 0)
(49.6927 12.821 0)
(49.695 12.7925 0)
(49.6988 12.7634 0)
(49.7045 12.7341 0)
(49.7122 12.7049 0)
(49.7223 12.6762 0)
(49.7346 12.6483 0)
(49.7493 12.6216 0)
(49.7663 12.5965 0)
(49.7854 12.5733 0)
(49.8063 12.5522 0)
(49.8288 12.5334 0)
(49.8527 12.517 0)
(49.8776 12.503 0)
(49.9033 12.4914 0)
(49.9295 12.4821 0)
(49.956 12.475 0)
(49.9825 12.4699 0)
(50.009 12.4667 0)
(50.0354 12.4651 0)
(50.0615 12.465 0)
(50.0873 12.4661 0)
(50.1128 12.4684 0)
(50.138 12.4715 0)
(50.1629 12.4753 0)
(50.1875 12.4798 0)
(50.2116 12.4847 0)
(50.2359 12.4899 0)
(50.258 12.4954 0)
(50.2837 12.4995 0)
(50.2973 12.5062 0)
(50.3378 12.4974 0)
(49.7532 12.8446 0)
(49.6809 13.1207 0)
(49.6771 12.9664 0)
(49.6568 12.9914 0)
(49.6684 12.9607 0)
(49.6749 12.9479 0)
(49.6808 12.9264 0)
(49.6823 12.9041 0)
(49.6822 12.8791 0)
(49.6815 12.8528 0)
(49.6813 12.8251 0)
(49.6822 12.7965 0)
(49.6846 12.7672 0)
(49.6889 12.7375 0)
(49.6953 12.7077 0)
(49.7039 12.6782 0)
(49.715 12.6495 0)
(49.7285 12.6218 0)
(49.7444 12.5957 0)
(49.7626 12.5713 0)
(49.7828 12.5489 0)
(49.8047 12.5289 0)
(49.8282 12.5112 0)
(49.8528 12.496 0)
(49.8783 12.4833 0)
(49.9045 12.473 0)
(49.931 12.465 0)
(49.9577 12.4592 0)
(49.9843 12.4553 0)
(50.0108 12.4532 0)
(50.0371 12.4527 0)
(50.0631 12.4535 0)
(50.0888 12.4555 0)
(50.1141 12.4585 0)
(50.1391 12.4624 0)
(50.1638 12.4669 0)
(50.1883 12.472 0)
(50.2122 12.4776 0)
(50.2362 12.4833 0)
(50.2581 12.4893 0)
(50.2834 12.494 0)
(50.2966 12.5011 0)
(50.3366 12.4924 0)
(49.749 12.8474 0)
(49.6749 13.1238 0)
(49.672 12.9675 0)
(49.6526 12.9956 0)
(49.6647 12.9641 0)
(49.6701 12.952 0)
(49.6748 12.9304 0)
(49.675 12.9083 0)
(49.6737 12.8834 0)
(49.6717 12.8571 0)
(49.6703 12.8295 0)
(49.6699 12.8008 0)
(49.6709 12.7712 0)
(49.6738 12.7412 0)
(49.6787 12.7109 0)
(49.686 12.6808 0)
(49.6958 12.6512 0)
(49.7081 12.6226 0)
(49.7228 12.5954 0)
(49.74 12.5698 0)
(49.7593 12.5463 0)
(49.7806 12.5249 0)
(49.8036 12.506 0)
(49.8279 12.4896 0)
(49.8532 12.4757 0)
(49.8793 12.4643 0)
(49.9059 12.4554 0)
(49.9327 12.4487 0)
(49.9595 12.4441 0)
(49.9862 12.4414 0)
(50.0127 12.4403 0)
(50.0389 12.4408 0)
(50.0648 12.4426 0)
(50.0903 12.4454 0)
(50.1154 12.4492 0)
(50.1403 12.4537 0)
(50.1648 12.4589 0)
(50.189 12.4646 0)
(50.2128 12.4708 0)
(50.2365 12.4771 0)
(50.2581 12.4836 0)
(50.2831 12.4887 0)
(50.2959 12.4964 0)
(50.3354 12.4877 0)
(49.7446 12.8502 0)
(49.6691 13.1268 0)
(49.6672 12.9686 0)
(49.6486 12.9998 0)
(49.6611 12.9674 0)
(49.6655 12.9562 0)
(49.6691 12.9344 0)
(49.668 12.9125 0)
(49.6655 12.8878 0)
(49.6624 12.8617 0)
(49.6597 12.8341 0)
(49.658 12.8053 0)
(49.6577 12.7756 0)
(49.6591 12.7452 0)
(49.6626 12.7145 0)
(49.6685 12.6838 0)
(49.6769 12.6535 0)
(49.6879 12.624 0)
(49.7015 12.5957 0)
(49.7176 12.569 0)
(49.736 12.5442 0)
(49.7566 12.5216 0)
(49.779 12.5013 0)
(49.8029 12.4836 0)
(49.828 12.4685 0)
(49.854 12.456 0)
(49.8806 12.446 0)
(49.9075 12.4384 0)
(49.9345 12.4329 0)
(49.9615 12.4296 0)
(49.9882 12.428 0)
(50.0146 12.428 0)
(50.0407 12.4295 0)
(50.0664 12.4321 0)
(50.0918 12.4358 0)
(50.1167 12.4403 0)
(50.1414 12.4455 0)
(50.1657 12.4513 0)
(50.1898 12.4576 0)
(50.2133 12.4643 0)
(50.2369 12.4711 0)
(50.2582 12.4783 0)
(50.2829 12.4838 0)
(50.2952 12.4919 0)
(50.3343 12.4832 0)
(49.7401 12.853 0)
(49.6637 13.1296 0)
(49.6628 12.9698 0)
(49.6451 13.004 0)
(49.6578 12.9708 0)
(49.6611 12.9604 0)
(49.6636 12.9384 0)
(49.6613 12.9169 0)
(49.6577 12.8923 0)
(49.6535 12.8663 0)
(49.6496 12.8388 0)
(49.6465 12.8101 0)
(49.6448 12.7802 0)
(49.6449 12.7496 0)
(49.6469 12.7185 0)
(49.6514 12.6872 0)
(49.6584 12.6562 0)
(49.668 12.6259 0)
(49.6804 12.5966 0)
(49.6954 12.5688 0)
(49.7129 12.5427 0)
(49.7326 12.5188 0)
(49.7544 12.4973 0)
(49.7779 12.4782 0)
(49.8027 12.4618 0)
(49.8286 12.4481 0)
(49.8552 12.437 0)
(49.8822 12.4283 0)
(49.9094 12.422 0)
(49.9366 12.4179 0)
(49.9636 12.4157 0)
(49.9903 12.4152 0)
(50.0166 12.4163 0)
(50.0426 12.4187 0)
(50.0681 12.4222 0)
(50.0933 12.4266 0)
(50.1181 12.4318 0)
(50.1425 12.4377 0)
(50.1667 12.4441 0)
(50.1906 12.4509 0)
(50.2139 12.4581 0)
(50.2373 12.4655 0)
(50.2583 12.4732 0)
(50.2827 12.4791 0)
(50.2946 12.4877 0)
(50.3331 12.479 0)
(49.7356 12.8557 0)
(49.6585 13.1324 0)
(49.6586 12.9711 0)
(49.6418 13.0082 0)
(49.6546 12.9741 0)
(49.6569 12.9645 0)
(49.6584 12.9425 0)
(49.6549 12.9212 0)
(49.6503 12.8968 0)
(49.6449 12.8711 0)
(49.6398 12.8437 0)
(49.6355 12.815 0)
(49.6325 12.7851 0)
(49.6311 12.7543 0)
(49.6317 12.7229 0)
(49.6347 12.6911 0)
(49.6403 12.6595 0)
(49.6486 12.6284 0)
(49.6596 12.5981 0)
(49.6734 12.5692 0)
(49.6899 12.5419 0)
(49.7088 12.5167 0)
(49.7298 12.4938 0)
(49.7528 12.4734 0)
(49.7773 12.4557 0)
(49.803 12.4406 0)
(49.8295 12.4283 0)
(49.8567 12.4186 0)
(49.884 12.4113 0)
(49.9115 12.4063 0)
(49.9388 12.4035 0)
(49.9658 12.4024 0)
(49.9924 12.4031 0)
(50.0187 12.4051 0)
(50.0445 12.4084 0)
(50.0698 12.4127 0)
(50.0948 12.4179 0)
(50.1194 12.4238 0)
(50.1436 12.4302 0)
(50.1676 12.4372 0)
(50.1914 12.4445 0)
(50.2145 12.4523 0)
(50.2377 12.4602 0)
(50.2585 12.4684 0)
(50.2825 12.4748 0)
(50.294 12.4838 0)
(50.332 12.4751 0)
(49.7309 12.8583 0)
(49.6536 13.1351 0)
(49.6546 12.9725 0)
(49.6387 13.0124 0)
(49.6516 12.9774 0)
(49.6528 12.9687 0)
(49.6533 12.9465 0)
(49.6488 12.9256 0)
(49.6431 12.9014 0)
(49.6367 12.8759 0)
(49.6304 12.8487 0)
(49.6249 12.8201 0)
(49.6205 12.7902 0)
(49.6178 12.7593 0)
(49.617 12.7276 0)
(49.6185 12.6955 0)
(49.6226 12.6632 0)
(49.6295 12.6314 0)
(49.6392 12.6002 0)
(49.6518 12.5702 0)
(49.6671 12.5418 0)
(49.685 12.5152 0)
(49.7053 12.491 0)
(49.7277 12.4692 0)
(49.7518 12.45 0)
(49.7772 12.4337 0)
(49.8037 12.4201 0)
(49.8309 12.4092 0)
(49.8585 12.4009 0)
(49.8861 12.395 0)
(49.9137 12.3913 0)
(49.9411 12.3897 0)
(49.9681 12.3898 0)
(49.9946 12.3915 0)
(50.0207 12.3945 0)
(50.0464 12.3986 0)
(50.0715 12.4037 0)
(50.0963 12.4096 0)
(50.1207 12.4161 0)
(50.1448 12.4231 0)
(50.1686 12.4306 0)
(50.1922 12.4384 0)
(50.2152 12.4467 0)
(50.2382 12.4551 0)
(50.2587 12.4638 0)
(50.2824 12.4707 0)
(50.2934 12.4801 0)
(50.3309 12.4713 0)
(49.7261 12.8609 0)
(49.6489 13.1377 0)
(49.6509 12.974 0)
(49.6359 13.0165 0)
(49.6487 12.9806 0)
(49.649 12.9727 0)
(49.6485 12.9505 0)
(49.643 12.93 0)
(49.6363 12.906 0)
(49.6288 12.8809 0)
(49.6215 12.8539 0)
(49.6147 12.8254 0)
(49.609 12.7955 0)
(49.6049 12.7645 0)
(49.6027 12.7326 0)
(49.6028 12.7002 0)
(49.6054 12.6674 0)
(49.6108 12.6349 0)
(49.6191 12.6029 0)
(49.6304 12.5718 0)
(49.6445 12.5422 0)
(49.6614 12.5144 0)
(49.6809 12.4888 0)
(49.7026 12.4656 0)
(49.7262 12.445 0)
(49.7513 12.4272 0)
(49.7777 12.4123 0)
(49.8049 12.4002 0)
(49.8326 12.3907 0)
(49.8606 12.3839 0)
(49.8885 12.3793 0)
(49.9162 12.377 0)
(49.9435 12.3765 0)
(49.9705 12.3777 0)
(49.9969 12.3804 0)
(50.0228 12.3844 0)
(50.0483 12.3893 0)
(50.0733 12.3952 0)
(50.0978 12.4017 0)
(50.122 12.4088 0)
(50.1459 12.4163 0)
(50.1695 12.4243 0)
(50.193 12.4326 0)
(50.2158 12.4414 0)
(50.2387 12.4503 0)
(50.2589 12.4596 0)
(50.2823 12.4668 0)
(50.2928 12.4767 0)
(50.3299 12.4677 0)
(49.7212 12.8633 0)
(49.6446 13.1402 0)
(49.6475 12.9755 0)
(49.6334 13.0205 0)
(49.646 12.9838 0)
(49.6453 12.9768 0)
(49.6439 12.9545 0)
(49.6374 12.9344 0)
(49.6299 12.9107 0)
(49.6213 12.8858 0)
(49.6129 12.8591 0)
(49.605 12.8308 0)
(49.598 12.801 0)
(49.5925 12.77 0)
(49.5889 12.738 0)
(49.5875 12.7052 0)
(49.5886 12.6721 0)
(49.5926 12.6389 0)
(49.5994 12.6061 0)
(49.6093 12.5741 0)
(49.6222 12.5434 0)
(49.638 12.5143 0)
(49.6565 12.4873 0)
(49.6774 12.4626 0)
(49.7005 12.4406 0)
(49.7253 12.4214 0)
(49.7515 12.405 0)
(49.7787 12.3916 0)
(49.8065 12.3809 0)
(49.8347 12.373 0)
(49.8629 12.3675 0)
(49.891 12.3644 0)
(49.9188 12.3633 0)
(49.9461 12.364 0)
(49.9729 12.3663 0)
(49.9992 12.3699 0)
(50.025 12.3747 0)
(50.0502 12.3805 0)
(50.075 12.387 0)
(50.0993 12.3942 0)
(50.1233 12.4018 0)
(50.147 12.4099 0)
(50.1704 12.4183 0)
(50.1938 12.4271 0)
(50.2165 12.4363 0)
(50.2393 12.4457 0)
(50.2592 12.4555 0)
(50.2823 12.4632 0)
(50.2923 12.4735 0)
(50.3289 12.4644 0)
(49.7162 12.8658 0)
(49.6406 13.1426 0)
(49.6442 12.9771 0)
(49.631 13.0245 0)
(49.6434 12.987 0)
(49.6417 12.9808 0)
(49.6395 12.9584 0)
(49.6321 12.9388 0)
(49.6237 12.9154 0)
(49.6142 12.8909 0)
(49.6047 12.8644 0)
(49.5956 12.8363 0)
(49.5874 12.8067 0)
(49.5806 12.7757 0)
(49.5756 12.7436 0)
(49.5727 12.7106 0)
(49.5723 12.6771 0)
(49.5747 12.6433 0)
(49.5801 12.6098 0)
(49.5886 12.5769 0)
(49.6002 12.5451 0)
(49.6148 12.5148 0)
(49.6322 12.4865 0)
(49.6523 12.4604 0)
(49.6747 12.4368 0)
(49.6991 12.4161 0)
(49.7251 12.3983 0)
(49.7522 12.3835 0)
(49.7801 12.3715 0)
(49.8085 12.3624 0)
(49.8371 12.3559 0)
(49.8656 12.3519 0)
(49.8937 12.3501 0)
(49.9215 12.3502 0)
(49.9488 12.352 0)
(49.9754 12.3553 0)
(50.0016 12.3599 0)
(50.0271 12.3655 0)
(50.0521 12.3721 0)
(50.0767 12.3793 0)
(50.1008 12.387 0)
(50.1245 12.3952 0)
(50.1481 12.4038 0)
(50.1714 12.4126 0)
(50.1946 12.4218 0)
(50.2173 12.4315 0)
(50.2398 12.4414 0)
(50.2595 12.4517 0)
(50.2823 12.4597 0)
(50.2918 12.4705 0)
(50.3279 12.4612 0)
(49.7112 12.8681 0)
(49.6369 13.1449 0)
(49.6411 12.9788 0)
(49.6289 13.0284 0)
(49.6409 12.9901 0)
(49.6384 12.9847 0)
(49.6354 12.9623 0)
(49.6271 12.9432 0)
(49.6178 12.9201 0)
(49.6074 12.8959 0)
(49.5969 12.8697 0)
(49.5867 12.8419 0)
(49.5773 12.8125 0)
(49.5691 12.7816 0)
(49.5627 12.7495 0)
(49.5584 12.7163 0)
(49.5565 12.6825 0)
(49.5574 12.6483 0)
(49.5613 12.6141 0)
(49.5682 12.5803 0)
(49.5784 12.5475 0)
(49.5918 12.516 0)
(49.6081 12.4863 0)
(49.6273 12.4588 0)
(49.649 12.4338 0)
(49.6728 12.4115 0)
(49.6985 12.3922 0)
(49.7255 12.3759 0)
(49.7535 12.3626 0)
(49.7821 12.3522 0)
(49.8109 12.3446 0)
(49.8398 12.3396 0)
(49.8684 12.337 0)
(49.8966 12.3364 0)
(49.9243 12.3377 0)
(49.9515 12.3406 0)
(49.978 12.3449 0)
(50.0039 12.3504 0)
(50.0292 12.3568 0)
(50.054 12.364 0)
(50.0783 12.3719 0)
(50.1022 12.3802 0)
(50.1258 12.3889 0)
(50.1492 12.3979 0)
(50.1724 12.4072 0)
(50.1955 12.4168 0)
(50.218 12.4269 0)
(50.2405 12.4373 0)
(50.2599 12.4481 0)
(50.2823 12.4565 0)
(50.2913 12.4677 0)
(50.327 12.4582 0)
(49.706 12.8704 0)
(49.6334 13.1471 0)
(49.6382 12.9805 0)
(49.6269 13.0322 0)
(49.6385 12.9932 0)
(49.6351 12.9885 0)
(49.6314 12.9662 0)
(49.6223 12.9475 0)
(49.6122 12.9247 0)
(49.6009 12.9009 0)
(49.5894 12.8751 0)
(49.5781 12.8475 0)
(49.5675 12.8183 0)
(49.5581 12.7876 0)
(49.5503 12.7555 0)
(49.5446 12.7223 0)
(49.5412 12.6882 0)
(49.5405 12.6536 0)
(49.5428 12.6188 0)
(49.5483 12.5843 0)
(49.557 12.5505 0)
(49.569 12.5179 0)
(49.5842 12.4869 0)
(49.6023 12.4579 0)
(49.6232 12.4314 0)
(49.6464 12.4076 0)
(49.6717 12.3867 0)
(49.6985 12.3688 0)
(49.7265 12.3541 0)
(49.7552 12.3423 0)
(49.7844 12.3335 0)
(49.8137 12.3275 0)
(49.8427 12.324 0)
(49.8715 12.3227 0)
(49.8997 12.3234 0)
(49.9273 12.3259 0)
(49.9543 12.3298 0)
(49.9806 12.3351 0)
(50.0063 12.3414 0)
(50.0314 12.3486 0)
(50.056 12.3564 0)
(50.08 12.3649 0)
(50.1037 12.3738 0)
(50.1271 12.3829 0)
(50.1503 12.3923 0)
(50.1733 12.402 0)
(50.1963 12.412 0)
(50.2188 12.4226 0)
(50.2411 12.4334 0)
(50.2603 12.4447 0)
(50.2824 12.4535 0)
(50.2909 12.4652 0)
(50.326 12.4554 0)
(49.7009 12.8726 0)
(49.6303 13.1492 0)
(49.6355 12.9822 0)
(49.6252 13.0359 0)
(49.6362 12.9962 0)
(49.6321 12.9923 0)
(49.6276 12.97 0)
(49.6177 12.9519 0)
(49.6069 12.9294 0)
(49.5947 12.906 0)
(49.5823 12.8804 0)
(49.5699 12.8533 0)
(49.5582 12.8243 0)
(49.5476 12.7938 0)
(49.5384 12.7618 0)
(49.5312 12.7286 0)
(49.5263 12.6943 0)
(49.5241 12.6594 0)
(49.5249 12.6241 0)
(49.5288 12.5889 0)
(49.536 12.5542 0)
(49.5466 12.5204 0)
(49.5605 12.4882 0)
(49.5775 12.4578 0)
(49.5974 12.4297 0)
(49.6199 12.4043 0)
(49.6447 12.3818 0)
(49.6712 12.3624 0)
(49.6992 12.3461 0)
(49.728 12.3329 0)
(49.7575 12.3228 0)
(49.7871 12.3156 0)
(49.8167 12.3111 0)
(49.8459 12.309 0)
(49.8747 12.3091 0)
(49.9028 12.311 0)
(49.9303 12.3146 0)
(49.9571 12.3195 0)
(49.9832 12.3257 0)
(50.0087 12.3328 0)
(50.0335 12.3407 0)
(50.0578 12.3492 0)
(50.0817 12.3582 0)
(50.1051 12.3676 0)
(50.1283 12.3772 0)
(50.1513 12.387 0)
(50.1743 12.397 0)
(50.1972 12.4074 0)
(50.2196 12.4184 0)
(50.2418 12.4297 0)
(50.2607 12.4416 0)