/*--------------------------------*- C++ -*----------------------------------*\
  =========                 |
  \\      /  F ield         | OpenFOAM: The Open Source CFD Toolbox
   \\    /   O peration     | Website:  https://openfoam.org
    \\  /    A nd           | Version:  7
     \\/     M anipulation  |
\*---------------------------------------------------------------------------*/
FoamFile
{
    version     2.0;
    format      ascii;
    class       volScalarField;
    location    "1200";
    object      yPlus;
}
// * * * * * * * * * * * * * * * * * * * * * * * * * * * * * * * * * * * * * //

dimensions      [0 0 0 0 0 0 0];

internalField   uniform 0;

boundaryField
{
    inlet-l
    {
        type            calculated;
        value           uniform 0;
    }
    airfoil-l1
    {
        type            calculated;
        value           nonuniform 0();
    }
    empty-1
    {
        type            empty;
    }
    empty-2
    {
        type            empty;
    }
    wall-l1
    {
        type            calculated;
        value           nonuniform List<scalar> 
67
(
135.219
135.077
134.732
134.44
134.201
133.972
133.731
133.492
133.259
133.032
132.809
132.589
132.38
132.173
131.966
131.761
131.568
131.376
131.182
130.992
130.813
130.636
130.455
130.284
130.118
129.953
129.794
129.63
129.476
129.327
129.177
129.036
128.892
128.756
128.614
128.483
128.355
128.228
128.105
127.986
127.868
127.753
127.642
127.532
127.427
127.322
127.22
127.121
127.024
126.931
126.84
126.749
126.663
126.578
126.495
126.416
126.337
126.261
126.19
126.111
126.043
125.975
125.91
125.849
125.786
125.728
125.671
)
;
    }
    airfoil-l2
    {
        type            calculated;
        value           nonuniform List<scalar> 
66
(
21.7986
22.0658
22.2901
22.4808
22.6447
22.786
22.913
23.0264
23.1245
23.2113
23.2871
23.3549
23.4191
23.4746
23.5243
23.569
23.6093
23.6456
23.6798
23.7106
23.7361
23.7626
23.7844
23.8052
23.8251
23.8406
23.8544
23.8679
23.8796
23.8875
23.8978
23.9045
23.9097
23.9138
23.9183
23.9245
23.9261
23.9217
23.9211
23.9244
23.9213
23.9196
23.9169
23.9103
23.903
23.8973
23.8903
23.8796
23.8677
23.8549
23.8427
23.8315
23.8161
23.7962
23.7741
23.7498
23.7224
23.6918
23.6586
23.6211
23.577
23.5232
23.4655
23.3778
23.3306
22.9906
)
;
    }
    empty-3
    {
        type            empty;
    }
    empty-4
    {
        type            empty;
    }
    wall-l2
    {
        type            calculated;
        value           nonuniform List<scalar> 
74
(
125.557
125.467
125.401
125.324
125.255
125.207
125.179
125.168
125.175
125.2
125.244
125.308
125.391
125.495
125.619
125.763
125.928
126.114
126.32
126.546
126.793
127.059
127.344
127.648
127.97
128.308
128.663
129.032
129.415
129.81
130.215
130.63
131.051
131.477
131.906
132.335
132.762
133.183
133.597
134
134.388
134.758
135.107
135.43
135.724
135.984
136.205
136.383
136.512
136.587
136.603
136.553
136.43
136.228
135.939
135.556
135.068
134.467
133.741
132.879
131.867
130.691
129.333
127.773
125.988
123.952
121.633
119
116.02
112.691
109.043
105.43
102.635
102.487
)
;
    }
    outlet-l
    {
        type            calculated;
        value           uniform 0;
    }
    empty-5
    {
        type            empty;
    }
    empty-6
    {
        type            empty;
    }
    outlet-h
    {
        type            calculated;
        value           nonuniform 0();
    }
    wall-h2
    {
        type            calculated;
        value           nonuniform 0();
    }
    empty-7
    {
        type            empty;
    }
    empty-8
    {
        type            empty;
    }
    airfoil-h2
    {
        type            calculated;
        value           nonuniform 0();
    }
    wall-h1
    {
        type            calculated;
        value           nonuniform 0();
    }
    empty-9
    {
        type            empty;
    }
    empty-10
    {
        type            empty;
    }
    inlet-h
    {
        type            calculated;
        value           nonuniform 0();
    }
    airfoil-h1
    {
        type            calculated;
        value           nonuniform 0();
    }
    empty-11
    {
        type            empty;
    }
    empty-12
    {
        type            empty;
    }
    procBoundary1to0
    {
        type            processor;
        value           uniform 0;
    }
    procBoundary1to2
    {
        type            processor;
        value           uniform 0;
    }
}


// ************************************************************************* //
