/*--------------------------------*- C++ -*----------------------------------*\
  =========                 |
  \\      /  F ield         | OpenFOAM: The Open Source CFD Toolbox
   \\    /   O peration     | Website:  https://openfoam.org
    \\  /    A nd           | Version:  7
     \\/     M anipulation  |
\*---------------------------------------------------------------------------*/
FoamFile
{
    version     2.0;
    format      ascii;
    class       volScalarField;
    location    "400";
    object      nut;
}
// * * * * * * * * * * * * * * * * * * * * * * * * * * * * * * * * * * * * * //

dimensions      [0 2 -1 0 0 0 0];

internalField   nonuniform List<scalar> 
23023
(
5.30698e-06
5.31091e-06
5.30882e-06
5.30425e-06
5.31343e-06
5.31063e-06
5.29613e-06
5.30691e-06
5.31595e-06
5.31242e-06
5.29889e-06
5.3096e-06
5.31848e-06
5.31418e-06
5.28736e-06
5.30171e-06
5.3123e-06
5.32101e-06
5.31591e-06
5.27383e-06
5.29012e-06
5.30456e-06
5.31503e-06
5.32353e-06
5.31761e-06
5.25936e-06
5.27638e-06
5.29295e-06
5.30746e-06
5.31777e-06
5.32604e-06
5.31928e-06
5.24642e-06
5.26149e-06
5.27901e-06
5.29584e-06
5.31039e-06
5.32052e-06
5.32854e-06
5.3209e-06
5.23941e-06
5.2479e-06
5.26372e-06
5.28173e-06
5.2988e-06
5.31336e-06
5.32328e-06
5.33103e-06
5.32249e-06
5.24445e-06
5.24e-06
5.24949e-06
5.26606e-06
5.28453e-06
5.30181e-06
5.31636e-06
5.32604e-06
5.3335e-06
5.32404e-06
5.24423e-06
5.24068e-06
5.25119e-06
5.26849e-06
5.28741e-06
5.30487e-06
5.31938e-06
5.32881e-06
5.33594e-06
5.32554e-06
5.25545e-06
5.244e-06
5.24145e-06
5.25301e-06
5.27103e-06
5.29037e-06
5.30799e-06
5.32243e-06
5.33158e-06
5.33836e-06
5.32699e-06
5.26258e-06
5.25566e-06
5.24376e-06
5.24233e-06
5.25493e-06
5.27367e-06
5.29341e-06
5.31116e-06
5.32551e-06
5.33434e-06
5.34076e-06
5.32839e-06
5.26502e-06
5.26345e-06
5.25581e-06
5.24354e-06
5.24331e-06
5.25697e-06
5.2764e-06
5.29652e-06
5.31437e-06
5.3286e-06
5.3371e-06
5.34312e-06
5.32974e-06
5.26409e-06
5.26627e-06
5.2643e-06
5.25589e-06
5.24335e-06
5.24441e-06
5.25913e-06
5.27923e-06
5.2997e-06
5.31763e-06
5.3317e-06
5.33984e-06
5.34545e-06
5.33104e-06
5.26543e-06
5.26755e-06
5.26511e-06
5.2559e-06
5.2432e-06
5.24563e-06
5.26141e-06
5.28216e-06
5.30295e-06
5.32092e-06
5.33482e-06
5.34257e-06
5.34774e-06
5.33228e-06
5.26293e-06
5.26682e-06
5.26884e-06
5.26588e-06
5.25584e-06
5.24313e-06
5.24698e-06
5.2638e-06
5.28518e-06
5.30627e-06
5.32426e-06
5.33795e-06
5.34528e-06
5.34999e-06
5.33346e-06
5.26241e-06
5.26407e-06
5.26828e-06
5.27015e-06
5.26661e-06
5.2557e-06
5.24314e-06
5.24846e-06
5.26631e-06
5.2883e-06
5.30965e-06
5.32763e-06
5.34107e-06
5.34797e-06
5.3522e-06
5.33459e-06
5.26284e-06
5.2653e-06
5.26978e-06
5.27145e-06
5.26729e-06
5.2555e-06
5.24329e-06
5.25007e-06
5.26894e-06
5.29151e-06
5.31309e-06
5.33102e-06
5.3442e-06
5.35064e-06
5.35436e-06
5.33564e-06
5.26878e-06
5.26339e-06
5.26663e-06
5.27134e-06
5.27275e-06
5.2679e-06
5.25522e-06
5.24357e-06
5.25182e-06
5.27168e-06
5.29481e-06
5.31659e-06
5.33445e-06
5.34733e-06
5.35328e-06
5.35646e-06
5.33664e-06
5.28668e-06
5.26823e-06
5.26408e-06
5.26804e-06
5.27293e-06
5.27404e-06
5.26845e-06
5.25489e-06
5.24399e-06
5.25371e-06
5.27454e-06
5.29819e-06
5.32015e-06
5.3379e-06
5.35045e-06
5.35588e-06
5.35852e-06
5.33757e-06
5.3047e-06
5.28569e-06
5.26783e-06
5.26489e-06
5.26955e-06
5.27457e-06
5.27532e-06
5.26893e-06
5.25449e-06
5.24456e-06
5.25574e-06
5.27752e-06
5.30166e-06
5.32375e-06
5.34136e-06
5.35356e-06
5.35845e-06
5.36052e-06
5.33843e-06
5.31831e-06
5.30462e-06
5.28459e-06
5.26755e-06
5.26582e-06
5.27115e-06
5.27625e-06
5.27657e-06
5.26933e-06
5.25404e-06
5.24527e-06
5.25792e-06
5.28061e-06
5.30521e-06
5.32741e-06
5.34484e-06
5.35665e-06
5.36099e-06
5.36246e-06
5.33921e-06
5.31907e-06
5.30443e-06
5.2834e-06
5.26741e-06
5.26689e-06
5.27282e-06
5.27795e-06
5.2778e-06
5.26964e-06
5.25355e-06
5.24613e-06
5.26023e-06
5.28382e-06
5.30884e-06
5.33111e-06
5.34834e-06
5.35973e-06
5.36348e-06
5.36433e-06
5.33993e-06
5.3283e-06
5.31975e-06
5.3041e-06
5.28213e-06
5.26739e-06
5.26808e-06
5.27458e-06
5.27967e-06
5.27899e-06
5.26987e-06
5.25304e-06
5.24713e-06
5.26269e-06
5.28713e-06
5.31254e-06
5.33485e-06
5.35184e-06
5.36278e-06
5.36593e-06
5.36614e-06
5.34058e-06
5.33152e-06
5.32973e-06
5.32033e-06
5.30363e-06
5.28081e-06
5.26751e-06
5.26939e-06
5.27641e-06
5.28141e-06
5.28013e-06
5.26999e-06
5.25251e-06
5.24829e-06
5.26529e-06
5.29056e-06
5.31632e-06
5.33862e-06
5.35534e-06
5.36581e-06
5.36832e-06
5.36789e-06
5.34114e-06
5.33352e-06
5.3311e-06
5.32081e-06
5.30303e-06
5.27948e-06
5.26778e-06
5.27082e-06
5.27831e-06
5.28316e-06
5.28122e-06
5.27002e-06
5.25199e-06
5.2496e-06
5.26803e-06
5.29408e-06
5.32016e-06
5.34243e-06
5.35884e-06
5.36881e-06
5.37067e-06
5.36956e-06
5.34164e-06
5.33123e-06
5.3355e-06
5.3324e-06
5.32119e-06
5.30228e-06
5.27818e-06
5.26819e-06
5.27238e-06
5.28027e-06
5.28491e-06
5.28225e-06
5.26994e-06
5.25151e-06
5.25106e-06
5.27091e-06
5.29772e-06
5.32407e-06
5.34627e-06
5.36234e-06
5.37177e-06
5.37296e-06
5.37116e-06
5.34205e-06
5.32425e-06
5.33353e-06
5.33745e-06
5.33363e-06
5.32146e-06
5.30138e-06
5.27695e-06
5.26876e-06
5.27405e-06
5.28229e-06
5.28666e-06
5.28321e-06
5.26976e-06
5.25108e-06
5.25269e-06
5.27393e-06
5.30145e-06
5.32805e-06
5.35013e-06
5.36583e-06
5.3747e-06
5.3752e-06
5.37268e-06
5.34238e-06
5.32652e-06
5.33584e-06
5.33937e-06
5.33479e-06
5.32162e-06
5.30034e-06
5.27584e-06
5.26949e-06
5.27583e-06
5.28437e-06
5.2884e-06
5.28409e-06
5.26947e-06
5.25073e-06
5.2545e-06
5.27709e-06
5.30528e-06
5.33208e-06
5.35401e-06
5.36931e-06
5.37759e-06
5.37737e-06
5.37412e-06
5.34264e-06
5.3171e-06
5.32884e-06
5.33815e-06
5.34125e-06
5.33586e-06
5.32165e-06
5.29915e-06
5.27494e-06
5.27039e-06
5.27773e-06
5.28649e-06
5.29012e-06
5.28489e-06
5.26907e-06
5.25051e-06
5.25647e-06
5.28039e-06
5.30921e-06
5.33616e-06
5.35791e-06
5.37277e-06
5.38043e-06
5.37948e-06
5.37548e-06
5.34281e-06
5.30858e-06
5.3191e-06
5.33119e-06
5.34047e-06
5.34308e-06
5.33684e-06
5.32155e-06
5.29783e-06
5.27423e-06
5.27145e-06
5.27973e-06
5.28865e-06
5.29181e-06
5.28559e-06
5.26858e-06
5.25044e-06
5.25862e-06
5.28381e-06
5.31322e-06
5.3403e-06
5.36182e-06
5.37621e-06
5.38323e-06
5.38153e-06
5.37676e-06
5.3429e-06
5.31005e-06
5.32114e-06
5.33358e-06
5.34279e-06
5.34487e-06
5.33773e-06
5.32132e-06
5.29637e-06
5.27373e-06
5.27267e-06
5.28183e-06
5.29085e-06
5.29347e-06
5.2862e-06
5.26799e-06
5.25057e-06
5.26095e-06
5.28737e-06
5.31733e-06
5.34448e-06
5.36574e-06
5.37963e-06
5.38597e-06
5.3835e-06
5.37795e-06
5.3429e-06
5.30478e-06
5.31157e-06
5.32324e-06
5.33601e-06
5.3451e-06
5.3466e-06
5.33853e-06
5.32095e-06
5.29481e-06
5.27343e-06
5.27406e-06
5.28403e-06
5.29308e-06
5.29509e-06
5.2867e-06
5.26731e-06
5.25093e-06
5.26346e-06
5.29106e-06
5.32151e-06
5.3487e-06
5.36966e-06
5.38302e-06
5.38866e-06
5.3854e-06
5.37905e-06
5.34282e-06
5.30474e-06
5.30576e-06
5.31314e-06
5.32539e-06
5.33846e-06
5.3474e-06
5.34827e-06
5.33922e-06
5.32043e-06
5.29315e-06
5.27332e-06
5.2756e-06
5.28633e-06
5.29532e-06
5.29665e-06
5.28708e-06
5.26655e-06
5.25151e-06
5.26615e-06
5.29488e-06
5.32578e-06
5.35296e-06
5.37358e-06
5.38637e-06
5.39129e-06
5.38722e-06
5.38005e-06
5.34265e-06
5.30538e-06
5.30677e-06
5.31476e-06
5.3276e-06
5.34095e-06
5.34969e-06
5.34988e-06
5.3398e-06
5.31976e-06
5.29142e-06
5.27341e-06
5.27731e-06
5.2887e-06
5.29758e-06
5.29815e-06
5.28734e-06
5.26573e-06
5.25232e-06
5.26901e-06
5.29882e-06
5.33012e-06
5.35725e-06
5.3775e-06
5.38969e-06
5.39385e-06
5.38897e-06
5.38097e-06
5.3424e-06
5.30979e-06
5.30601e-06
5.30781e-06
5.31643e-06
5.32986e-06
5.34346e-06
5.35196e-06
5.35141e-06
5.34027e-06
5.31893e-06
5.28966e-06
5.27369e-06
5.27916e-06
5.29116e-06
5.29984e-06
5.29959e-06
5.28747e-06
5.26486e-06
5.25337e-06
5.27205e-06
5.30288e-06
5.33454e-06
5.36157e-06
5.3814e-06
5.39296e-06
5.39635e-06
5.39063e-06
5.38179e-06
5.34205e-06
5.31669e-06
5.31034e-06
5.30664e-06
5.30888e-06
5.31816e-06
5.33218e-06
5.346e-06
5.3542e-06
5.35287e-06
5.34062e-06
5.31794e-06
5.2879e-06
5.27416e-06
5.28116e-06
5.29369e-06
5.3021e-06
5.30094e-06
5.28747e-06
5.26396e-06
5.25464e-06
5.27526e-06
5.30706e-06
5.33902e-06
5.36591e-06
5.38529e-06
5.39619e-06
5.39878e-06
5.39221e-06
5.38251e-06
5.34162e-06
5.32345e-06
5.31742e-06
5.31086e-06
5.30727e-06
5.30998e-06
5.31994e-06
5.33454e-06
5.34855e-06
5.35641e-06
5.35425e-06
5.34084e-06
5.31679e-06
5.28618e-06
5.27483e-06
5.2833e-06
5.29628e-06
5.30434e-06
5.30221e-06
5.28734e-06
5.26305e-06
5.25613e-06
5.27865e-06
5.31134e-06
5.34357e-06
5.37027e-06
5.38916e-06
5.39937e-06
5.40114e-06
5.39371e-06
5.38313e-06
5.3411e-06
5.32842e-06
5.32449e-06
5.31811e-06
5.31136e-06
5.3079e-06
5.31111e-06
5.32178e-06
5.33696e-06
5.35112e-06
5.35858e-06
5.35553e-06
5.34093e-06
5.31547e-06
5.28456e-06
5.27571e-06
5.28557e-06
5.29893e-06
5.30656e-06
5.30338e-06
5.28706e-06
5.26216e-06
5.25783e-06
5.2822e-06
5.31574e-06
5.34817e-06
5.37465e-06
5.39301e-06
5.4025e-06
5.40342e-06
5.39511e-06
5.38364e-06
5.34049e-06
5.33131e-06
5.32974e-06
5.32549e-06
5.31876e-06
5.31183e-06
5.30853e-06
5.31229e-06
5.32368e-06
5.33943e-06
5.35371e-06
5.36071e-06
5.35673e-06
5.34088e-06
5.314e-06
5.28311e-06
5.27678e-06
5.28798e-06
5.30163e-06
5.30875e-06
5.30445e-06
5.28665e-06
5.26133e-06
5.25976e-06
5.28591e-06
5.32024e-06
5.35283e-06
5.37904e-06
5.39683e-06
5.40557e-06
5.40563e-06
5.39642e-06
5.38406e-06
5.33978e-06
5.33293e-06
5.33282e-06
5.33103e-06
5.32645e-06
5.31937e-06
5.31227e-06
5.30917e-06
5.31351e-06
5.32564e-06
5.34194e-06
5.3563e-06
5.3628e-06
5.35782e-06
5.34069e-06
5.31236e-06
5.28186e-06
5.27806e-06
5.29051e-06
5.30437e-06
5.31091e-06
5.3054e-06
5.2861e-06
5.26058e-06
5.26191e-06
5.28978e-06
5.32485e-06
5.35753e-06
5.38343e-06
5.40062e-06
5.40858e-06
5.40774e-06
5.39764e-06
5.38437e-06
5.33899e-06
5.33453e-06
5.33431e-06
5.3323e-06
5.32738e-06
5.31994e-06
5.31268e-06
5.30982e-06
5.31477e-06
5.32766e-06
5.34451e-06
5.35889e-06
5.36483e-06
5.35881e-06
5.34035e-06
5.31058e-06
5.28089e-06
5.27955e-06
5.29316e-06
5.30715e-06
5.31301e-06
5.30623e-06
5.28541e-06
5.25995e-06
5.26428e-06
5.29381e-06
5.32955e-06
5.36228e-06
5.38781e-06
5.40437e-06
5.41152e-06
5.40978e-06
5.39876e-06
5.38456e-06
5.3381e-06
5.33593e-06
5.33611e-06
5.33579e-06
5.33355e-06
5.32826e-06
5.32047e-06
5.31308e-06
5.31047e-06
5.31608e-06
5.32975e-06
5.34711e-06
5.36149e-06
5.3668e-06
5.35969e-06
5.33985e-06
5.30867e-06
5.28021e-06
5.28123e-06
5.29592e-06
5.30995e-06
5.31506e-06
5.30693e-06
5.28459e-06
5.25949e-06
5.26687e-06
5.29799e-06
5.33433e-06
5.36707e-06
5.3922e-06
5.40808e-06
5.41439e-06
5.41172e-06
5.39978e-06
5.38465e-06
5.33712e-06
5.33765e-06
5.33756e-06
5.33769e-06
5.33725e-06
5.33476e-06
5.3291e-06
5.32095e-06
5.31344e-06
5.31115e-06
5.31744e-06
5.3319e-06
5.34976e-06
5.36407e-06
5.36871e-06
5.36045e-06
5.33919e-06
5.30663e-06
5.27982e-06
5.28312e-06
5.29879e-06
5.31276e-06
5.31703e-06
5.30749e-06
5.28364e-06
5.25924e-06
5.26968e-06
5.30232e-06
5.33921e-06
5.3719e-06
5.39657e-06
5.41174e-06
5.41719e-06
5.41357e-06
5.4007e-06
5.38463e-06
5.33605e-06
5.33935e-06
5.33919e-06
5.33925e-06
5.33869e-06
5.33594e-06
5.3299e-06
5.32139e-06
5.31379e-06
5.31184e-06
5.31886e-06
5.33411e-06
5.35245e-06
5.36665e-06
5.37054e-06
5.36109e-06
5.33835e-06
5.30451e-06
5.2797e-06
5.28519e-06
5.30175e-06
5.31559e-06
5.31893e-06
5.3079e-06
5.28259e-06
5.25924e-06
5.27271e-06
5.30679e-06
5.34417e-06
5.37675e-06
5.40093e-06
5.41535e-06
5.41992e-06
5.41533e-06
5.40151e-06
5.38449e-06
5.33489e-06
5.34148e-06
5.34104e-06
5.3408e-06
5.3408e-06
5.34011e-06
5.33708e-06
5.33065e-06
5.32179e-06
5.31413e-06
5.31256e-06
5.32033e-06
5.33639e-06
5.35518e-06
5.36921e-06
5.3723e-06
5.36161e-06
5.33735e-06
5.30232e-06
5.27986e-06
5.28745e-06
5.30481e-06
5.31841e-06
5.32075e-06
5.30815e-06
5.28143e-06
5.25957e-06
5.27596e-06
5.3114e-06
5.3492e-06
5.38162e-06
5.40527e-06
5.4189e-06
5.42256e-06
5.41698e-06
5.40222e-06
5.38424e-06
5.33364e-06
5.3436e-06
5.34328e-06
5.34272e-06
5.34241e-06
5.34234e-06
5.3415e-06
5.33819e-06
5.33135e-06
5.32214e-06
5.31444e-06
5.3133e-06
5.32187e-06
5.33873e-06
5.35794e-06
5.37174e-06
5.37398e-06
5.36198e-06
5.33617e-06
5.30009e-06
5.28027e-06
5.28989e-06
5.30794e-06
5.32121e-06
5.32246e-06
5.30825e-06
5.28018e-06
5.26022e-06
5.27943e-06
5.31615e-06
5.3543e-06
5.38651e-06
5.40958e-06
5.4224e-06
5.42512e-06
5.41854e-06
5.40282e-06
5.38387e-06
5.33229e-06
5.34534e-06
5.34554e-06
5.34507e-06
5.34439e-06
5.344e-06
5.34386e-06
5.34288e-06
5.33926e-06
5.332e-06
5.32245e-06
5.31474e-06
5.31407e-06
5.32346e-06
5.34114e-06
5.36073e-06
5.37425e-06
5.37556e-06
5.36222e-06
5.33481e-06
5.29787e-06
5.28094e-06
5.2925e-06
5.31115e-06
5.324e-06
5.32407e-06
5.30818e-06
5.27888e-06
5.26119e-06
5.28311e-06
5.32102e-06
5.35947e-06
5.39142e-06
5.41386e-06
5.42583e-06
5.42759e-06
5.41999e-06
5.40331e-06
5.38339e-06
5.33086e-06
5.34658e-06
5.34743e-06
5.34747e-06
5.34685e-06
5.34604e-06
5.34557e-06
5.34537e-06
5.34422e-06
5.34029e-06
5.3326e-06
5.32272e-06
5.31503e-06
5.31487e-06
5.32512e-06
5.34361e-06
5.36355e-06
5.37672e-06
5.37705e-06
5.36231e-06
5.33327e-06
5.2957e-06
5.28187e-06
5.29527e-06
5.31441e-06
5.32676e-06
5.32556e-06
5.30794e-06
5.27753e-06
5.2625e-06
5.287e-06
5.32602e-06
5.3647e-06
5.39633e-06
5.4181e-06
5.42919e-06
5.42996e-06
5.42133e-06
5.40369e-06
5.38278e-06
5.32935e-06
5.34732e-06
5.34882e-06
5.34952e-06
5.34939e-06
5.3486e-06
5.34767e-06
5.34713e-06
5.34686e-06
5.34554e-06
5.34127e-06
5.33315e-06
5.32295e-06
5.31531e-06
5.31571e-06
5.32685e-06
5.34615e-06
5.36638e-06
5.37915e-06
5.37844e-06
5.36225e-06
5.33155e-06
5.29364e-06
5.28304e-06
5.2982e-06
5.31773e-06
5.32947e-06
5.32692e-06
5.30752e-06
5.27617e-06
5.26412e-06
5.29109e-06
5.33113e-06
5.36998e-06
5.40124e-06
5.42231e-06
5.43248e-06
5.43225e-06
5.42257e-06
5.40396e-06
5.38205e-06
5.32775e-06
5.34755e-06
5.3497e-06
5.35106e-06
5.3516e-06
5.35129e-06
5.35034e-06
5.34929e-06
5.34868e-06
5.34832e-06
5.34683e-06
5.34221e-06
5.33365e-06
5.32314e-06
5.31559e-06
5.31659e-06
5.32864e-06
5.34874e-06
5.36924e-06
5.38154e-06
5.37971e-06
5.36203e-06
5.32966e-06
5.29173e-06
5.28447e-06
5.30127e-06
5.3211e-06
5.33213e-06
5.32815e-06
5.30693e-06
5.27482e-06
5.26604e-06
5.29538e-06
5.33636e-06
5.37531e-06
5.40615e-06
5.42647e-06
5.4357e-06
5.43443e-06
5.42369e-06
5.40411e-06
5.3812e-06
5.32608e-06
5.34727e-06
5.35007e-06
5.35208e-06
5.3533e-06
5.35367e-06
5.35318e-06
5.35206e-06
5.35088e-06
5.3502e-06
5.34977e-06
5.34808e-06
5.34311e-06
5.33409e-06
5.32328e-06
5.31587e-06
5.31751e-06
5.33051e-06
5.3514e-06
5.37211e-06
5.38387e-06
5.38088e-06
5.36164e-06
5.3276e-06
5.29006e-06
5.28614e-06
5.30449e-06
5.3245e-06
5.33472e-06
5.32923e-06
5.30617e-06
5.27353e-06
5.26826e-06
5.29985e-06
5.34169e-06
5.38068e-06
5.41105e-06
5.43058e-06
5.43883e-06
5.43651e-06
5.42469e-06
5.40414e-06
5.38022e-06
5.32434e-06
5.34639e-06
5.34991e-06
5.3526e-06
5.35447e-06
5.35553e-06
5.35573e-06
5.35505e-06
5.35376e-06
5.35246e-06
5.35171e-06
5.35119e-06
5.34931e-06
5.34395e-06
5.33448e-06
5.32339e-06
5.31615e-06
5.31848e-06
5.33245e-06
5.35412e-06
5.37499e-06
5.38615e-06
5.38192e-06
5.36109e-06
5.32539e-06
5.28866e-06
5.28806e-06
5.30783e-06
5.32792e-06
5.33725e-06
5.33015e-06
5.30524e-06
5.27234e-06
5.27077e-06
5.30451e-06
5.34713e-06
5.38609e-06
5.41594e-06
5.43463e-06
5.44187e-06
5.43848e-06
5.42558e-06
5.40406e-06
5.37912e-06
5.32254e-06
5.34485e-06
5.34916e-06
5.35258e-06
5.35514e-06
5.35687e-06
5.35776e-06
5.35777e-06
5.3569e-06
5.35543e-06
5.35401e-06
5.35319e-06
5.3526e-06
5.3505e-06
5.34475e-06
5.33482e-06
5.32347e-06
5.31643e-06
5.3195e-06
5.33446e-06
5.35689e-06
5.37787e-06
5.38835e-06
5.38284e-06
5.36035e-06
5.32303e-06
5.28763e-06
5.29021e-06
5.31129e-06
5.33135e-06
5.33968e-06
5.33091e-06
5.30414e-06
5.27128e-06
5.27357e-06
5.30935e-06
5.35265e-06
5.39153e-06
5.4208e-06
5.43862e-06
5.44483e-06
5.44035e-06
5.42635e-06
5.40385e-06
5.37788e-06
5.3207e-06
5.34259e-06
5.34772e-06
5.35196e-06
5.35528e-06
5.35769e-06
5.35926e-06
5.35997e-06
5.35979e-06
5.35872e-06
5.35708e-06
5.35554e-06
5.35466e-06
5.35397e-06
5.35165e-06
5.34549e-06
5.3351e-06
5.32351e-06
5.31673e-06
5.32058e-06
5.33655e-06
5.35972e-06
5.38075e-06
5.39049e-06
5.38362e-06
5.35943e-06
5.32054e-06
5.28698e-06
5.2926e-06
5.31486e-06
5.33479e-06
5.34203e-06
5.33149e-06
5.30289e-06
5.27041e-06
5.27664e-06
5.31436e-06
5.35827e-06
5.39699e-06
5.42564e-06
5.44255e-06
5.44769e-06
5.4421e-06
5.427e-06
5.40352e-06
5.37652e-06
5.31882e-06
5.33958e-06
5.34555e-06
5.35065e-06
5.3548e-06
5.35798e-06
5.36025e-06
5.36164e-06
5.36217e-06
5.36179e-06
5.36052e-06
5.35871e-06
5.35705e-06
5.3561e-06
5.35532e-06
5.35276e-06
5.34618e-06
5.33533e-06
5.32352e-06
5.31704e-06
5.32172e-06
5.33872e-06
5.3626e-06
5.38363e-06
5.39255e-06
5.38427e-06
5.35833e-06
5.31796e-06
5.2867e-06
5.29522e-06
5.31854e-06
5.33822e-06
5.34426e-06
5.33189e-06
5.30149e-06
5.26977e-06
5.27999e-06
5.31953e-06
5.36397e-06
5.40248e-06
5.43044e-06
5.4464e-06
5.45045e-06
5.44374e-06
5.42752e-06
5.40307e-06
5.37503e-06
5.31693e-06
5.33585e-06
5.34259e-06
5.34857e-06
5.35362e-06
5.35766e-06
5.3607e-06
5.3628e-06
5.36401e-06
5.36435e-06
5.36377e-06
5.36229e-06
5.3603e-06
5.35853e-06
5.35752e-06
5.35665e-06
5.35383e-06
5.34682e-06
5.3355e-06
5.3235e-06
5.31736e-06
5.32292e-06
5.34097e-06
5.36553e-06
5.38649e-06
5.39452e-06
5.38476e-06
5.35703e-06
5.3153e-06
5.28679e-06
5.29805e-06
5.32231e-06
5.34163e-06
5.34638e-06
5.3321e-06
5.29995e-06
5.26943e-06
5.28361e-06
5.32486e-06
5.36975e-06
5.40797e-06
5.43521e-06
5.45018e-06
5.45311e-06
5.44526e-06
5.42791e-06
5.40248e-06
5.37341e-06
5.31503e-06
5.33145e-06
5.33885e-06
5.34567e-06
5.35164e-06
5.35662e-06
5.36054e-06
5.36343e-06
5.36535e-06
5.36637e-06
5.36652e-06
5.36572e-06
5.36404e-06
5.36186e-06
5.35998e-06
5.35892e-06
5.35794e-06
5.35486e-06
5.3474e-06
5.33562e-06
5.32346e-06
5.31771e-06
5.32418e-06
5.34329e-06
5.36851e-06
5.38932e-06
5.3964e-06
5.38511e-06
5.35554e-06
5.31261e-06
5.28724e-06
5.30109e-06
5.32615e-06
5.34501e-06
5.34837e-06
5.33211e-06
5.2983e-06
5.26944e-06
5.28749e-06
5.33034e-06
5.37559e-06
5.41347e-06
5.43993e-06
5.45388e-06
5.45566e-06
5.44666e-06
5.42818e-06
5.40178e-06
5.37165e-06
5.31318e-06
5.3265e-06
5.3344e-06
5.34195e-06
5.34882e-06
5.35477e-06
5.35966e-06
5.36344e-06
5.36616e-06
5.36789e-06
5.36872e-06
5.36866e-06
5.36765e-06
5.36575e-06
5.3634e-06
5.36141e-06
5.36029e-06
5.35921e-06
5.35585e-06
5.34792e-06
5.33568e-06
5.32339e-06
5.31808e-06
5.32552e-06
5.3457e-06
5.37153e-06
5.39214e-06
5.39818e-06
5.38529e-06
5.35385e-06
5.30991e-06
5.28802e-06
5.30433e-06
5.33007e-06
5.34835e-06
5.35023e-06
5.33193e-06
5.29655e-06
5.26986e-06
5.29163e-06
5.33597e-06
5.3815e-06
5.41897e-06
5.44461e-06
5.45749e-06
5.45811e-06
5.44793e-06
5.42832e-06
5.40093e-06
5.36976e-06
5.31141e-06
5.32117e-06
5.32932e-06
5.33745e-06
5.34514e-06
5.35204e-06
5.35794e-06
5.36272e-06
5.36635e-06
5.36889e-06
5.37042e-06
5.37105e-06
5.37077e-06
5.36954e-06
5.36743e-06
5.3649e-06
5.36282e-06
5.36164e-06
5.36044e-06
5.35679e-06
5.34839e-06
5.3357e-06
5.3233e-06
5.31849e-06
5.32693e-06
5.34818e-06
5.37459e-06
5.39492e-06
5.39985e-06
5.38531e-06
5.35197e-06
5.30726e-06
5.28912e-06
5.30775e-06
5.33405e-06
5.35163e-06
5.35193e-06
5.33153e-06
5.29473e-06
5.27072e-06
5.29603e-06
5.34173e-06
5.38747e-06
5.42447e-06
5.44923e-06
5.46101e-06
5.46043e-06
5.44908e-06
5.42831e-06
5.39995e-06
5.36778e-06
5.30973e-06
5.31573e-06
5.32379e-06
5.33227e-06
5.34062e-06
5.34841e-06
5.35533e-06
5.36116e-06
5.36581e-06
5.36927e-06
5.37161e-06
5.37294e-06
5.37335e-06
5.37286e-06
5.3714e-06
5.36907e-06
5.36638e-06
5.36419e-06
5.36296e-06
5.36165e-06
5.35768e-06
5.3488e-06
5.33566e-06
5.3232e-06
5.31893e-06
5.32842e-06
5.35075e-06
5.37768e-06
5.39766e-06
5.40141e-06
5.38516e-06
5.34989e-06
5.3047e-06
5.29054e-06
5.31135e-06
5.33807e-06
5.35485e-06
5.35347e-06
5.33093e-06
5.29287e-06
5.27201e-06
5.30067e-06
5.34762e-06
5.39348e-06
5.42995e-06
5.45379e-06
5.46443e-06
5.46265e-06
5.45009e-06
5.42815e-06
5.39886e-06
5.36568e-06
5.30819e-06
5.31805e-06
5.32655e-06
5.33535e-06
5.34389e-06
5.35176e-06
5.35867e-06
5.36441e-06
5.36891e-06
5.37219e-06
5.37432e-06
5.37544e-06
5.37563e-06
5.37492e-06
5.37323e-06
5.37068e-06
5.36781e-06
5.36554e-06
5.36426e-06
5.36282e-06
5.35853e-06
5.34915e-06
5.33557e-06
5.32308e-06
5.31941e-06
5.32999e-06
5.35339e-06
5.38081e-06
5.40036e-06
5.40285e-06
5.38483e-06
5.34762e-06
5.30228e-06
5.29226e-06
5.31512e-06
5.34214e-06
5.35799e-06
5.35483e-06
5.33012e-06
5.29099e-06
5.27373e-06
5.30555e-06
5.35363e-06
5.39954e-06
5.43541e-06
5.45827e-06
5.46777e-06
5.46473e-06
5.45095e-06
5.42788e-06
5.39765e-06
5.36348e-06
5.30679e-06
5.31247e-06
5.32054e-06
5.32947e-06
5.33856e-06
5.34726e-06
5.35519e-06
5.36206e-06
5.36769e-06
5.37203e-06
5.37511e-06
5.37703e-06
5.37792e-06
5.37789e-06
5.37694e-06
5.37502e-06
5.37225e-06
5.36922e-06
5.36686e-06
5.36553e-06
5.36396e-06
5.35933e-06
5.34944e-06
5.33543e-06
5.32295e-06
5.31993e-06
5.33164e-06
5.35611e-06
5.38395e-06
5.403e-06
5.40416e-06
5.38431e-06
5.34518e-06
5.30008e-06
5.29429e-06
5.31903e-06
5.34622e-06
5.36105e-06
5.35602e-06
5.3291e-06
5.28915e-06
5.27585e-06
5.31065e-06
5.35976e-06
5.40563e-06
5.44085e-06
5.4627e-06
5.47099e-06
5.46667e-06
5.45168e-06
5.42748e-06
5.39633e-06
5.36118e-06
5.30556e-06
5.31458e-06
5.3232e-06
5.33253e-06
5.34188e-06
5.35073e-06
5.35869e-06
5.36549e-06
5.371e-06
5.37516e-06
5.37802e-06
5.37971e-06
5.38038e-06
5.38011e-06
5.37893e-06
5.37678e-06
5.37379e-06
5.37059e-06
5.36815e-06
5.36678e-06
5.36506e-06
5.36007e-06
5.34966e-06
5.33525e-06
5.32282e-06
5.32051e-06
5.33337e-06
5.3589e-06
5.38712e-06
5.40558e-06
5.40534e-06
5.3836e-06
5.34256e-06
5.29816e-06
5.2966e-06
5.32309e-06
5.35032e-06
5.364e-06
5.35701e-06
5.32788e-06
5.28737e-06
5.27837e-06
5.31597e-06
5.366e-06
5.41175e-06
5.44625e-06
5.46705e-06
5.47407e-06
5.46848e-06
5.45229e-06
5.42696e-06
5.39488e-06
5.35879e-06
5.30454e-06
5.30915e-06
5.31688e-06
5.32603e-06
5.33573e-06
5.34532e-06
5.35428e-06
5.36224e-06
5.36897e-06
5.37433e-06
5.37829e-06
5.38093e-06
5.38238e-06
5.38281e-06
5.38231e-06
5.38089e-06
5.3785e-06
5.37529e-06
5.37193e-06
5.36941e-06
5.36799e-06
5.36612e-06
5.36077e-06
5.34983e-06
5.33502e-06
5.32269e-06
5.32113e-06
5.33519e-06
5.36177e-06
5.3903e-06
5.4081e-06
5.40637e-06
5.38269e-06
5.33979e-06
5.29658e-06
5.2992e-06
5.32728e-06
5.35442e-06
5.36684e-06
5.3578e-06
5.32645e-06
5.28571e-06
5.28127e-06
5.32151e-06
5.37233e-06
5.41789e-06
5.45163e-06
5.47127e-06
5.47703e-06
5.47017e-06
5.45277e-06
5.42631e-06
5.39331e-06
5.35632e-06
5.30372e-06
5.31098e-06
5.31936e-06
5.32901e-06
5.33907e-06
5.34887e-06
5.35791e-06
5.36586e-06
5.37248e-06
5.37767e-06
5.38142e-06
5.38382e-06
5.38503e-06
5.38521e-06
5.38447e-06
5.38281e-06
5.38017e-06
5.37674e-06
5.37323e-06
5.37064e-06
5.36918e-06
5.36715e-06
5.36141e-06
5.34994e-06
5.33474e-06
5.32255e-06
5.32182e-06
5.33711e-06
5.36472e-06
5.39349e-06
5.41053e-06
5.40726e-06
5.38158e-06
5.33687e-06
5.29541e-06
5.30207e-06
5.33159e-06
5.35851e-06
5.36956e-06
5.35838e-06
5.32484e-06
5.28421e-06
5.28453e-06
5.32724e-06
5.37876e-06
5.42406e-06
5.45691e-06
5.47539e-06
5.47988e-06
5.47174e-06
5.45312e-06
5.42553e-06
5.39163e-06
5.35378e-06
5.30312e-06
5.313e-06
5.32202e-06
5.33215e-06
5.34253e-06
5.35252e-06
5.36162e-06
5.36953e-06
5.37602e-06
5.38102e-06
5.38454e-06
5.38669e-06
5.38765e-06
5.38757e-06
5.38659e-06
5.38469e-06
5.38181e-06
5.37816e-06
5.3745e-06
5.37185e-06
5.37034e-06
5.36814e-06
5.36199e-06
5.34998e-06
5.33443e-06
5.32243e-06
5.32257e-06
5.33911e-06
5.36773e-06
5.39669e-06
5.41289e-06
5.40799e-06
5.38026e-06
5.33385e-06
5.29472e-06
5.3052e-06
5.33601e-06
5.36258e-06
5.37214e-06
5.35873e-06
5.32305e-06
5.28293e-06
5.28814e-06
5.33316e-06
5.38529e-06
5.43019e-06
5.46211e-06
5.47942e-06
5.48262e-06
5.47317e-06
5.45334e-06
5.42462e-06
5.38982e-06
5.35117e-06
5.30274e-06
5.31521e-06
5.32486e-06
5.33545e-06
5.34613e-06
5.35626e-06
5.3654e-06
5.37324e-06
5.37958e-06
5.38438e-06
5.38765e-06
5.38955e-06
5.39024e-06
5.38991e-06
5.38868e-06
5.38653e-06
5.3834e-06
5.37954e-06
5.37573e-06
5.37302e-06
5.37147e-06
5.36908e-06
5.36252e-06
5.34996e-06
5.33407e-06
5.32232e-06
5.32339e-06
5.34121e-06
5.37081e-06
5.39988e-06
5.41516e-06
5.40856e-06
5.37874e-06
5.33074e-06
5.29449e-06
5.30859e-06
5.34052e-06
5.36661e-06
5.37457e-06
5.35886e-06
5.32109e-06
5.28193e-06
5.29208e-06
5.33929e-06
5.39185e-06
5.43627e-06
5.46727e-06
5.48335e-06
5.48523e-06
5.47446e-06
5.45341e-06
5.42358e-06
5.3879e-06
5.34852e-06
5.30258e-06
5.30922e-06
5.31763e-06
5.32788e-06
5.33889e-06
5.34984e-06
5.3601e-06
5.36925e-06
5.37699e-06
5.38316e-06
5.38773e-06
5.39075e-06
5.39237e-06
5.39279e-06
5.39221e-06
5.39072e-06
5.38832e-06
5.38495e-06
5.38087e-06
5.37692e-06
5.37417e-06
5.37258e-06
5.36999e-06
5.36299e-06
5.34988e-06
5.33368e-06
5.32222e-06
5.32427e-06
5.3434e-06
5.37395e-06
5.40305e-06
5.41733e-06
5.40896e-06
5.37699e-06
5.32757e-06
5.29474e-06
5.31222e-06
5.34511e-06
5.37059e-06
5.37684e-06
5.35876e-06
5.31898e-06
5.28126e-06
5.29639e-06
5.34555e-06
5.39843e-06
5.44235e-06
5.47235e-06
5.48718e-06
5.48771e-06
5.47562e-06
5.45336e-06
5.42241e-06
5.38587e-06
5.34583e-06
5.30262e-06
5.31107e-06
5.32024e-06
5.33107e-06
5.34248e-06
5.35367e-06
5.36403e-06
5.37315e-06
5.38077e-06
5.38676e-06
5.39108e-06
5.39383e-06
5.39517e-06
5.39532e-06
5.39447e-06
5.39273e-06
5.39007e-06
5.38646e-06
5.38216e-06
5.37808e-06
5.37528e-06
5.37365e-06
5.37085e-06
5.3634e-06
5.34975e-06
5.33326e-06
5.32215e-06
5.32524e-06
5.34569e-06
5.37715e-06
5.40621e-06
5.41939e-06
5.40917e-06
5.37504e-06
5.32439e-06
5.29544e-06
5.31608e-06
5.34978e-06
5.3745e-06
5.37893e-06
5.35841e-06
5.31676e-06
5.28102e-06
5.30098e-06
5.35191e-06
5.40506e-06
5.4484e-06
5.47734e-06
5.49089e-06
5.49006e-06
5.47665e-06
5.45316e-06
5.42111e-06
5.38372e-06
5.34313e-06
5.30284e-06
5.3061e-06
5.31313e-06
5.32305e-06
5.33443e-06
5.34622e-06
5.35761e-06
5.36804e-06
5.37711e-06
5.38459e-06
5.39036e-06
5.39443e-06
5.39689e-06
5.39794e-06
5.39781e-06
5.39668e-06
5.39469e-06
5.39178e-06
5.38792e-06
5.38341e-06
5.37921e-06
5.37637e-06
5.37469e-06
5.37167e-06
5.36375e-06
5.34955e-06
5.33281e-06
5.3221e-06
5.32628e-06
5.34807e-06
5.38041e-06
5.40935e-06
5.42134e-06
5.40921e-06
5.37287e-06
5.32123e-06
5.29656e-06
5.32015e-06
5.3545e-06
5.37835e-06
5.38083e-06
5.35783e-06
5.31441e-06
5.28123e-06
5.30583e-06
5.35842e-06
5.41172e-06
5.45441e-06
5.48225e-06
5.49448e-06
5.49228e-06
5.47753e-06
5.45283e-06
5.41968e-06
5.38146e-06
5.34043e-06
5.30325e-06
5.30745e-06
5.31541e-06
5.32605e-06
5.33795e-06
5.35008e-06
5.36165e-06
5.37211e-06
5.38111e-06
5.38842e-06
5.39396e-06
5.39775e-06
5.39993e-06
5.40068e-06
5.40025e-06
5.39886e-06
5.3966e-06
5.39344e-06
5.38933e-06
5.38462e-06
5.3803e-06
5.37743e-06
5.3757e-06
5.37245e-06
5.36404e-06
5.34929e-06
5.33233e-06
5.32208e-06
5.32742e-06
5.35056e-06
5.38373e-06
5.41245e-06
5.42316e-06
5.40905e-06
5.37049e-06
5.31814e-06
5.29808e-06
5.32442e-06
5.35926e-06
5.3821e-06
5.38255e-06
5.35698e-06
5.312e-06
5.28197e-06
5.31096e-06
5.36504e-06
5.4184e-06
5.46037e-06
5.48706e-06
5.49794e-06
5.49436e-06
5.47827e-06
5.45236e-06
5.41813e-06
5.3791e-06
5.33775e-06
5.30384e-06
5.30902e-06
5.3179e-06
5.32924e-06
5.34164e-06
5.35407e-06
5.36579e-06
5.37626e-06
5.38515e-06
5.39227e-06
5.39756e-06
5.40106e-06
5.40293e-06
5.40338e-06
5.40266e-06
5.40099e-06
5.39847e-06
5.39506e-06
5.3907e-06
5.38579e-06
5.38136e-06
5.37846e-06
5.37668e-06
5.37318e-06
5.36427e-06
5.34897e-06
5.33183e-06
5.3221e-06
5.32863e-06
5.35313e-06
5.38709e-06
5.41551e-06
5.42486e-06
5.4087e-06
5.3679e-06
5.31518e-06
5.29998e-06
5.32888e-06
5.36406e-06
5.38576e-06
5.38404e-06
5.35588e-06
5.3096e-06
5.28325e-06
5.31634e-06
5.37176e-06
5.42508e-06
5.46626e-06
5.49177e-06
5.50129e-06
5.4963e-06
5.47887e-06
5.45176e-06
5.41644e-06
5.37664e-06
5.33512e-06
5.30458e-06
5.31083e-06
5.3206e-06
5.33261e-06
5.34548e-06
5.35819e-06
5.37002e-06
5.38046e-06
5.38922e-06
5.39613e-06
5.40115e-06
5.40435e-06
5.4059e-06
5.40603e-06
5.40502e-06
5.40308e-06
5.4003e-06
5.39662e-06
5.39202e-06
5.38691e-06
5.38238e-06
5.37947e-06
5.37763e-06
5.37386e-06
5.36444e-06
5.3486e-06
5.33131e-06
5.32216e-06
5.32994e-06
5.35581e-06
5.39049e-06
5.41853e-06
5.42642e-06
5.40813e-06
5.36511e-06
5.3124e-06
5.30226e-06
5.33352e-06
5.36887e-06
5.3893e-06
5.38528e-06
5.35457e-06
5.30722e-06
5.28505e-06
5.32197e-06
5.37858e-06
5.43176e-06
5.4721e-06
5.49638e-06
5.5045e-06
5.4981e-06
5.47933e-06
5.45101e-06
5.41463e-06
5.37409e-06
5.33255e-06
5.30548e-06
5.31287e-06
5.32351e-06
5.33617e-06
5.34947e-06
5.36242e-06
5.37433e-06
5.38472e-06
5.39332e-06
5.39999e-06
5.40472e-06
5.40761e-06
5.40883e-06
5.40865e-06
5.40734e-06
5.40511e-06
5.40207e-06
5.39814e-06
5.39329e-06
5.38799e-06
5.38336e-06
5.38044e-06
5.37854e-06
5.37449e-06
5.36455e-06
5.34818e-06
5.33078e-06
5.32227e-06
5.33135e-06
5.35858e-06
5.39393e-06
5.42148e-06
5.42783e-06
5.40736e-06
5.36214e-06
5.30987e-06
5.30488e-06
5.33831e-06
5.3737e-06
5.39267e-06
5.38631e-06
5.35303e-06
5.3049e-06
5.28735e-06
5.32781e-06
5.38547e-06
5.43843e-06
5.47787e-06
5.50088e-06
5.50759e-06
5.49976e-06
5.47964e-06
5.45013e-06
5.4127e-06
5.37145e-06
5.33008e-06
5.30652e-06
5.31514e-06
5.32664e-06
5.33991e-06
5.3536e-06
5.36676e-06
5.37872e-06
5.38903e-06
5.39744e-06
5.40386e-06
5.40828e-06
5.41083e-06
5.41172e-06
5.41122e-06
5.4096e-06
5.4071e-06
5.40379e-06
5.3996e-06
5.39452e-06
5.38903e-06
5.38432e-06
5.38139e-06
5.37942e-06
5.37508e-06
5.36459e-06
5.3477e-06
5.33023e-06
5.32244e-06
5.33286e-06
5.36144e-06
5.3974e-06
5.42438e-06
5.42909e-06
5.40637e-06
5.35899e-06
5.30765e-06
5.30784e-06
5.34326e-06
5.37847e-06
5.39588e-06
5.38711e-06
5.35129e-06
5.30268e-06
5.29012e-06
5.33386e-06
5.39243e-06
5.44509e-06
5.48356e-06
5.50527e-06
5.51053e-06
5.50128e-06
5.47981e-06
5.44911e-06
5.41064e-06
5.36874e-06
5.32771e-06
5.30771e-06
5.31764e-06
5.32997e-06
5.34382e-06
5.35788e-06
5.37121e-06
5.38317e-06
5.39337e-06
5.40158e-06
5.40771e-06
5.41182e-06
5.41402e-06
5.41457e-06
5.41374e-06
5.41182e-06
5.40904e-06
5.40546e-06
5.40102e-06
5.39569e-06
5.39002e-06
5.38523e-06
5.38231e-06
5.38027e-06
5.37561e-06
5.36457e-06
5.34717e-06
5.32968e-06
5.32266e-06
5.33447e-06
5.3644e-06