/*--------------------------------*- C++ -*----------------------------------*\
  =========                 |
  \\      /  F ield         | OpenFOAM: The Open Source CFD Toolbox
   \\    /   O peration     | Website:  https://openfoam.org
    \\  /    A nd           | Version:  7
     \\/     M anipulation  |
\*---------------------------------------------------------------------------*/
FoamFile
{
    version     2.0;
    format      ascii;
    class       volScalarField;
    location    "400";
    object      nuTilda;
}
// * * * * * * * * * * * * * * * * * * * * * * * * * * * * * * * * * * * * * //

dimensions      [0 2 -1 0 0 0 0];

internalField   nonuniform List<scalar> 
23023
(
3.45057e-05
3.45118e-05
3.45092e-05
3.44988e-05
3.45164e-05
3.45126e-05
3.44832e-05
3.45037e-05
3.45211e-05
3.45159e-05
3.44882e-05
3.45086e-05
3.45258e-05
3.45193e-05
3.44665e-05
3.44934e-05
3.45136e-05
3.45305e-05
3.45225e-05
3.44413e-05
3.44715e-05
3.44986e-05
3.45187e-05
3.45352e-05
3.45257e-05
3.44147e-05
3.44458e-05
3.44766e-05
3.45039e-05
3.45237e-05
3.45399e-05
3.45289e-05
3.43919e-05
3.44185e-05
3.44506e-05
3.44819e-05
3.45093e-05
3.45288e-05
3.45446e-05
3.4532e-05
3.43813e-05
3.43944e-05
3.44225e-05
3.44555e-05
3.44873e-05
3.45148e-05
3.45339e-05
3.45492e-05
3.4535e-05
3.43939e-05
3.43821e-05
3.43971e-05
3.44266e-05
3.44605e-05
3.44928e-05
3.45203e-05
3.45391e-05
3.45538e-05
3.45379e-05
3.43935e-05
3.43831e-05
3.44e-05
3.44309e-05
3.44658e-05
3.44984e-05
3.45259e-05
3.45442e-05
3.45584e-05
3.45408e-05
3.44137e-05
3.4393e-05
3.43843e-05
3.44031e-05
3.44355e-05
3.44711e-05
3.45041e-05
3.45315e-05
3.45493e-05
3.4563e-05
3.45436e-05
3.44256e-05
3.44143e-05
3.43925e-05
3.43856e-05
3.44064e-05
3.44402e-05
3.44766e-05
3.45099e-05
3.45372e-05
3.45545e-05
3.45674e-05
3.45463e-05
3.44291e-05
3.44273e-05
3.44147e-05
3.4392e-05
3.43871e-05
3.441e-05
3.44451e-05
3.44823e-05
3.45157e-05
3.45429e-05
3.45596e-05
3.45719e-05
3.45489e-05
3.44269e-05
3.44314e-05
3.44289e-05
3.44151e-05
3.43915e-05
3.43889e-05
3.44137e-05
3.44501e-05
3.4488e-05
3.45217e-05
3.45486e-05
3.45647e-05
3.45763e-05
3.45514e-05
3.44293e-05
3.44338e-05
3.44306e-05
3.44153e-05
3.4391e-05
3.43908e-05
3.44177e-05
3.44554e-05
3.44939e-05
3.45278e-05
3.45544e-05
3.45698e-05
3.45806e-05
3.45538e-05
3.4425e-05
3.44318e-05
3.44362e-05
3.44321e-05
3.44153e-05
3.43906e-05
3.4393e-05
3.44219e-05
3.44608e-05
3.45e-05
3.45339e-05
3.45602e-05
3.45749e-05
3.45848e-05
3.45561e-05
3.44257e-05
3.44269e-05
3.44344e-05
3.44387e-05
3.44336e-05
3.44152e-05
3.43902e-05
3.43954e-05
3.44263e-05
3.44664e-05
3.45062e-05
3.45401e-05
3.45659e-05
3.45799e-05
3.4589e-05
3.45583e-05
3.44262e-05
3.4429e-05
3.44372e-05
3.44411e-05
3.44351e-05
3.4415e-05
3.439e-05
3.4398e-05
3.4431e-05
3.44722e-05
3.45124e-05
3.45463e-05
3.45717e-05
3.45849e-05
3.45931e-05
3.45603e-05
3.44407e-05
3.44269e-05
3.44313e-05
3.444e-05
3.44436e-05
3.44364e-05
3.44147e-05
3.439e-05
3.44009e-05
3.44358e-05
3.44782e-05
3.45188e-05
3.45526e-05
3.45775e-05
3.45898e-05
3.45971e-05
3.45623e-05
3.44758e-05
3.44391e-05
3.44278e-05
3.44337e-05
3.44429e-05
3.44461e-05
3.44376e-05
3.44142e-05
3.43903e-05
3.44041e-05
3.44409e-05
3.44843e-05
3.45253e-05
3.4559e-05
3.45833e-05
3.45947e-05
3.4601e-05
3.45641e-05
3.4508e-05
3.44742e-05
3.44379e-05
3.4429e-05
3.44364e-05
3.44459e-05
3.44486e-05
3.44387e-05
3.44135e-05
3.43908e-05
3.44075e-05
3.44462e-05
3.44906e-05
3.45319e-05
3.45654e-05
3.45891e-05
3.45995e-05
3.46048e-05
3.45659e-05
3.45319e-05
3.45081e-05
3.44723e-05
3.4437e-05
3.44305e-05
3.44392e-05
3.4449e-05
3.4451e-05
3.44396e-05
3.44128e-05
3.43917e-05
3.44112e-05
3.44517e-05
3.4497e-05
3.45386e-05
3.45718e-05
3.45949e-05
3.46043e-05
3.46085e-05
3.45675e-05
3.45335e-05
3.45079e-05
3.44702e-05
3.44363e-05
3.44321e-05
3.44421e-05
3.44522e-05
3.44534e-05
3.44404e-05
3.44119e-05
3.43929e-05
3.44152e-05
3.44574e-05
3.45036e-05
3.45454e-05
3.45782e-05
3.46006e-05
3.4609e-05
3.46121e-05
3.45689e-05
3.45492e-05
3.4535e-05
3.45076e-05
3.44679e-05
3.44359e-05
3.44341e-05
3.44453e-05
3.44554e-05
3.44557e-05
3.44411e-05
3.4411e-05
3.43943e-05
3.44194e-05
3.44634e-05
3.45103e-05
3.45522e-05
3.45847e-05
3.46063e-05
3.46136e-05
3.46156e-05
3.45703e-05
3.45538e-05
3.4552e-05
3.45362e-05
3.4507e-05
3.44655e-05
3.44357e-05
3.44362e-05
3.44485e-05
3.44586e-05
3.4458e-05
3.44416e-05
3.441e-05
3.4396e-05
3.44239e-05
3.44695e-05
3.45172e-05
3.45592e-05
3.45912e-05
3.46119e-05
3.46181e-05
3.46189e-05
3.45715e-05
3.45575e-05
3.45547e-05
3.45373e-05
3.45062e-05
3.44629e-05
3.44358e-05
3.44386e-05
3.44519e-05
3.44619e-05
3.44602e-05
3.44419e-05
3.44089e-05
3.4398e-05
3.44287e-05
3.44758e-05
3.45242e-05
3.45662e-05
3.45977e-05
3.46176e-05
3.46226e-05
3.46222e-05
3.45725e-05
3.45521e-05
3.45613e-05
3.45572e-05
3.45383e-05
3.4505e-05
3.44603e-05
3.44361e-05
3.44412e-05
3.44555e-05
3.44652e-05
3.44623e-05
3.4442e-05
3.44078e-05
3.44003e-05
3.44337e-05
3.44824e-05
3.45313e-05
3.45732e-05
3.46042e-05
3.46231e-05
3.46269e-05
3.46253e-05
3.45734e-05
3.45385e-05
3.45564e-05
3.4565e-05
3.45597e-05
3.4539e-05
3.45037e-05
3.44577e-05
3.44368e-05
3.44441e-05
3.44592e-05
3.44685e-05
3.44642e-05
3.44419e-05
3.44068e-05
3.44029e-05
3.4439e-05
3.44891e-05
3.45386e-05
3.45803e-05
3.46106e-05
3.46286e-05
3.46311e-05
3.46282e-05
3.45742e-05
3.45427e-05
3.45607e-05
3.45687e-05
3.4562e-05
3.45395e-05
3.4502e-05
3.44551e-05
3.44377e-05
3.44472e-05
3.44629e-05
3.44718e-05
3.44661e-05
3.44416e-05
3.44058e-05
3.44057e-05
3.44446e-05
3.4496e-05
3.45459e-05
3.45875e-05
3.46171e-05
3.4634e-05
3.46353e-05
3.46311e-05
3.45748e-05
3.45252e-05
3.45469e-05
3.4565e-05
3.45723e-05
3.45642e-05
3.45398e-05
3.45001e-05
3.44528e-05
3.44389e-05
3.44505e-05
3.44668e-05
3.44751e-05
3.44678e-05
3.44411e-05
3.44049e-05
3.4409e-05
3.44504e-05
3.45031e-05
3.45534e-05
3.45947e-05
3.46235e-05
3.46393e-05
3.46393e-05
3.46338e-05
3.45753e-05
3.45099e-05
3.45288e-05
3.45512e-05
3.45693e-05
3.45758e-05
3.45662e-05
3.45399e-05
3.44979e-05
3.44507e-05
3.44405e-05
3.4454e-05
3.44708e-05
3.44783e-05
3.44694e-05
3.44405e-05
3.44042e-05
3.44125e-05
3.44565e-05
3.45104e-05
3.4561e-05
3.46019e-05
3.46299e-05
3.46446e-05
3.46432e-05
3.46363e-05
3.45757e-05
3.45126e-05
3.45325e-05
3.45556e-05
3.45737e-05
3.45792e-05
3.45681e-05
3.45398e-05
3.44954e-05
3.44491e-05
3.44423e-05
3.44577e-05
3.44749e-05
3.44815e-05
3.44708e-05
3.44396e-05
3.44038e-05
3.44164e-05
3.44628e-05
3.45178e-05
3.45686e-05
3.46091e-05
3.46363e-05
3.46498e-05
3.4647e-05
3.46387e-05
3.45758e-05
3.45038e-05
3.45153e-05
3.45363e-05
3.45601e-05
3.4578e-05
3.45826e-05
3.45698e-05
3.45394e-05
3.44927e-05
3.44479e-05
3.44445e-05
3.44616e-05
3.4479e-05
3.44847e-05
3.4472e-05
3.44385e-05
3.44037e-05
3.44206e-05
3.44694e-05
3.45254e-05
3.45764e-05
3.46163e-05
3.46426e-05
3.46548e-05
3.46507e-05
3.46409e-05
3.45759e-05
3.45048e-05
3.45055e-05
3.45181e-05
3.45401e-05
3.45646e-05
3.45823e-05
3.45858e-05
3.45713e-05
3.45387e-05
3.44897e-05
3.44471e-05
3.4447e-05
3.44656e-05
3.44832e-05
3.44878e-05
3.4473e-05
3.44372e-05
3.44039e-05
3.44251e-05
3.44762e-05
3.45332e-05
3.45842e-05
3.46236e-05
3.46489e-05
3.46598e-05
3.46542e-05
3.46429e-05
3.45757e-05
3.45059e-05
3.45073e-05
3.4521e-05
3.45441e-05
3.45692e-05
3.45866e-05
3.4589e-05
3.45726e-05
3.45378e-05
3.44866e-05
3.44467e-05
3.44498e-05
3.44699e-05
3.44874e-05
3.44907e-05
3.44738e-05
3.44358e-05
3.44047e-05
3.443e-05
3.44832e-05
3.45411e-05
3.4592e-05
3.46308e-05
3.46551e-05
3.46647e-05
3.46576e-05
3.46448e-05
3.45754e-05
3.45148e-05
3.4507e-05
3.45091e-05
3.45239e-05
3.45482e-05
3.45738e-05
3.45909e-05
3.4592e-05
3.45737e-05
3.45365e-05
3.44833e-05
3.44467e-05
3.44529e-05
3.44743e-05
3.44916e-05
3.44936e-05
3.44744e-05
3.44343e-05
3.44059e-05
3.44352e-05
3.44905e-05
3.45491e-05
3.46e-05
3.46381e-05
3.46612e-05
3.46694e-05
3.46608e-05
3.46465e-05
3.4575e-05
3.45278e-05
3.45159e-05
3.45082e-05
3.4511e-05
3.4527e-05
3.45524e-05
3.45785e-05
3.45952e-05
3.45949e-05
3.45746e-05
3.4535e-05
3.44799e-05
3.4447e-05
3.44562e-05
3.44789e-05
3.44959e-05
3.44963e-05
3.44747e-05
3.44326e-05
3.44076e-05
3.44407e-05
3.4498e-05
3.45573e-05
3.4608e-05
3.46453e-05
3.46672e-05
3.4674e-05
3.46639e-05
3.4648e-05
3.45744e-05
3.45401e-05
3.45292e-05
3.45168e-05
3.45093e-05
3.4513e-05
3.45302e-05
3.45567e-05
3.45832e-05
3.45993e-05
3.45976e-05
3.45753e-05
3.45332e-05
3.44764e-05
3.44477e-05
3.44599e-05
3.44836e-05
3.45001e-05
3.44989e-05
3.44748e-05
3.44308e-05
3.44097e-05
3.44466e-05
3.45057e-05
3.45656e-05
3.4616e-05
3.46525e-05
3.46732e-05
3.46785e-05
3.46668e-05
3.46494e-05
3.45736e-05
3.45489e-05
3.45421e-05
3.45306e-05
3.45178e-05
3.45104e-05
3.45149e-05
3.45335e-05
3.45611e-05
3.4588e-05
3.46035e-05
3.46002e-05
3.45757e-05
3.45311e-05
3.4473e-05
3.44487e-05
3.44638e-05
3.44884e-05
3.45043e-05
3.45014e-05
3.44746e-05
3.44291e-05
3.44123e-05
3.44528e-05
3.45137e-05
3.4574e-05
3.4624e-05
3.46596e-05
3.46791e-05
3.46829e-05
3.46696e-05
3.46506e-05
3.45726e-05
3.45539e-05
3.45514e-05
3.4544e-05
3.45318e-05
3.45187e-05
3.45115e-05
3.4517e-05
3.45368e-05
3.45656e-05
3.45928e-05
3.46075e-05
3.46026e-05
3.45759e-05
3.45287e-05
3.44697e-05
3.44502e-05
3.4468e-05
3.44934e-05
3.45085e-05
3.45036e-05
3.44742e-05
3.44273e-05
3.44152e-05
3.44593e-05
3.45218e-05
3.45825e-05
3.46321e-05
3.46667e-05
3.46848e-05
3.46871e-05
3.46722e-05
3.46516e-05
3.45715e-05
3.45567e-05
3.45567e-05
3.45538e-05
3.45459e-05
3.4533e-05
3.45195e-05
3.45126e-05
3.45191e-05
3.45403e-05
3.45702e-05
3.45976e-05
3.46115e-05
3.46049e-05
3.45758e-05
3.4526e-05
3.44666e-05
3.4452e-05
3.44724e-05
3.44984e-05
3.45126e-05
3.45057e-05
3.44735e-05
3.44255e-05
3.44186e-05
3.44662e-05
3.45301e-05
3.45911e-05
3.46402e-05
3.46738e-05
3.46905e-05
3.46912e-05
3.46746e-05
3.46524e-05
3.45702e-05
3.45596e-05
3.45595e-05
3.45562e-05
3.45476e-05
3.45341e-05
3.45202e-05
3.45137e-05
3.45213e-05
3.4544e-05
3.45748e-05
3.46024e-05
3.46154e-05
3.46069e-05
3.45755e-05
3.45229e-05
3.44639e-05
3.44542e-05
3.44771e-05
3.45035e-05
3.45167e-05
3.45076e-05
3.44726e-05
3.44239e-05
3.44224e-05
3.44733e-05
3.45386e-05
3.45998e-05
3.46483e-05
3.46807e-05
3.46961e-05
3.46951e-05
3.46769e-05
3.4653e-05
3.45688e-05
3.45622e-05
3.45626e-05
3.45623e-05
3.45586e-05
3.45494e-05
3.45351e-05
3.4521e-05
3.45149e-05
3.45236e-05
3.45477e-05
3.45796e-05
3.46073e-05
3.46192e-05
3.46088e-05
3.45749e-05
3.45196e-05
3.44617e-05
3.44569e-05
3.4482e-05
3.45087e-05
3.45207e-05
3.45092e-05
3.44713e-05
3.44225e-05
3.44266e-05
3.44807e-05
3.45473e-05
3.46085e-05
3.46564e-05
3.46877e-05
3.47015e-05
3.46989e-05
3.4679e-05
3.46534e-05
3.45672e-05
3.45653e-05
3.45652e-05
3.45655e-05
3.4565e-05
3.45609e-05
3.4551e-05
3.45361e-05
3.45216e-05
3.4516e-05
3.4526e-05
3.45515e-05
3.45844e-05
3.46121e-05
3.46229e-05
3.46105e-05
3.4574e-05
3.45161e-05
3.446e-05
3.44598e-05
3.44871e-05
3.4514e-05
3.45245e-05
3.45106e-05
3.44699e-05
3.44213e-05
3.44313e-05
3.44884e-05
3.45561e-05
3.46174e-05
3.46645e-05
3.46945e-05
3.47068e-05
3.47025e-05
3.46809e-05
3.46536e-05
3.45654e-05
3.45685e-05
3.45682e-05
3.45684e-05
3.45677e-05
3.45632e-05
3.45525e-05
3.4537e-05
3.45223e-05
3.45172e-05
3.45285e-05
3.45555e-05
3.45894e-05
3.46169e-05
3.46265e-05
3.46119e-05
3.45729e-05
3.45122e-05
3.44589e-05
3.44632e-05
3.44924e-05
3.45192e-05
3.45283e-05
3.45117e-05
3.44682e-05
3.44204e-05
3.44363e-05
3.44963e-05
3.45651e-05
3.46263e-05
3.46726e-05
3.47012e-05
3.4712e-05
3.47059e-05
3.46826e-05
3.46536e-05
3.45634e-05
3.45723e-05
3.45716e-05
3.45712e-05
3.45713e-05
3.45704e-05
3.45653e-05
3.4554e-05
3.45377e-05
3.45229e-05
3.45185e-05
3.45311e-05
3.45596e-05
3.45943e-05
3.46217e-05
3.46299e-05
3.46131e-05
3.45714e-05
3.45082e-05
3.44584e-05
3.4467e-05
3.44979e-05
3.45245e-05
3.45319e-05
3.45126e-05
3.44662e-05
3.442e-05
3.44418e-05
3.45046e-05
3.45743e-05
3.46352e-05
3.46806e-05
3.47079e-05
3.4717e-05
3.47092e-05
3.46842e-05
3.46533e-05
3.45613e-05
3.45761e-05
3.45757e-05
3.45748e-05
3.45742e-05
3.45742e-05
3.4573e-05
3.45675e-05
3.45554e-05
3.45384e-05
3.45234e-05
3.45197e-05
3.45337e-05
3.45638e-05
3.45994e-05
3.46265e-05
3.46332e-05
3.46141e-05
3.45695e-05
3.45041e-05
3.44584e-05
3.44711e-05
3.45036e-05
3.45298e-05
3.45354e-05
3.45132e-05
3.44641e-05
3.44201e-05
3.44477e-05
3.45131e-05
3.45836e-05
3.46442e-05
3.46886e-05
3.47145e-05
3.47219e-05
3.47122e-05
3.46855e-05
3.46529e-05
3.4559e-05
3.45791e-05
3.45797e-05
3.4579e-05
3.45779e-05
3.45772e-05
3.45771e-05
3.45756e-05
3.45695e-05
3.45567e-05
3.45391e-05
3.4524e-05
3.4521e-05
3.45365e-05
3.45681e-05
3.46045e-05
3.46312e-05
3.46364e-05
3.46149e-05
3.45674e-05
3.44998e-05
3.44589e-05
3.44755e-05
3.45094e-05
3.45351e-05
3.45386e-05
3.45135e-05
3.44618e-05
3.44209e-05
3.4454e-05
3.45218e-05
3.4593e-05
3.46532e-05
3.46965e-05
3.47209e-05
3.47266e-05
3.47151e-05
3.46867e-05
3.46523e-05
3.45566e-05
3.45811e-05
3.4583e-05
3.45833e-05
3.45824e-05
3.4581e-05
3.45801e-05
3.45799e-05
3.45781e-05
3.45715e-05
3.45578e-05
3.45396e-05
3.45244e-05
3.45224e-05
3.45394e-05
3.45725e-05
3.46097e-05
3.46359e-05
3.46393e-05
3.46154e-05
3.45649e-05
3.44955e-05
3.44599e-05
3.44803e-05
3.45153e-05
3.45403e-05
3.45417e-05
3.45135e-05
3.44593e-05
3.44223e-05
3.44607e-05
3.45308e-05
3.46025e-05
3.46623e-05
3.47044e-05
3.47272e-05
3.47312e-05
3.47178e-05
3.46876e-05
3.46514e-05
3.45539e-05
3.45822e-05
3.45853e-05
3.45869e-05
3.45869e-05
3.45856e-05
3.4584e-05
3.45831e-05
3.45827e-05
3.45806e-05
3.45734e-05
3.45589e-05
3.45401e-05
3.45249e-05
3.45238e-05
3.45425e-05
3.45771e-05
3.46149e-05
3.46405e-05
3.46421e-05
3.46156e-05
3.45621e-05
3.44912e-05
3.44614e-05
3.44853e-05
3.45214e-05
3.45454e-05
3.45446e-05
3.45131e-05
3.44567e-05
3.44243e-05
3.44677e-05
3.454e-05
3.46122e-05
3.46713e-05
3.47122e-05
3.47334e-05
3.47355e-05
3.47203e-05
3.46883e-05
3.46504e-05
3.45512e-05
3.45824e-05
3.45867e-05
3.45895e-05
3.45908e-05
3.45905e-05
3.45889e-05
3.4587e-05
3.45859e-05
3.45854e-05
3.45831e-05
3.45752e-05
3.45599e-05
3.45404e-05
3.45254e-05
3.45253e-05
3.45456e-05
3.45818e-05
3.46202e-05
3.4645e-05
3.46447e-05
3.46155e-05
3.4559e-05
3.44871e-05
3.44633e-05
3.44907e-05
3.45276e-05
3.45505e-05
3.45472e-05
3.45125e-05
3.44541e-05
3.4427e-05
3.44752e-05
3.45494e-05
3.46219e-05
3.46804e-05
3.472e-05
3.47395e-05
3.47398e-05
3.47226e-05
3.46889e-05
3.46491e-05
3.45482e-05
3.45816e-05
3.45871e-05
3.45911e-05
3.45937e-05
3.45946e-05
3.4594e-05
3.45921e-05
3.459e-05
3.45888e-05
3.45881e-05
3.45855e-05
3.45769e-05
3.45608e-05
3.45407e-05
3.45258e-05
3.45268e-05
3.45489e-05
3.45866e-05
3.46255e-05
3.46494e-05
3.46471e-05
3.46152e-05
3.45555e-05
3.44832e-05
3.44658e-05
3.44964e-05
3.45338e-05
3.45555e-05
3.45496e-05
3.45115e-05
3.44514e-05
3.44303e-05
3.44831e-05
3.45591e-05
3.46317e-05
3.46894e-05
3.47276e-05
3.47454e-05
3.47438e-05
3.47247e-05
3.46892e-05
3.46475e-05
3.45451e-05
3.45797e-05
3.45865e-05
3.45918e-05
3.45956e-05
3.45978e-05
3.45985e-05
3.45975e-05
3.45953e-05
3.4593e-05
3.45916e-05
3.45908e-05
3.45878e-05
3.45786e-05
3.45616e-05
3.4541e-05
3.45263e-05
3.45285e-05
3.45523e-05
3.45915e-05
3.46308e-05
3.46538e-05
3.46493e-05
3.46145e-05
3.45517e-05
3.44797e-05
3.44687e-05
3.45023e-05
3.45402e-05
3.45604e-05
3.45517e-05
3.45102e-05
3.44489e-05
3.44341e-05
3.44913e-05
3.45689e-05
3.46416e-05
3.46984e-05
3.47352e-05
3.47512e-05
3.47477e-05
3.47266e-05
3.46893e-05
3.46458e-05
3.45419e-05
3.45765e-05
3.45848e-05
3.45915e-05
3.45965e-05
3.46e-05
3.4602e-05
3.46023e-05
3.4601e-05
3.45984e-05
3.45959e-05
3.45944e-05
3.45934e-05
3.459e-05
3.45802e-05
3.45623e-05
3.45411e-05
3.45267e-05
3.45302e-05
3.45558e-05
3.45965e-05
3.46362e-05
3.4658e-05
3.46513e-05
3.46135e-05
3.45476e-05
3.44766e-05
3.44721e-05
3.45084e-05
3.45466e-05
3.45652e-05
3.45535e-05
3.45086e-05
3.44464e-05
3.44385e-05
3.44998e-05
3.45789e-05
3.46516e-05
3.47074e-05
3.47427e-05
3.47568e-05
3.47513e-05
3.47283e-05
3.46892e-05
3.46438e-05
3.45386e-05
3.4572e-05
3.45818e-05
3.459e-05
3.45964e-05
3.46012e-05
3.46045e-05
3.46061e-05
3.46061e-05
3.46044e-05
3.46015e-05
3.45987e-05
3.45971e-05
3.4596e-05
3.45922e-05
3.45816e-05
3.45629e-05
3.45412e-05
3.45272e-05
3.4532e-05
3.45595e-05
3.46016e-05
3.46415e-05
3.46622e-05
3.46531e-05
3.46122e-05
3.45432e-05
3.44741e-05
3.44759e-05
3.45148e-05
3.4553e-05
3.45698e-05
3.45551e-05
3.45066e-05
3.44441e-05
3.44435e-05
3.45087e-05
3.45891e-05
3.46616e-05
3.47164e-05
3.475e-05
3.47622e-05
3.47548e-05
3.47298e-05
3.46888e-05
3.46416e-05
3.45352e-05
3.45662e-05
3.45775e-05
3.45872e-05
3.45952e-05
3.46015e-05
3.4606e-05
3.46089e-05
3.46102e-05
3.46098e-05
3.46078e-05
3.46046e-05
3.46015e-05
3.45998e-05
3.45985e-05
3.45944e-05
3.4583e-05
3.45634e-05
3.45412e-05
3.45276e-05
3.4534e-05
3.45634e-05
3.46068e-05
3.46469e-05
3.46662e-05
3.46546e-05
3.46106e-05
3.45386e-05
3.44724e-05
3.44802e-05
3.45214e-05
3.45594e-05
3.45742e-05
3.45563e-05
3.45044e-05
3.44422e-05
3.44489e-05
3.45179e-05
3.45995e-05
3.46717e-05
3.47253e-05
3.47572e-05
3.47675e-05
3.4758e-05
3.4731e-05
3.46883e-05
3.46391e-05
3.45317e-05
3.45591e-05
3.45717e-05
3.4583e-05
3.45927e-05
3.46005e-05
3.46065e-05
3.46107e-05
3.46133e-05
3.46143e-05
3.46135e-05
3.46111e-05
3.46076e-05
3.46043e-05
3.46024e-05
3.4601e-05
3.45964e-05
3.45843e-05
3.45638e-05
3.45412e-05
3.45281e-05
3.4536e-05
3.45673e-05
3.46122e-05
3.46522e-05
3.467e-05
3.46558e-05
3.46086e-05
3.45337e-05
3.44714e-05
3.44849e-05
3.45282e-05
3.45658e-05
3.45785e-05
3.45572e-05
3.45018e-05
3.44406e-05
3.44549e-05
3.45274e-05
3.461e-05
3.46818e-05
3.47341e-05
3.47643e-05
3.47726e-05
3.47611e-05
3.4732e-05
3.46875e-05
3.46364e-05
3.45281e-05
3.45507e-05
3.45645e-05
3.45773e-05
3.45887e-05
3.45983e-05
3.46059e-05
3.46116e-05
3.46155e-05
3.46177e-05
3.46183e-05
3.46172e-05
3.46144e-05
3.46105e-05
3.4607e-05
3.46051e-05
3.46035e-05
3.45984e-05
3.45854e-05
3.45641e-05
3.45411e-05
3.45287e-05
3.45381e-05
3.45714e-05
3.46176e-05
3.46575e-05
3.46737e-05
3.46568e-05
3.46062e-05
3.45287e-05
3.44712e-05
3.449e-05
3.45352e-05
3.45721e-05
3.45825e-05
3.45577e-05
3.4499e-05
3.44395e-05
3.44614e-05
3.45372e-05
3.46206e-05
3.46919e-05
3.47429e-05
3.47713e-05
3.47775e-05
3.47639e-05
3.47328e-05
3.46865e-05
3.46335e-05
3.45246e-05
3.45415e-05
3.45561e-05
3.45702e-05
3.45831e-05
3.45945e-05
3.46039e-05
3.46113e-05
3.46167e-05
3.46202e-05
3.46221e-05
3.46223e-05
3.46208e-05
3.46176e-05
3.46134e-05
3.46097e-05
3.46076e-05
3.46059e-05
3.46003e-05
3.45865e-05
3.45643e-05
3.4541e-05
3.45292e-05
3.45404e-05
3.45757e-05
3.46231e-05
3.46628e-05
3.46772e-05
3.46575e-05
3.46036e-05
3.45236e-05
3.44716e-05
3.44955e-05
3.45423e-05
3.45785e-05
3.45863e-05
3.45579e-05
3.4496e-05
3.4439e-05
3.44684e-05
3.45472e-05
3.46314e-05
3.4702e-05
3.47516e-05
3.47781e-05
3.47822e-05
3.47665e-05
3.47333e-05
3.46852e-05
3.46303e-05
3.45211e-05
3.45317e-05
3.45465e-05
3.45616e-05
3.4576e-05
3.4589e-05
3.46003e-05
3.46095e-05
3.46167e-05
3.46217e-05
3.4625e-05
3.46265e-05
3.46263e-05
3.46244e-05
3.46207e-05
3.46162e-05
3.46123e-05
3.46101e-05
3.46082e-05
3.46021e-05
3.45874e-05
3.45644e-05
3.45408e-05
3.45298e-05
3.45428e-05
3.45801e-05
3.46287e-05
3.4668e-05
3.46805e-05
3.46579e-05
3.46005e-05
3.45184e-05
3.44728e-05
3.45014e-05
3.45496e-05
3.45847e-05
3.45898e-05
3.45576e-05
3.44927e-05
3.44392e-05
3.44759e-05
3.45576e-05
3.46422e-05
3.47121e-05
3.47602e-05
3.47847e-05
3.47868e-05
3.47689e-05
3.47336e-05
3.46837e-05
3.46269e-05
3.45178e-05
3.45218e-05
3.45363e-05
3.45519e-05
3.45674e-05
3.4582e-05
3.45951e-05
3.46063e-05
3.46153e-05
3.46221e-05
3.46268e-05
3.46296e-05
3.46308e-05
3.46302e-05
3.46278e-05
3.46238e-05
3.4619e-05
3.46149e-05
3.46126e-05
3.46105e-05
3.46038e-05
3.45883e-05
3.45644e-05
3.45405e-05
3.45305e-05
3.45454e-05
3.45847e-05
3.46343e-05
3.46732e-05
3.46837e-05
3.4658e-05
3.45971e-05
3.45133e-05
3.44745e-05
3.45077e-05
3.45569e-05
3.45908e-05
3.45931e-05
3.45571e-05
3.44893e-05
3.44402e-05
3.44839e-05
3.45682e-05
3.46532e-05
3.47222e-05
3.47686e-05
3.47912e-05
3.47911e-05
3.47711e-05
3.47336e-05
3.4682e-05
3.46233e-05
3.45146e-05
3.45259e-05
3.45413e-05
3.45574e-05
3.45733e-05
3.45881e-05
3.46012e-05
3.46123e-05
3.4621e-05
3.46275e-05
3.46319e-05
3.46343e-05
3.4635e-05
3.46341e-05
3.46313e-05
3.46268e-05
3.46217e-05
3.46174e-05
3.4615e-05
3.46127e-05
3.46055e-05
3.4589e-05
3.45643e-05
3.45403e-05
3.45312e-05
3.4548e-05
3.45894e-05
3.464e-05
3.46783e-05
3.46866e-05
3.46578e-05
3.45933e-05
3.45083e-05
3.44768e-05
3.45142e-05
3.45644e-05
3.45969e-05
3.45961e-05
3.45561e-05
3.44858e-05
3.44421e-05
3.44924e-05
3.4579e-05
3.46643e-05
3.47323e-05
3.4777e-05
3.47975e-05
3.47952e-05
3.47729e-05
3.47334e-05
3.46801e-05
3.46195e-05
3.45116e-05
3.45159e-05
3.45303e-05
3.45465e-05
3.45632e-05
3.45795e-05
3.45944e-05
3.46075e-05
3.46183e-05
3.46268e-05
3.46329e-05
3.46369e-05
3.46389e-05
3.46393e-05
3.46379e-05
3.46347e-05
3.46298e-05
3.46243e-05
3.46199e-05
3.46174e-05
3.46148e-05
3.4607e-05
3.45897e-05
3.45641e-05
3.454e-05
3.4532e-05
3.45509e-05
3.45942e-05
3.46458e-05
3.46833e-05
3.46893e-05
3.46572e-05
3.45891e-05
3.45034e-05
3.44798e-05
3.45211e-05
3.45719e-05
3.46028e-05
3.45988e-05
3.45547e-05
3.44822e-05
3.44448e-05
3.45012e-05
3.45901e-05
3.46754e-05
3.47423e-05
3.47853e-05
3.48036e-05
3.4799e-05
3.47746e-05
3.4733e-05
3.4678e-05
3.46156e-05
3.45088e-05
3.45196e-05
3.4535e-05
3.4552e-05
3.45693e-05
3.45858e-05
3.46008e-05
3.46138e-05
3.46244e-05
3.46326e-05
3.46384e-05
3.46419e-05
3.46435e-05
3.46434e-05
3.46416e-05
3.4638e-05
3.46327e-05
3.46269e-05
3.46223e-05
3.46197e-05
3.46169e-05
3.46085e-05
3.45902e-05
3.45638e-05
3.45397e-05
3.45329e-05
3.45538e-05
3.45992e-05
3.46516e-05
3.46882e-05
3.46918e-05
3.46563e-05
3.45846e-05
3.4499e-05
3.44833e-05
3.45283e-05
3.45795e-05
3.46085e-05
3.46011e-05
3.4553e-05
3.44786e-05
3.44484e-05
3.45106e-05
3.46014e-05
3.46866e-05
3.47523e-05
3.47934e-05
3.48095e-05
3.48026e-05
3.4776e-05
3.47324e-05
3.46756e-05
3.46114e-05
3.45064e-05
3.45102e-05
3.45236e-05
3.454e-05
3.45577e-05
3.45755e-05
3.45923e-05
3.46074e-05
3.46202e-05
3.46306e-05
3.46384e-05
3.46438e-05
3.46469e-05
3.46481e-05
3.46475e-05
3.46453e-05
3.46412e-05
3.46355e-05
3.46294e-05
3.46246e-05
3.4622e-05
3.46189e-05
3.46099e-05
3.45906e-05
3.45634e-05
3.45393e-05
3.45339e-05
3.4557e-05
3.46044e-05
3.46575e-05
3.4693e-05
3.4694e-05
3.46551e-05
3.45798e-05
3.44949e-05
3.44873e-05
3.45358e-05
3.45872e-05
3.46141e-05
3.46031e-05
3.45508e-05
3.44751e-05
3.44526e-05
3.45203e-05
3.46128e-05
3.46979e-05
3.47622e-05
3.48013e-05
3.48152e-05
3.4806e-05
3.47772e-05
3.47315e-05
3.4673e-05
3.46071e-05
3.45042e-05
3.45132e-05
3.45279e-05
3.45453e-05
3.45637e-05
3.4582e-05
3.4599e-05
3.4614e-05
3.46267e-05
3.46368e-05
3.46442e-05
3.46492e-05
3.46518e-05
3.46526e-05
3.46516e-05
3.46489e-05
3.46443e-05
3.46382e-05
3.46318e-05
3.4627e-05
3.46243e-05
3.46209e-05
3.46111e-05
3.45909e-05
3.45629e-05
3.4539e-05
3.4535e-05
3.45603e-05
3.46096e-05
3.46634e-05
3.46977e-05
3.4696e-05
3.46535e-05
3.45747e-05
3.44914e-05
3.44919e-05
3.45435e-05
3.45948e-05
3.46194e-05
3.46047e-05
3.45483e-05
3.44718e-05
3.44577e-05
3.45304e-05
3.46245e-05
3.47092e-05
3.4772e-05
3.4809e-05
3.48207e-05
3.48091e-05
3.47782e-05
3.47304e-05
3.46702e-05
3.46026e-05
3.45025e-05
3.45167e-05
3.45326e-05
3.45509e-05
3.457e-05
3.45886e-05
3.46058e-05
3.46208e-05
3.46333e-05
3.4643e-05
3.465e-05
3.46545e-05
3.46567e-05
3.4657e-05
3.46556e-05
3.46524e-05
3.46474e-05
3.46409e-05
3.46342e-05
3.46292e-05
3.46264e-05
3.46228e-05
3.46123e-05
3.4591e-05
3.45623e-05
3.45387e-05
3.45361e-05
3.45638e-05
3.4615e-05
3.46693e-05
3.47022e-05
3.46977e-05
3.46515e-05
3.45693e-05
3.44887e-05
3.4497e-05
3.45515e-05
3.46024e-05
3.46246e-05
3.46059e-05
3.45454e-05
3.44687e-05
3.44634e-05
3.45409e-05
3.46363e-05
3.47204e-05
3.47817e-05
3.48166e-05
3.48259e-05
3.4812e-05
3.47789e-05
3.4729e-05
3.46672e-05
3.45979e-05
3.45011e-05
3.45204e-05
3.45376e-05
3.45568e-05
3.45765e-05
3.45955e-05
3.46127e-05
3.46276e-05
3.46399e-05
3.46492e-05
3.46558e-05
3.46598e-05
3.46616e-05
3.46614e-05
3.46595e-05
3.46559e-05
3.46504e-05
3.46435e-05
3.46365e-05
3.46314e-05
3.46285e-05
3.46246e-05
3.46134e-05
3.45911e-05
3.45617e-05
3.45384e-05
3.45374e-05
3.45674e-05
3.46206e-05
3.46752e-05
3.47066e-05
3.46991e-05
3.46492e-05
3.45637e-05
3.44867e-05
3.45027e-05
3.45596e-05
3.461e-05
3.46294e-05
3.46067e-05
3.45422e-05
3.4466e-05
3.44698e-05
3.45518e-05
3.46482e-05
3.47316e-05
3.47912e-05
3.4824e-05
3.4831e-05
3.48147e-05
3.47793e-05
3.47275e-05
3.4664e-05
3.45932e-05
3.45001e-05
3.45102e-05
3.45246e-05
3.45429e-05
3.4563e-05
3.45833e-05
3.46025e-05
3.46198e-05
3.46345e-05
3.46465e-05
3.46555e-05
3.46616e-05
3.46651e-05
3.46663e-05
3.46657e-05
3.46633e-05
3.46592e-05
3.46534e-05
3.4646e-05
3.46388e-05
3.46335e-05
3.46306e-05
3.46263e-05
3.46144e-05
3.4591e-05
3.4561e-05
3.45381e-05
3.45389e-05
3.45712e-05
3.46262e-05
3.46811e-05
3.47108e-05
3.47002e-05
3.46465e-05
3.45578e-05
3.44857e-05
3.45088e-05
3.45679e-05
3.46175e-05
3.46341e-05
3.46071e-05
3.45387e-05
3.44637e-05
3.44768e-05
3.4563e-05
3.46602e-05
3.47428e-05
3.48007e-05
3.48312e-05
3.48358e-05
3.48172e-05
3.47796e-05
3.47257e-05
3.46605e-05
3.45883e-05
3.44996e-05
3.45133e-05
3.45291e-05
3.45486e-05
3.45695e-05
3.45902e-05
3.46097e-05
3.46269e-05
3.46415e-05
3.46531e-05
3.46617e-05
3.46673e-05
3.46703e-05
3.46711e-05
3.46699e-05
3.46671e-05
3.46625e-05
3.46562e-05
3.46485e-05
3.46409e-05
3.46356e-05
3.46326e-05
3.4628e-05
3.46152e-05
3.45909e-05
3.45602e-05
3.45378e-05
3.45404e-05
3.45752e-05
3.4632e-05
3.46869e-05
3.47149e-05
3.47011e-05
3.46433e-05
3.45519e-05
3.44856e-05
3.45153e-05
3.45764e-05
3.46249e-05
3.46384e-05
3.46071e-05
3.45348e-05
3.44619e-05
3.44845e-05
3.45743e-05
3.46723e-05
3.47539e-05
3.481e-05
3.48382e-05
3.48404e-05
3.48194e-05
3.47796e-05
3.47236e-05
3.46569e-05
3.45833e-05
3.44994e-05
3.45055e-05
3.45167e-05
3.4534e-05
3.45546e-05
3.45762e-05
3.45974e-05
3.4617e-05
3.46342e-05
3.46486e-05
3.46598e-05
3.46679e-05
3.4673e-05
3.46755e-05
3.46757e-05
3.46741e-05
3.46708e-05
3.46658e-05
3.46589e-05
3.46508e-05
3.4643e-05
3.46377e-05
3.46346e-05
3.46296e-05
3.4616e-05
3.45906e-05
3.45594e-05
3.45376e-05
3.45421e-05
3.45794e-05
3.46379e-05
3.46928e-05
3.47187e-05
3.47015e-05
3.46398e-05
3.45458e-05
3.44864e-05
3.45223e-05
3.4585e-05
3.46322e-05
3.46424e-05
3.46067e-05
3.45307e-05
3.44609e-05
3.44927e-05
3.4586e-05
3.46844e-05
3.4765e-05
3.48191e-05
3.4845e-05
3.48447e-05
3.48213e-05
3.47793e-05
3.47213e-05
3.4653e-05
3.45783e-05
3.44997e-05
3.45075e-05
3.45206e-05
3.45393e-05
3.45609e-05
3.45832e-05
3.46048e-05
3.46245e-05
3.46416e-05
3.46557e-05
3.46665e-05
3.46741e-05
3.46787e-05
3.46806e-05
3.46803e-05
3.46781e-05
3.46744e-05
3.46689e-05
3.46616e-05
3.46531e-05
3.46451e-05
3.46396e-05
3.46365e-05
3.46311e-05
3.46166e-05
3.45902e-05
3.45585e-05
3.45374e-05
3.45439e-05
3.45837e-05
3.46439e-05
3.46986e-05
3.47224e-05
3.47017e-05
3.46359e-05
3.45398e-05
3.44881e-05
3.45298e-05
3.45938e-05
3.46394e-05
3.46461e-05
3.46057e-05
3.45263e-05
3.44607e-05
3.45014e-05
3.45979e-05
3.46966e-05
3.47759e-05
3.48281e-05
3.48516e-05
3.48488e-05
3.4823e-05
3.47788e-05
3.47188e-05
3.4649e-05
3.45733e-05
3.45002e-05
3.451e-05
3.45248e-05
3.45449e-05
3.45675e-05
3.45904e-05
3.46123e-05
3.46321e-05
3.4649e-05
3.46628e-05
3.46732e-05
3.46803e-05
3.46843e-05
3.46857e-05
3.46848e-05
3.46821e-05
3.46779e-05
3.46719e-05
3.46642e-05
3.46553e-05
3.46471e-05
3.46416e-05
3.46383e-05
3.46325e-05
3.46171e-05
3.45897e-05
3.45575e-05
3.45373e-05
3.45459e-05
3.45882e-05
3.465e-05
3.47043e-05
3.47258e-05
3.47015e-05
3.46315e-05
3.45338e-05
3.44905e-05
3.45376e-05
3.46026e-05
3.46464e-05
3.46494e-05
3.46043e-05
3.45219e-05
3.44613e-05
3.45107e-05
3.461e-05
3.47088e-05
3.47868e-05
3.48368e-05
3.4858e-05
3.48527e-05
3.48244e-05
3.4778e-05
3.4716e-05
3.46447e-05
3.45683e-05
3.45011e-05
3.45129e-05
3.45295e-05
3.45509e-05
3.45744e-05
3.45979e-05
3.46201e-05
3.46398e-05
3.46566e-05
3.46699e-05
3.46799e-05
3.46864e-05
3.46898e-05
3.46906e-05
3.46892e-05
3.46861e-05
3.46813e-05
3.46749e-05
3.46667e-05
3.46574e-05
3.4649e-05
3.46434e-05
3.46401e-05
3.46338e-05
3.46175e-05
3.45891e-05
3.45565e-05
3.45372e-05
3.45481e-05
3.45929e-05
3.46562e-05
3.471e-05
3.4729e-05
3.47009e-05
3.46268e-05
3.4528e-05
3.44937e-05
3.45457e-05
3.46115e-05
3.46532e-05
3.46522e-05
3.46025e-05
3.45174e-05
3.4463e-05
3.45204e-05
3.46222e-05
3.4721e-05
3.47976e-05
3.48455e-05
3.48641e-05
3.48563e-05
3.48256e-05
3.4777e-05
3.47131e-05
3.46403e-05
3.45634e-05
3.45023e-05
3.45162e-05
3.45345e-05
3.45572e-05
3.45816e-05
3.46056e-05
3.46279e-05
3.46476e-05
3.46641e-05
3.46771e-05
3.46865e-05
3.46925e-05
3.46953e-05
3.46955e-05
3.46936e-05
3.46899e-05
3.46846e-05
3.46777e-05
3.46691e-05
3.46595e-05
3.46508e-05
3.46453e-05
3.46418e-05
3.46351e-05
3.46178e-05
3.45883e-05
3.45555e-05
3.45372e-05
3.45504e-05
3.45978e-05
3.46625e-05
3.47156e-05
3.47319e-05
3.47e-05
3.46218e-05
3.45225e-05
3.44976e-05
3.45542e-05
3.46204e-05
3.46598e-05
3.46547e-05
3.46003e-05
3.45129e-05
3.44658e-05
3.45305e-05
3.46347e-05
3.47332e-05
3.48082e-05
3.48539e-05
3.487e-05
3.48597e-05
3.48266e-05
3.47758e-05
3.47098e-05
3.46357e-05
3.45586e-05
3.45038e-05
3.452e-05
3.45399e-05
3.45639e-05
3.4589e-05
3.46135e-05
3.4636e-05
3.46556e-05
3.46717e-05
3.46843e-05
3.46931e-05
3.46985e-05
3.47007e-05
3.47003e-05
3.46978e-05
3.46936e-05
3.46879e-05
3.46805e-05
3.46714e-05
3.46614e-05
3.46526e-05
3.4647e-05
3.46435e-05
3.46362e-05
3.4618e-05
3.45875e-05
3.45544e-05
3.45373e-05
3.45529e-05
3.46029e-05
3.46688e-05
3.47211e-05
3.47346e-05
3.46987e-05
3.46163e-05
3.45174e-05
3.45022e-05
3.4563e-05
3.46293e-05
3.46661e-05
3.46568e-05
3.45976e-05
3.45085e-05
3.44695e-05
3.45411e-05
3.46472e-05
3.47454e-05
3.48188e-05
3.48621e-05
3.48757e-05
3.48628e-05
3.48272e-05
3.47742e-05
3.47064e-05
3.46309e-05
3.45539e-05
3.45056e-05
3.45242e-05
3.45458e-05
3.45709e-05
3.45968e-05
3.46216e-05
3.46442e-05
3.46636e-05
3.46794e-05
3.46914e-05
3.46997e-05
3.47044e-05
3.47061e-05
3.47051e-05
3.4702e-05
3.46973e-05
3.4691e-05
3.46832e-05
3.46737e-05
3.46633e-05
3.46543e-05
3.46487e-05
3.46451e-05
3.46373e-05
3.46181e-05
3.45866e-05
3.45534e-05
3.45375e-05
3.45556e-05
3.46081e-05
3.46752e-05
3.47264e-05
3.4737e-05
3.46969e-05
3.46105e-05