/*--------------------------------*- C++ -*----------------------------------*\
  =========                 |
  \\      /  F ield         | OpenFOAM: The Open Source CFD Toolbox
   \\    /   O peration     | Website:  https://openfoam.org
    \\  /    A nd           | Version:  7
     \\/     M anipulation  |
\*---------------------------------------------------------------------------*/
FoamFile
{
    version     2.0;
    format      ascii;
    class       volScalarField;
    location    "400";
    object      p;
}
// * * * * * * * * * * * * * * * * * * * * * * * * * * * * * * * * * * * * * //

dimensions      [0 2 -2 0 0 0 0];

internalField   nonuniform List<scalar> 
23023
(
-1.19279
-5.1066
-1.18372
-5.13043
-5.08599
-1.17479
-5.61123
-5.08539
-5.0643
-1.16599
-5.55551
-5.03918
-5.0416
-1.15734
-4.6906
-5.49842
-4.99186
-5.01792
-1.14882
-3.53037
-4.62501
-5.44001
-4.94345
-4.9933
-1.14045
-1.63818
-3.46237
-4.55799
-5.38035
-4.89401
-4.96779
-1.13221
0.673026
-1.57223
-3.39289
-4.48962
-5.31948
-4.84357
-4.94142
-1.12413
3.42484
0.731981
-1.50483
-3.32199
-4.41993
-5.25745
-4.79216
-4.91423
-1.11618
6.41479
3.4725
0.792236
-1.43606
-3.24973
-4.34897
-5.19429
-4.73983
-4.88624
-1.10838
6.44747
3.52121
0.853739
-1.36596
-3.17616
-4.27679
-5.13006
-4.6866
-4.8575
-1.10073
9.50324
6.48083
3.57091
0.916442
-1.29458
-3.10131
-4.20343
-5.06478
-4.63252
-4.82804
-1.09322
12.4065
9.51852
6.51484
3.62159
0.980309
-1.22195
-3.02524
-4.12894
-4.99851
-4.57761
-4.79788
-1.08586
14.926
12.4023
9.53402
6.54947
3.6732
1.04531
-1.14811
-2.94799
-4.05335
-4.93127
-4.5219
-4.76706
-1.07864
16.8239
14.9025
12.3978
9.54972
6.58473
3.72574
1.1114
-1.07311
-2.86959
-3.97671
-4.86312
-4.46544
-4.7356
-1.07155
16.7826
14.8781
12.393
9.56562
6.62058
3.77916
1.17855
-0.996991
-2.79009
-3.89905
-4.79407
-4.40824
-4.70354
-1.06461
17.8428
16.7399
14.8528
12.388
9.58172
6.65703
3.83345
1.24673
-0.919782
-2.70952
-3.82041
-4.72418
-4.35034
-4.6709
-1.05781
17.9415
17.7849
16.6959
14.8268
12.3827
9.59803
6.69405
3.88858
1.31591
-0.84152
-2.62793
-3.74083
-4.65346
-4.29176
-4.63771
-1.05115
17.8729
17.7253
16.6506
14.8001
12.3771
9.61454
6.73164
3.94453
1.38605
-0.762241
-2.54534
-3.66034
-4.58195
-4.23254
-4.60399
-1.04462
16.9532
17.8024
17.6642
16.6042
14.7727
12.3713
9.63126
6.76977
4.00127
1.45713
-0.681981
-2.4618
-3.57898
-4.50969
-4.17269
-4.56977
-1.03822
15.0866
16.8776
17.7301
17.6015
16.5566
14.7445
12.3653
9.64817
6.80844
4.05879
1.52911
-0.600773
-2.37734
-3.49678
-4.43671
-4.11224
-4.53506
-1.03196
12.4628
15.0123
16.8001
17.6561
17.5373
16.508
14.7158
12.3591
9.6653
6.84765
4.11705
1.60197
-0.518649
-2.292
-3.41377
-4.36302
-4.05121
-4.4999
-1.02583
9.4046
12.3967
14.9365
16.7208
17.5803
17.4716
16.4582
14.6864
12.3528
9.68263
6.88736
4.17605
1.67568
-0.435644
-2.2058
-3.32999
-4.28866
-3.98964
-4.46429
-1.01983
9.35309
12.3296
14.859
16.6398
17.5028
17.4045
16.4074
14.6564
12.3462
9.70016
6.92758
4.23575
1.7502
-0.351785
-2.11878
-3.24545
-4.21366
-3.92753
-4.42827
-1.01395
6.32175
9.30128
12.2613
14.78
16.557
17.4237
17.3361
16.3557
14.6258
12.3395
9.7179
6.96829
4.29613
1.82552
-0.267101
-2.03096
-3.16019
-4.13804
-3.86491
-4.39184
-1.0082
3.8181
6.29043
9.24914
12.192
14.6995
16.4727
17.3431
17.2664
16.303
14.5947
12.3327
9.73585
7.00947
4.35718
1.90161
-0.18162
-1.94237
-3.07424
-4.06182
-3.8018
-4.35504
-1.00257
3.8099
6.25975
9.19666
12.1217
14.6176
16.3867
17.2609
17.1954
16.2493
14.5631
12.3257
9.75399
7.05113
4.41887
1.97844
-0.0953728
-1.85305
-2.98761
-3.98504
-3.73823
-4.31787
-0.997056
2.368
3.80338
6.22966
9.14385
12.0503
14.5343
16.2992
17.1773
17.1231
16.1949
14.531
12.3186
9.77234
7.09323
4.4812
2.05599
-0.008382
-1.76302
-2.90035
-3.9077
-3.6742
-4.28036
-0.991663
2.34856
2.38486
3.79846
6.20012
9.09069
11.9779
14.4495
16.2102
17.0922
17.0498
16.1395
14.4984
12.3114
9.79089
7.13579
4.54412
2.13424
0.079326
-1.6723
-2.81247
-3.82984
-3.60974
-4.24252
-0.986386
2.38455
2.40423
3.79506
6.1711
9.03718
11.9046
14.3634
16.1197
17.0058
16.9752
16.0834
14.4654
12.304
9.80964
7.17877
4.60765
2.21315
0.167724
-1.58093
-2.72399
-3.75148
-3.54487
-4.20437
-0.981222
3.91185
2.42359
2.426
3.79312
6.14257
8.98332
11.8303
14.2761
16.0278
16.9181
16.8996
16.0265
14.4319
12.2966
9.82859
7.22218
4.67174
2.29272
0.256789
-1.48892
-2.63494
-3.67263
-3.4796
-4.16592
-0.976169
6.68661
3.96313
2.46557
2.45006
3.79258
6.1145
8.92909
11.755
14.1874
15.9345
16.8291
16.823
15.9688
14.398
12.2891
9.84774
7.266
4.73639
2.37292
0.346498
-1.39629
-2.54534
-3.59332
-3.41395
-4.12718
-0.971226
6.74167
4.01739
2.51038
2.47635
3.7934
6.08685
8.8745
11.6788
14.0975
15.8399
16.7389
16.7453
15.9104
14.3638
12.2816
9.86708
7.31022
4.80158
2.45372
0.436827
-1.30308
-2.45521
-3.51356
-3.34794
-4.08817
-0.966388
10.0952
6.7992
4.07453
2.55794
2.50479
3.79549
6.05958
8.81953
11.6017
14.0064
15.7441
16.6475
16.6666
15.8514
14.3291
12.2739
9.88662
7.35484
4.86729
2.53512
0.527755
-1.2093
-2.36458
-3.43337
-3.28157
-4.04891
-0.961655
13.1768
10.1481
6.8591
4.13445
2.60816
2.53529
3.7988
6.03267
8.7642
11.5238
13.9141
15.647
16.5549
16.5871
15.7917
14.2942
12.2663
9.90635
7.39983
4.93351
2.61708
0.619257
-1.11498
-2.27346
-3.35278
-3.21487
-4.0094
-0.957025
13.2199
10.2025
6.92131
4.19707
2.66094
2.56777
3.80327
6.0061
8.70851
11.445
13.8207
15.5487
16.4612
16.5066
15.7313
14.2589
12.2585
9.92627
7.4452
5.00022
2.69958
0.711316
-1.02012
-2.18186
-3.27179
-3.14785
-3.96966
-0.952495
15.3276
13.2636
10.2583
6.98576
4.26231
2.71619
2.60215
3.80886
5.97983
8.65245
11.3653
13.7262
15.4492
16.3665
16.4252
15.6704
14.2233
12.2507
9.94638
7.49094
5.0674
2.78262
0.803912
-0.924769
-2.08982
-3.19042
-3.08052
-3.92969
-0.948062
16.2347
15.3593
13.3078
10.3155
7.05238
4.33009
2.77382
2.63835
3.81551
5.95385
8.59602
11.2848
13.6307
15.3486
16.2707
16.3431
15.6089
14.1873
12.2429
9.96667
7.53702
5.13504
2.86617
0.897025
-0.828927
-1.99735
-3.10869
-3.01289
-3.88951
-0.943724
16.2261
16.2568
15.3909
13.3526
10.3741
7.12111
4.40031
2.83375
2.67632
3.82318
5.92814
8.53923
11.2035
13.5341
15.2469
16.174
16.2601
15.5468
14.1512
12.2351
9.98715
7.58345
5.20313
2.95022
0.990635
-0.732619
-1.90445
-3.02661
-2.94498
-3.84914
-0.93948
15.9141
16.2432
16.2787
15.4225
13.3978
10.4341
7.19187
4.47289
2.8959
2.71597
3.83181
5.90267
8.48208
11.1214
13.4365
15.1442
16.0762
16.1763
15.4843
14.1147
12.2272
10.0078
7.63021
5.27164
3.03474
1.08472
-0.635859
-1.81116
-2.9442
-2.8768
-3.80857
-0.935327
15.8957
15.9317
16.2607
16.3005
15.454
13.4436
10.4953
7.26459
4.54775
2.96018
2.75725
3.84138
5.87742
8.42456
11.0386
13.3379
15.0405
15.9776
16.0919
15.4212
14.078
12.2193
10.0286
7.6773
5.34058
3.11972
1.17928
-0.538662
-1.71748
-2.86146
-2.80835
-3.76782
-0.931263
16.4597
15.9177
15.9502
16.2784
16.3222
15.4855
13.4898
10.5578
7.33921
4.62482
3.02654
2.8001
3.85183
5.85237
8.36669
10.955
13.2384
14.9357
15.878
16.0067
15.3576
14.041
12.2114
10.0497
7.7247
5.40992
3.20515
1.27428
-0.441049
-1.62343
-2.77842
-2.73966
-3.72689
-0.927285
16.488
15.9412
15.9695
16.2963
16.3436
15.5169
13.5364
10.6214
7.41568
4.70403
3.09488
2.84444
3.86312
5.82751
8.30847
10.8707
13.138
14.8301
15.7777
15.9208
15.2936
14.0038
12.2035
10.0708
7.77241
5.47965
3.29101
1.36971
-0.343035
-1.52902
-2.69508
-2.67072
-3.6858
-0.923392
17.5538
16.5181
15.9662
15.9897
16.3144
16.3649
15.5481
13.5835
10.6862
7.49393
4.7853
3.16515
2.89023
3.87521
5.80282
8.24989
10.7857
13.0367
14.7235
15.6764
15.8342
15.2291
13.9664
12.1956
10.0922
7.82042
5.54977
3.37728
1.46556
-0.244632
-1.43427
-2.61146
-2.60155
-3.64456
-0.919581
18.8264
17.5897
16.5499
15.9925
16.0107
16.3327
16.3861
15.5793
13.631
10.7521
7.57392
4.86858
3.23727
2.9374
3.88807
5.77827
8.19096
10.7
12.9345
14.616
15.5744
15.7471
15.1642
13.9288
12.1877
10.1137
7.86872
5.62025
3.46396
1.56181
-0.145854
-1.33919
-2.52756
-2.53216
-3.60316
-0.915851
18.8663
17.6274
16.5834
16.0201
16.0324
16.3511
16.407
15.6103
13.6789
10.8191
7.6556
4.95379
3.31117
2.9859
3.90165
5.75386
8.13169
10.6137
12.8315
14.5077
15.4716
15.6593
15.0989
13.8911
12.1798
10.1354
7.9173
5.69108
3.55102
1.65845
-0.0467155
-1.24379
-2.44341
-2.46256
-3.56162
-0.9122
20.1112
18.9081
17.6669
16.6185
16.0491
16.0548
16.3696
16.4277
15.6413
13.7271
10.8872
7.73891
5.04088
3.3868
3.03567
3.91592
5.72957
8.07206
10.5266
12.7277
14.3985
15.3681
15.5709
15.0332
13.8531
12.1719
10.1573
7.96616
5.76226
3.63847
1.75546
0.0527688
-1.14808
-2.359
-2.39276
-3.51995
-0.908625
21.2692
20.1554
18.9515
17.7081
16.6552
16.0792
16.0779
16.3883
16.4482
15.6721
13.7758
10.9563
7.8238
5.12977
3.46409
3.08666
3.93085
5.70538
8.0121
10.439
12.6231
14.2886
15.2639
15.482
14.9672
13.8149
12.164
10.1793
8.01529
5.83378
3.72627
1.85283
0.152587
-1.05208
-2.27434
-2.32275
-3.47815
-0.905125
22.4214
21.3154
20.2013
18.9966
17.7508
16.6933
16.1105
16.1016
16.407
16.4684
15.7028
13.8247
11.0264
7.91023
5.2204
3.54296
3.13883
3.9464
5.68128
7.9518
10.3507
12.5177
14.1778
15.1589
15.3926
14.9008
13.7766
12.1561
10.2014
8.06468
5.90562
3.81442
1.95054
0.252728
-0.955801
-2.18946
-2.25256
-3.43623
-0.901697
23.6677
22.4699
21.3635
20.2489
19.0433
17.7951
16.7329
16.1429
16.1259
16.4258
16.4885
15.7334
13.8741
11.0975
7.99813
5.31273
3.62337
3.19211
3.96253
5.65725
7.89116
10.2618
12.4116
14.0664
15.0533
15.3026
14.834
13.7382
12.1483
10.2238
8.11432
5.97778
3.90292
2.0486
0.353178
-0.859247
-2.10435
-2.18219
-3.39419
-0.89834
25.0577
23.7192
22.5205
21.4134
20.2982
19.0915
17.8409
16.7739
16.1763
16.1507
16.4446
16.5083
15.7639
13.9238
11.1695
8.08748
5.40668
3.70526
3.24646
3.97922
5.63329
7.83019
10.1723
12.3048
13.9542
14.9471
15.2122
14.767
13.6996
12.1404
10.2462
8.16421
6.05024
3.99174
2.14697
0.453928
-0.76243
-2.01903
-2.11165
-3.35203
-0.895051
26.5959
25.1124
23.7729
22.5732
21.465
20.3489
19.1411
17.8881
16.8162
16.2108
16.1761
16.4635
16.5279
15.7943
13.9738
11.2424
8.17822
5.50219
3.78856
3.30183
3.99645
5.60938
7.7689
10.0823
12.1973
13.8413
14.8403
15.1213
14.6996
13.6609
12.1326
10.2689
8.21434
6.12299
4.08087
2.24566
0.554965
-0.665361
-1.9335
-2.04093
-3.30978
-0.89183
28.2765
26.6538
25.1697
23.829
22.6278
21.5183
20.4011
19.1921
17.9367
16.8597
16.2462
16.202
16.4825
16.5474
15.8246
14.0242
11.3163
8.27029
5.59922
3.87322
3.35818
4.01417
5.58552
7.70729
9.99167
12.0891
13.7277
14.7329
15.0299
14.632
13.622
12.1248
10.2916
8.2647
6.19603
4.17032
2.34465
0.65628
-0.568047
-1.84777
-1.97006
-3.26742
-0.888674
30.1045
28.3374
26.7146
25.2295
23.8874
22.6843
21.5732
20.4547
19.2444
17.9865
16.9045
16.2826
16.2284
16.5015
16.5666
15.8548
14.0749
11.391
8.36367
5.6977
3.95919
3.41547
4.03236
5.56169
7.64537
9.90051
11.9803
13.6135
14.6249
14.9381
14.564
13.583
12.1171
10.3146
8.31529
6.26934
4.26005
2.44393
0.757863
-0.470499
-1.76185
-1.89903
-3.22496
-0.885581
32.0981
30.168
28.4014
26.7782
25.2919
23.9478
22.7427
21.6296
20.5097
19.298
18.0377
16.9504
16.3199
16.2553
16.5205
16.5856
15.8849
14.1259
11.4665
8.4583
5.79759
4.04642
3.47366
4.05101
5.53788
7.58312
9.80884
11.8708
13.4987
14.5163
14.8458
14.4958
13.544
12.1093
10.3376
8.3661
6.34293
4.35008
2.54349
0.859705
-0.372723
-1.67574
-1.82785
-3.18242
-0.882549
34.2845
32.1638
30.235
28.4686
26.8445
25.3566
24.0103
22.8027
21.6874
20.5659
19.3527
18.09
16.9975
16.3581
16.2826
16.5395
16.6044
15.9149
14.1772
11.5429
8.55414
5.89883
4.13485
3.53271
4.07008
5.51408
7.52058
9.71664
11.7608
13.3833
14.4073
14.7532
14.4274
13.5048
12.1016
10.3608
8.41713
6.41677
4.44038
2.64332
0.961796
-0.274728
-1.58946
-1.75653
-3.13978
-0.879578
36.6964
34.352
32.2334
30.3055
28.5387
26.9135
25.4235
24.0747
22.8644
21.7467
20.6233
19.4087
18.1435
17.0457
16.3971
16.3103
16.5586
16.623
15.9448
14.2287
11.62
8.65116
6.00138
4.22445
3.59257
4.08955
5.49029
7.45773
9.62395
11.6501
13.2673
14.2977
14.6602
14.3587
13.4655
12.0939
10.3841
8.46836
6.49086
4.53094
2.74341
1.06413
-0.176523
-1.503
-1.68506
-3.09706
-0.876662
39.3683
36.7651
34.4237
32.3068
30.3792
28.6117
26.9849
25.4926
24.141
22.9277
21.8072
20.6819
19.4658
18.1981
17.0949
16.4369
16.3385
16.5776
16.6415
15.9746
14.2806
11.6979
8.74931
6.10519
4.31516
3.65323
4.1094
5.4665
7.39459
9.53077
11.5389
13.1507
14.1877
14.5668
14.2898
13.4261
12.0863
10.4076
8.51979
6.56519
4.62176
2.84376
1.1667
-0.0781112
-1.41638
-1.61346
-3.05428
-0.873806
42.3347
39.4375
36.8384
34.4996
32.3838
30.456
28.6875
27.0587
25.5638
24.209
22.9924
21.8691
20.7417
19.5239
18.2538
17.1451
16.4775
16.367
16.5967
16.6597
16.0043
14.3328
11.7766
8.84856
6.21021
4.40695
3.71463
4.12961
5.4427
7.33115
9.43712
11.4272
13.0336
14.0772
14.4731
14.2207
13.3867
12.0787
10.4312
8.57142
6.63976
4.71284
2.94435
1.26949
0.0204936
-1.32959
-1.54177
-3.01143
-0.871026
45.6301
42.4034
39.5117
36.9163
34.5795
32.4642
30.5359
28.7658
27.1348
25.637
24.2788
23.0586
21.9321
20.8025
19.5831
18.3105
17.1963
16.5188
16.3959
16.6157
16.6777
16.0339
14.3852
11.8559
8.94887
6.31641
4.49976
3.77674
4.15015
5.41889
7.26742
9.34302
11.3149
12.916
13.9662
14.379
14.1514
13.3472
12.0711
10.4549
8.62324
6.71456
4.80415
3.04518
1.3725
0.119302
-1.24269
-1.46995
-2.96829
-0.868208
49.2904
45.6973
42.4777
39.591
36.9986
34.6632
32.548
30.6186
28.8467
27.2131
25.7121
24.3502
23.1262
21.9963
20.8643
19.6433
18.3683
17.2484
16.5608
16.4251
16.6347
16.6955
16.0635
14.4378
11.936
9.05022
6.42373
4.59356
3.83953
4.17101
5.39505
7.20341
9.24847
11.2021
12.7978
13.8548
14.2846
14.0818
13.3076
12.0636
10.4787
8.67524
6.78958
4.89571
3.14624
1.47573
0.218232
-1.15564
-1.39762
-2.92489
-0.865199
53.3533
49.3549
45.7706
42.5574
39.675
37.0851
34.7506
32.6349
30.7041
28.93
27.2934
25.789
24.4232
23.1951
22.0617
20.9271
19.7045
18.427
17.3015
16.6035
16.4546
16.6537
16.7132
16.0929
14.4908
12.0167
9.15255
6.53213
4.68831
3.90298
4.19217
5.37119
7.13913
9.15348
11.0888
12.6792
13.743
14.1899
14.0121
13.2679
12.0561
10.5027
8.72742
6.86481
4.98748
3.24753
1.5791
0.317356
-1.06794
-1.32486
-2.8817
-0.862081
53.4138
49.4259
45.8498
42.6424
39.7637
37.1757
34.8415
32.7249
30.7923
29.0155
27.3758
25.8676
24.4976
23.2653
22.1281
20.9909
19.7666
18.4867
17.3554
16.6469
16.4844
16.6726
16.7306
16.1223
14.544
12.0981
9.25584
6.64158
4.78397
3.96704
4.21361
5.34729
7.07458
9.05808
10.975
12.5601
13.6308
14.0949
13.9422
13.2282
12.0487
10.5268
8.77979
6.94025
5.07949
3.34897
1.68268
0.417238
-0.979718
-1.25258
-2.83888
-0.858995
57.914
53.4813
49.5034
45.9346
42.7324
39.8568
37.2701
34.9357
32.8179
30.883
29.1033
27.4601
25.948
24.5736
23.3368
22.1956
21.0556
19.8295
18.5472
17.4101
16.6908
16.5145
16.6915
16.7479
16.1516
14.5974
12.1802
9.36006
6.75203
4.88049
4.0317
4.23531
5.32336
7.00976
8.96228
10.8608
12.4406
13.5182
13.9997
13.8721
13.1884
12.0412
10.551
8.83231
7.01591
5.17165
3.45064
1.78709
0.517716
-0.892141
-1.181
-2.79626
-0.855907
57.9767
53.5556
49.5869
46.025
42.8272
39.9541
37.3682
35.0332
32.9136
30.9761
29.1932
27.5463
26.0299
24.6509
23.4094
22.2641
21.1212
19.8933
18.6086
17.4656
16.7353
16.5449
16.7104
16.765
16.1809
14.6511
12.2628
9.46517
6.86346
4.97785
4.09693
4.25727
5.29939
6.94469
8.86608
10.7461
12.3207
13.4053
13.9041
13.8019
13.1485
12.0338
10.5753
8.88502
7.0917
5.26403
3.55314
1.89212
0.617393
-0.80544
-1.10966
-2.75368
-0.852725
62.9547
58.0466
53.6366
49.6764
46.1205
42.9267
40.0555
37.4699
35.1338
33.012
31.0716
29.2852
27.6343
26.1134
24.7296
23.4831
22.3335
21.1877
19.958
18.6708
17.5218
16.7804
16.5755
16.7292
16.7819
16.2101
14.7051
12.3461
9.57115
6.97581
5.07601
4.16269
4.27946
5.27538
6.87936
8.7695
10.631
12.2003
13.292
13.8083
13.7315
13.1086
12.0265
10.5997
8.93784
7.1677
5.35722
3.65626
1.99624
0.716036
-0.718984
-1.03834
-2.71112
-0.849433
63.0189
58.1235
53.724
49.7716
46.2212
43.0306
40.1609
37.575
35.2374
33.113
31.1693
29.3791
27.724
26.1985
24.8095
23.558
22.4039
21.2549
20.0234
18.7337
17.5788
16.826
16.6064
16.748
16.7986
16.2392
14.7592
12.4299
9.67796
7.08906
5.17494
4.22898
4.30187
5.25133
6.81379
8.67255
10.5155
12.0795
13.1783
13.7122
13.6609
13.0686
12.0192
10.6242
8.99083
7.24441
5.45095
3.75841
2.09925
0.814428
-0.632514
-0.967059
-2.66861
-0.846062
63.0904
58.2073
53.8174
49.8723
46.3267
43.1389
40.27
37.6834
35.3438
33.2165
31.2693
29.475
27.8153
26.2849
24.8907
23.6338
22.4751
21.3229
20.0895
18.7975
17.6365
16.8722
16.6375
16.7668
16.8152
16.2683
14.8136
12.5143
9.78558
7.20318
5.27461
4.29575
4.3245
5.22723
6.74797
8.57524
10.3995
11.9583
13.0643
13.6159
13.5903
13.0286
12.0119
10.6488
9.04437
7.32155
5.54372
3.85942
2.20201
0.912854
-0.546116
-0.895922
-2.62619
-0.842622
63.1691
58.2977
53.9168
49.9782
46.4369
43.2512
40.3827
37.7949
35.453
33.3225
31.3713
29.5726
27.9082
26.3727
24.9731
23.7107
22.5471
21.3917
20.1564
18.8619
17.6949
16.9188
16.6688
16.7855
16.8317
16.2973
14.8683
12.5993
9.89398
7.31813
5.37499
4.363
4.34732
5.20308
6.68191
8.47757
10.2832
11.8368
12.95
13.5194
13.5194
12.9886
12.0047
10.6738
9.09821
7.39781
5.6354
3.96021
2.30482
1.01118
-0.4599
-0.82495
-2.58387
-0.839102
68.6555
63.2549
58.3943
54.0218
50.0892
46.5515
43.3675
40.4989
37.9096
35.5648
33.4307
31.4753
29.672
28.0027
26.4619
25.0566
23.7885
22.6199
21.4611
20.2239
18.9271
17.7539
16.9659
16.7003
16.8041
16.848
16.3263
14.9231
12.6848
10.0031
7.43387
5.47605
4.4307
4.37033
5.17887
6.61563
8.37957
10.1665
11.7149
12.8354
13.4226
13.4485
12.9485
11.9975
10.6989
9.15129
7.47311
5.72691
4.06106
2.40751
1.10927
-0.373887
-0.754134
-2.54162
-0.835488
68.7353
63.3473
58.4971
54.1324
50.205
46.6705
43.4877
40.6184
38.0271
35.6792
33.5412
31.5812
29.7731
28.0986
26.5523
25.1412
23.8672
22.6935
21.5312
20.2921
18.9929
17.8135
17.0135
16.732
16.8227
16.8641
16.3552
14.9782
12.7708
10.113
7.5504
5.57776
4.49882
4.39351
5.15461
6.54911
8.28123
10.0494
11.5926
12.7205
13.3257
13.3774
12.9082
11.9903
10.7234
9.20363
7.54829
5.81848
4.16177
2.50992
1.20712
-0.288056
-0.68346
-2.49945
-0.831778
74.7892
68.822
63.4463
58.6057
54.2481
50.3256
46.7937
43.6115
40.7412
38.1475
35.7961
33.6537
31.689
29.8757
28.1959
26.6439
25.2268
23.9468
22.7679
21.602
20.361
19.0594
17.8737
17.0615
16.7639
16.8412
16.8801
16.3841
15.0334
12.8573
10.2236
7.66766
5.68011
4.56736
4.41685
5.13028
6.48236
8.18256
9.93194
11.47
12.6054
13.2285
13.3059
12.8677
11.9828
10.7475
9.25592
7.62353
5.90988
4.26217
2.61206
1.30475
-0.202396
-0.612931
-2.45736
-0.827968
74.869
68.9156
63.5515
58.7199
54.3689
50.4506
46.9208
43.7388
40.8671
38.2705
35.9153
33.7683
31.7986
29.9799
28.2945
26.7367
25.3134
24.0272
22.8429
21.6734
20.4305
19.1265
17.9346
17.1099
16.7959
16.8597
16.8959
16.4129
15.0889
12.9443
10.3348
7.78564
5.78305
4.63629
4.44035
5.1059
6.4154
8.08359
9.81414
11.3471
12.4899
13.1306
13.2339
12.8272
11.9752
10.7716
9.30829
7.69861
6.00097
4.36227
2.71397
1.40218
-0.116913
-0.542557
-2.41536
-0.824055
74.956
69.0159
63.6627
58.8396
54.4946
50.58
47.0519
43.8696
40.996
38.3962
36.0368
33.8849
31.9098
30.0856
28.3944
26.8305
25.401
24.1084
22.9186
21.7454
20.5005
19.1942
17.9959
17.1587
16.8281
16.8781
16.9116
16.4417
15.1446
13.0318
10.4468
7.90432
5.88657
4.70559
4.46399
5.08145
6.34823
7.9843
9.69609
11.2239
12.3736
13.0322
13.1623
12.787
11.9677
10.7958
9.36048
7.77337
6.09177
4.46214
2.81564
1.49938
-0.0316193
-0.472343
-2.37343
-0.820033
75.0499
69.1226
63.7798
58.9645
54.625
50.7136
47.1866
44.0036
41.1277
38.5244
36.1604
34.0034
32.0227
30.1927
28.4955
26.9255
25.4894
24.1904
22.9949
21.818
20.5712
19.2625
18.0578
17.2078
16.8605
16.8965
16.9272
16.4705
15.2005
13.1197
10.5593
8.02366
5.99064
4.77524
4.48776
5.05694
6.28083
7.88479
9.57768
11.0997
12.2566
12.9344
13.0914
12.7469
11.9603
10.8198
9.41239
7.84786
6.18232
4.56175
2.91707
1.59636
0.0534789
-0.402294
-2.3316
-0.815897
75.1505
69.2354
63.9024
59.0945
54.7599
50.8513
47.3249
44.1408
41.2622
38.655
36.2862
34.1236
32.1371
30.3011
28.5978
27.0215
25.5788
24.2731
23.0719
21.8912
20.6423
19.3314
18.1202
17.2573
16.8929
16.9148
16.9426
16.4993
15.2566
13.2081
10.6725
8.14363
6.09524
4.84524
4.51165
5.03236
6.21328
7.78497
9.45824
10.9747
12.1405
12.8376
13.0207
12.707
11.9528
10.8436
9.46408
7.92213
6.27263
4.6611
3.01823
1.6931
0.138377
-0.332413
-2.28984
-0.811641
75.2576
69.3542
64.0304
59.2293
54.8992
50.9928
47.4667
44.281
41.3994
38.7878
36.4139
34.2456
32.253
30.4108
28.7012
27.1184
25.669
24.3566
23.1495
21.9648
20.714
19.4007
18.183
17.3072
16.9255
16.933
16.958
16.528
15.3129
13.2969
10.7863
8.26423
6.20035
4.91555
4.53566
5.00774
6.14552
7.68421
9.33812
10.8509
12.0258
12.7413
12.9502
12.667
11.9451
10.8673
9.51558
7.99616
6.36266
4.76016
3.11913
1.78959
0.223071
-0.262703
-2.24818
-0.807259
75.371
69.4787
64.1636
59.3688
55.0426
51.1381
47.6118
44.4241
41.539
38.9229
36.5435
34.3692
32.3703
30.5218
28.8058
27.2163
25.76
24.4407
23.2276
22.039
20.7862
19.4706
18.2464
17.3574
16.9583
16.9512
16.9732
16.5567
15.3693
13.3862
10.9006
8.38541
6.30594
4.98617
4.55977
4.98304
6.07705
7.58289
9.21925
10.7286
11.9114
12.6449
12.8796
12.627
11.9374
10.8908
9.56688
8.06994
6.4524
4.85894
3.21975
1.88583
0.307554
-0.193171
-2.2066
-0.802746
75.4904
69.6087
64.3018
59.5128
55.1902
51.287
47.76
44.57
41.6811
39.0601
36.6749
34.4944
32.4891
30.6339
28.9113
27.3151
25.8518
24.5255
23.3063
22.1137
20.8589
19.5409
18.3101
17.4079
16.9911
16.9694
16.9883
16.5854
15.426
13.4758
11.0155
8.50716
6.41201
5.05705
4.58398
4.95798
6.00822
7.48279
9.10187
10.6067
11.7971
12.5487
12.8091
12.587
11.9296
10.9142
9.61795
8.14343
6.54185
4.95741
3.32008
1.98181
0.391821
-0.123821
-2.16511
-0.798096
75.6156
69.744
64.4448
59.6611
55.3416
51.4393
47.9113
44.7186
41.8256
39.1993
36.8081
34.6211
32.6091
30.7472
29.0179
27.4148
25.9443
24.6109
23.3856
22.1888
20.9321
19.6118
18.3743
17.4586
17.024
16.9875
17.0033
16.6141
15.4829
13.5659
11.1309
8.62947
6.51846
5.12822
4.60827
4.93281
5.94038
7.38401
8.98484
10.4848
11.683
12.4527
12.7388
12.547
11.9218
10.9374
9.66879
8.21665
6.63099
5.05558
3.42012
2.07753
0.475864
-0.0546595
-2.12371
-0.793302
75.7464
69.8845
64.5925
59.8137
55.4968
51.595
48.0655
44.8697
41.9722
39.3404
36.943
34.7493
32.7304
30.8617
29.1255
27.5154
26.0376
24.6969
23.4653
22.2644
21.0057
19.683
18.4389
17.5097
17.0571
17.0055
17.0182
16.6428
15.5399
13.6563
11.2469
8.75223
6.62536
5.19989
4.63271
4.90829
5.87355
7.28546
8.86782
10.3632
11.5692
12.3569
12.6686
12.5071
11.9139
10.9604
9.71938
8.28958
6.71982
5.15343
3.51986
2.17297
0.559676
0.0143086
-2.0824
-0.788357
75.8827
70.0298
64.7446
59.9703
55.6556
51.7538
48.2225
45.0233
42.1211
39.4835
37.0795
34.8789
32.853
30.9772
29.2339
27.6167
26.1315
24.7834
23.5455
22.3405
21.0797
19.7548
18.5039
17.5611
17.0903
17.0235
17.033
16.6715
15.5971
13.7472
11.3633
8.87552
6.73314
5.27198
4.65731
4.88425
5.80677
7.18689
8.75106
10.2419
11.4558
12.2614
12.5986
12.4672
11.9058
10.9832
9.76971
8.3622
6.80832
5.25095
3.61928
2.26813
0.643251
0.0830777
-2.04119
-0.783256
76.0241
70.1799
64.901
60.1308
55.8178
51.9157
48.3822
45.1792
42.272
39.6283
37.2176
35.0099
32.9767
31.0937
29.3433
27.7188
26.2261
24.8706
23.6261
22.4169
21.1541
19.8269
18.5693
17.6127
17.1235
17.0414
17.0477
16.7002
15.6546
13.8383
11.4801
8.9999
6.84151
5.34369
4.68178
4.86006
5.73991
7.08858
8.63478
10.1211
11.3427
12.1662
12.5287
12.4273
11.8977
11.0059
9.81979
8.43452
6.89649
5.34813
3.71838
2.36299
0.72658
0.151641
-2.00007
-0.777991
76.1706
70.3346
65.0617
60.295
55.9833
52.0805
48.5445
45.3375
42.4249
39.7749
37.3572
35.1422
33.1016
31.2112
29.4535
27.8216
26.3213
24.9582
23.7072
22.4937
21.2289
19.8994
18.6351
17.6645
17.1568
17.0593
17.0624
16.7289
15.7121
13.9298
11.5981
9.12493
6.949
5.41463
4.70588
4.83573
5.67328
6.99073
8.51897
10.0008
11.23
12.0711
12.4589
12.3874
11.8895
11.0284
9.86959
8.50651
6.98431
5.44495
3.81714
2.45754
0.809656
0.219992
-1.95904
-0.772555
76.3219
70.4937
65.2263
60.4628
56.152
52.2481
48.7093
45.4979
42.5797
39.9232
37.4983
35.2757
33.2275
31.3297
29.5646
27.9252
26.4172
25.0464
23.7888
22.5709
21.3041
19.9724
18.7012
17.7166
17.1903
17.0772
17.0769
16.7575
15.7698
14.0222
11.7167
9.24874
7.05518
5.485
4.72976
4.81152
5.60702
6.89332
8.40357
9.88078
11.1176
11.9764
12.3892
12.3475
11.8811
11.0506
9.91911
8.57816
7.07176
5.54141
3.91555
2.55179
0.892471
0.288127
-1.91811
-0.766939
76.4778
70.6571
65.3948
60.634
56.3238
52.4185
48.8765
45.6605
42.7364
40.073
37.6407
35.4104
33.3545
31.449
29.6764
28.0294
26.5136
25.135
23.8707
22.6485
21.3797
20.0457
18.7676
17.769
17.2238
17.095
17.0914
16.7862
15.8281
14.115
11.8339
9.37092
7.16066
5.55509
4.75363
4.78753
5.54107
6.79627
8.28858
9.76121
11.0055
11.8819
12.3197
12.3076
11.8727
11.0727
9.96833
8.64947
7.15884
5.63749
4.01361
2.6457
0.975018
0.356039
-1.87728
-0.761136
76.6383
70.8246
65.567
60.8086
56.4986
52.5915
49.0461
45.8251
42.8948
40.2245
37.7845
35.5463
33.4824
31.5692
29.7889
28.1343
26.6105
25.2241
23.953
22.7265
21.4556
20.1193
18.8344
17.8215
17.2573
17.1127
17.1058
16.8151
15.8866
14.2066
11.9495
9.49241
7.26584
5.62501
4.77752
4.76369
5.4754
6.6996
8.17404
9.64207
10.8938
11.7876
12.2503
12.2678
11.8641
11.0945
10.0172
8.72041
7.24552
5.73318
4.11129
2.73929
1.05729
0.42372
-1.83654
-0.75514
76.8031
70.996
65.7427
60.9863
56.6762
52.7671
49.2179
45.9916
43.055
40.3773
37.9296
35.6833
33.6113
31.6902
29.9022
28.2398
26.708
25.3136
24.0357
22.8048
21.5319
20.1934
18.9014
17.8743
17.291
17.1304
17.1203
16.8441
15.9443
14.297
12.0646
9.61361
7.37071
5.69471
4.80132
4.73995
5.41
6.60335
8.05997
9.52339
10.7825
11.6936
12.1811
12.2279
11.8554
11.1161
10.0658
8.79097
7.33181
5.82846
4.20859
2.83253
1.13928
0.491163
-1.7959
-0.74894
76.9722
71.1713
65.9219
61.1671
56.8565
52.9451
49.3918
46.1601
43.2168
40.5316
38.0758
35.8213
33.7412
31.812
30.0162
28.3459
26.806
25.4036
24.1188
22.8834
21.6085
20.2677
18.9688
17.9272
17.3247
17.1482
17.1348
16.8728
16.0013
14.387
12.1794
9.73441
7.47513
5.76407
4.825
4.71631
5.34492
6.50753
7.94638
9.40517
10.6716
11.5999
12.112
12.188
11.8466
11.1374
10.1141
8.86114
7.41767
5.92333
4.3055
2.92541
1.22096
0.558362
-1.75537
-0.742528
77.1452
71.3503
66.1044
61.3509
57.0395
53.1254
49.5678
46.3303
43.3802
40.6873
38.2233
35.9603
33.8719
31.9346
30.1308
28.4525
26.9046
25.494
24.2023
22.9624
21.6855
20.3424
19.0365
17.9804
17.3586
17.1661
17.1493
16.9012
16.0582
14.477
12.2938
9.8546
7.579
5.83309
4.84858
4.69283
5.28017
6.41218
7.8333
9.28743
10.5611
11.5065
12.043
12.1481
11.8376
11.1584
10.162
8.93091
7.5031
6.01776
4.40199
3.01791
1.30235
0.62531
-1.71493
-0.735896
77.3222
71.5327
66.29
61.5375
57.2251
53.308
49.7458
46.5023
43.545
40.8443
38.3719
36.1004
34.0034
32.0579
30.2461
28.5598
27.0035
25.5848
24.286
23.0416
21.7627
20.4173
19.1044
18.0339
17.3927
17.184
17.1638
16.9297
16.1151
14.5666
12.4076
9.97414
7.68233
5.90179
4.87209
4.66951
5.21578
6.31729
7.72073
9.17019
10.451
11.4133
11.9742
12.1082
11.8285
11.1792
10.2096
9.00026
7.58808
6.11174
4.49806
3.11004
1.38343
0.692
-1.67459
-0.729035
77.5029
71.7186
66.4787
61.7268
57.4131
53.4927
49.9257
46.6759
43.7113
41.0025
38.5215
36.2413
34.1358
32.1819
30.362
28.6676
27.103
25.676
24.3701
23.1212
21.8402
20.4926
19.1729
18.0877
17.4267
17.2019
17.1784
16.9583
16.1718
14.6557
12.5208
10.093
7.78515
5.97017
4.89554
4.64636
5.15174
6.22288
7.6087
9.05345
10.3413
11.3205
11.9055
12.0683
11.8192
11.1998
10.2567
9.06917
7.6726
6.20525
4.59369
3.20178
1.46418
0.758421
-1.63436
-0.721936
77.6872
71.9077
66.6703
61.9188
57.6034
53.6796
50.1074
46.8512
43.879
41.1619
38.6722
36.3832
34.2689
32.3067
30.4785
28.7758
27.2029
25.7676
24.4546
23.201
21.918
20.5685
19.2417
18.1412
17.4604
17.2198
17.1931
16.9869
16.2282
14.7442
12.6333
10.2113
7.88743
6.03823
4.9189
4.62337
5.08808
6.12898
7.49722
8.93723
10.232
11.2279
11.8369
12.0284
11.8098
11.22
10.3035
9.13762
7.75662
6.29828
4.68886
3.29311
1.54459
0.824567
-1.59423
-0.714589
77.8749
72.0999
66.8648
62.1134
57.7961
53.8684
50.2908
47.0279
44.0481
41.3225
38.8239
36.5259
34.4028
32.432
30.5956
28.8846
27.3032
25.8595
24.5393
23.2811
21.9965
20.6448
19.3099
18.1941
17.494
17.2377
17.2078
17.0153
16.2844
14.8324
12.7452
10.3289
7.98917
6.10594
4.94219
4.60057
5.02481
6.03561
7.38631
8.82156
10.1232
11.1356
11.7685
11.9884
11.8001
11.2399
10.3499
9.20561
7.84015
6.39081
4.78357
3.38402
1.62467
0.890431
-1.55421
-0.706984
78.0661
72.2952
67.062
62.3104
57.9909
54.0592
50.4759
47.2061
44.2184
41.4841
38.9766
36.6695
34.5375
32.558
30.7132
28.9939
27.404
25.9517
24.6242
23.3618
22.0754
20.7204
19.3773
18.2467
17.5275
17.2557
17.2227
17.0438
16.3403
14.92
12.8565
10.4458
8.09033
6.17331
4.96541
4.57797
4.96195
5.94278
7.276
8.70644
10.0149
11.0437
11.7002
11.9485
11.7903
11.2595
10.3959
9.2731
7.92316
6.48282
4.87779
3.47449
1.70439
0.956002
-1.51429
-0.699111
78.2604
72.4934
67.2619
62.5098
58.1877
54.2518
50.6627
47.3858
44.3899
41.6469
39.1302
36.8138
34.6728
32.6846
30.8313
29.1037
27.505
26.0443
24.7099
23.443
22.1535
20.795
19.4443
18.2991
17.561
17.2738
17.2376
17.0722
16.3959
15.0071
12.967
10.562
8.19089
6.24032
4.98856
4.55557
4.89951
5.85052
7.16629
8.5919
9.90697
10.9521
11.6321
11.9085
11.7803
11.2787
10.4414
9.34009
8.00564
6.57429
4.9715
3.56451
1.78374
1.02127
-1.47448
-0.690961
78.4578
72.6944
67.4643
62.7115
58.3866
54.4461
50.851
47.5668
44.5626
41.8107
39.2847
36.959
34.8088
32.8118
30.95
29.2138
27.6065
26.1376
24.796
23.5234
22.2306
20.8692
19.5111
18.3513
17.5944
17.2919
17.2526
17.1005
16.4513
15.0937
13.0769
10.6774
8.29086
6.30697
5.01164
4.53339
4.83753
5.75885
7.05722
8.47795
9.79957
10.8608
11.5641
11.8684
11.7701
11.2977
10.4864
9.40655
8.08755
6.66521
5.0647
3.65407
1.86271
1.08623
-1.43478
-0.682522
78.6582
72.8981
67.6691
62.9153
58.5875
54.6422
51.0408
47.7491
44.7365
41.9755
39.44
37.1048
34.9454
32.9396
31.0691
29.3243
27.7088
26.2315
24.8814
23.6029
22.3074
20.9432
19.5777
18.4034
17.6278
17.3101
17.2676
17.1288
16.5064
15.1798
13.186
10.7922
8.3902
6.37325
5.03466
4.51144
4.776
5.66778
6.94881
8.36461
9.69267
10.7698
11.4963
11.8283
11.7596
11.3162
10.531
9.47246
8.16888
6.75556
5.15736
3.74315
1.94129
1.15087
-1.39518
-0.673784
78.8615
73.1045
67.8764
63.1213
58.7902
54.8399
51.232
47.9327
44.9115
42.1412
39.5962
37.2514
35.0827
33.0678
31.1887
29.4359
27.8117
26.3244
24.9658
23.682