/*--------------------------------*- C++ -*----------------------------------*\
  =========                 |
  \\      /  F ield         | OpenFOAM: The Open Source CFD Toolbox
   \\    /   O peration     | Website:  https://openfoam.org
    \\  /    A nd           | Version:  7
     \\/     M anipulation  |
\*---------------------------------------------------------------------------*/
FoamFile
{
    version     2.0;
    format      ascii;
    class       surfaceScalarField;
    location    "400";
    object      phi;
}
// * * * * * * * * * * * * * * * * * * * * * * * * * * * * * * * * * * * * * //

dimensions      [0 3 -1 0 0 0 0];

internalField   nonuniform List<scalar> 
45693
(
-0.00164223
0.0667934
-0.001646
0.064841
-0.00157583
0.0667952
-0.00164952
0.062446
-0.00157942
0.0648446
-0.00151221
0.0667969
0.0601961
-0.00158281
0.0624494
-0.00151563
0.064848
-0.00145102
0.0667986
-0.00158585
0.0601991
-0.0015189
0.0624527
-0.00145428
0.0648513
-0.00139236
0.0668001
-0.00158867
0.0579346
-0.00152184
0.060202
-0.00145743
0.0624558
-0.00139545
0.0648544
-0.00133612
0.0668015
-0.00159093
0.0557229
-0.00152458
0.0579374
-0.00146026
0.0602049
-0.00139849
0.0624589
-0.00133907
0.0648573
-0.00128211
0.0668028
-0.00159252
0.053595
-0.0015268
0.0557251
-0.00146293
0.05794
-0.00140123
0.0602076
-0.00134198
0.0624618
-0.00128491
0.0648601
-0.00123027
0.0668041
-0.00159321
0.0515529
-0.00152839
0.0535966
-0.00146511
0.0557273
-0.00140382
0.0579426
-0.00134463
0.0602102
-0.00128771
0.0624646
-0.00123293
0.0648628
-0.00118051
0.0668052
-0.00159289
0.0496043
-0.00152912
0.0515536
-0.00146669
0.0535982
-0.00140596
0.0557294
-0.00134715
0.0579452
-0.00129026
0.0602128
-0.00123562
0.0624673
-0.00118302
0.0648653
-0.00113281
0.0668063
0.0477957
-0.00152888
0.049604
-0.00146747
0.0515544
-0.00140754
0.0535998
-0.00134925
0.0557315
-0.00129271
0.0579476
-0.00123808
0.0602153
-0.00118562
0.0624699
-0.0011352
0.0648677
-0.00108704
0.0668073
-0.00152759
0.0477944
-0.0014673
0.0496039
-0.00140834
0.0515552
-0.00135081
0.0536013
-0.00129477
0.0557336
-0.00124046
0.05795
-0.00118798
0.0602176
-0.00113769
0.0624724
-0.0010893
0.0648699
-0.00104308
0.0668082
-0.00152529
0.0461166
-0.00146612
0.0477933
-0.00140825
0.0496038
-0.00135165
0.051556
-0.00129632
0.0536029
-0.00124247
0.0557356
-0.00119029
0.0579523
-0.00113997
0.0602199
-0.00109169
0.0624748
-0.00104522
0.0648721
-0.00100094
0.066809
-0.00152212
0.0445937
-0.00146396
0.0461144
-0.00140718
0.0477922
-0.00135162
0.0496038
-0.00129718
0.0515569
-0.00124402
0.0536044
-0.00119226
0.0557376
-0.00114221
0.0579545
-0.00109388
0.0602221
-0.00104751
0.0624771
-0.00100296
0.0648741
-0.000960473
0.0668098
-0.00151834
0.0432277
-0.00146094
0.0445906
-0.00140515
0.0461124
-0.00135065
0.0477912
-0.00129722
0.0496038
-0.0012449
0.0515578
-0.00119379
0.053606
-0.00114413
0.0557395
-0.00109605
0.0579567
-0.00104963
0.0602242
-0.00100516
0.0624793
-0.000962381
0.064876
-0.000921618
0.0668105
0.0419991
-0.00145731
0.0432241
-0.00140227
0.0445878
-0.00134875
0.0461105
-0.00129635
0.0477904
-0.001245
0.0496039
-0.00119469
0.0515587
-0.00114564
0.0536075
-0.00109793
0.0557414
-0.00105173
0.0579588
-0.0010072
0.0602262
-0.000964491
0.0624814
-0.000923419
0.0648778
-0.000884379
0.0668111
-0.00145344
0.0419952
-0.0013988
0.0432206
-0.00134602
0.044585
-0.00129457
0.0461087
-0.00124422
0.0477896
-0.00119484
0.0496041
-0.00114656
0.0515596
-0.00109943
0.053609
-0.00105356
0.0557432
-0.00100923
0.0579608
-0.000966447
0.0602282
-0.000925442
0.0624834
-0.000886078
0.0648795
-0.000848655
0.0668117
-0.00144972
0.0409067
-0.00139505
0.0419915
-0.00134269
0.0432172
-0.00129198
0.0445824
-0.00124255
0.0461071
-0.00119415
0.0477889
-0.00114677
0.0496043
-0.00110036
0.0515605
-0.00105504
0.0536105
-0.00101102
0.055745
-0.000968417
0.0579628
-0.00092732
0.0602301
-0.000888015
0.0624853
-0.000850254
0.0648811
-0.000814343
0.0668123
0.0398994
-0.00139143
0.040903
-0.00133907
0.0419878
-0.00128878
0.0432141
-0.0012401
0.04458
-0.0011926
0.0461055
-0.00114616
0.0477883
-0.00110061
0.0496045
-0.00105599
0.0515615
-0.00101248
0.0536119
-0.00097016
0.0557468
-0.000929226
0.0579647
-0.000889819
0.0602319
-0.000852109
0.0624872
-0.000815849
0.0648826
-0.000781395
0.0668128
-0.00138836
0.0398963
-0.00133555
0.0408995
-0.00128529
0.0419843
-0.00123704
0.043211
-0.00119028
0.0445777
-0.00114472
0.0461041
-0.00110008
0.0477877
-0.00105628
0.0496048
-0.00101344
0.0515624
-0.000971595
0.0536134
-0.000930924
0.0557485
-0.000891661
0.0579666
-0.000853841
0.0602336
-0.000817624
0.062489
-0.000782811
0.064884
-0.000749859
0.0668132
-0.00138625
0.0389632
-0.00133254
0.0398933
-0.00128187
0.0408961
-0.00123367
0.041981
-0.00118735
0.0432081
-0.00114252
0.0445755
-0.00109875
0.0461027
-0.00105582
0.0477873
-0.00101377
0.0496051
-0.000972558
0.0515634
-0.000932336
0.0536148
-0.000893314
0.0557501
-0.000855621
0.0579683
-0.000819286
0.0602353
-0.000784508
0.0624907
-0.000751189
0.0648853
-0.000719535
0.0668136
-0.00138542
0.0380531
-0.00133043
0.0389611
-0.00127891
0.0398903
-0.00123035
0.0408928
-0.00118411
0.0419777
-0.00113972
0.0432053
-0.00109667
0.0445734
-0.00105459
0.0461015
-0.00101338
0.0477869
-0.000972929
0.0496055
-0.000933304
0.0515644
-0.000894703
0.0536162
-0.00085723
0.0557517
-0.000821005
0.0579701
-0.000786102
0.0602369
-0.000752812
0.0624923
-0.000720782
0.0648866
-0.000690471
0.0668139
-0.00138607
0.0371329
-0.00132954
0.0380522
-0.00127681
0.038959
-0.00122745
0.0398874
-0.00118088
0.0408895
-0.0011366
0.0419746
-0.001094
0.0432026
-0.00105263
0.0445714
-0.00101224
0.0461004
-0.00097261
0.0477866
-0.000933709
0.0496059
-0.000895673
0.0515653
-0.000858594
0.0536175
-0.000822569
0.0557533
-0.000787761
0.0579717
-0.00075434
0.0602384
-0.000722333
0.0624938
-0.000691639
0.0648878
-0.000662517
0.0668142
0.0361622
-0.00133008
0.0371334
-0.00127587
0.0380513
-0.00122535
0.0389569
-0.00117804
0.0398846
-0.00113346
0.0408864
-0.00109099
0.0419716
-0.00105008
0.0432001
-0.00101039
0.0445696
-0.000971562
0.0460993
-0.000933452
0.0477863
-0.000896109
0.0496063
-0.000859564
0.0515663
-0.000823908
0.0536189
-0.00078928
0.0557548
-0.00075594
0.0579733
-0.000723797
0.0602399
-0.000693121
0.0624953
-0.000663611
0.0648889
-0.000635823
0.0668145
-0.00133207
0.0361642
-0.00127631
0.0371338
-0.00122437
0.0380503
-0.00117595
0.0389548
-0.00113068
0.0398818
-0.00108795
0.0408834
-0.00104719
0.0419687
-0.00100797
0.0431976
-0.000969821
0.0445678
-0.000932491
0.0460984
-0.00089591
0.0477861
-0.000860028
0.0496068
-0.000824877
0.0515673
-0.000790593
0.0536202
-0.000757415
0.0557563
-0.00072534
0.0579749
-0.000694523
0.0602413
-0.000665025
0.0624967
-0.000636845
0.0648899
-0.000610038
0.0668147
-0.00133533
0.0351169
-0.00127816
0.036166
-0.00122471
0.0371342
-0.00117493
0.0380493
-0.00112861
0.0389527
-0.00108523
0.0398791
-0.00104424
0.0408804
-0.00100519
0.0419659
-0.00096751
0.0431953
-0.000930855
0.0445662
-0.000895033
0.0460975
-0.000859885
0.047786
-0.000825365
0.0496073
-0.000791559
0.0515682
-0.000758702
0.0536215
-0.000726771
0.0557577
-0.00069601
0.0579763
-0.000666366
0.0602426
-0.000638195
0.0624981
-0.000610992
0.0648908
-0.000585461
0.0668149
0.033979
-0.00128124
0.03512
-0.00122641
0.0361677
-0.00117518
0.0371344
-0.00112755
0.0380482
-0.00108318
0.0389507
-0.00104158
0.0398764
-0.00100233
0.0408776
-0.000964838
0.0419632
-0.000928657
0.0431931
-0.000893497
0.0445646
-0.000859086
0.0460967
-0.000825273
0.0477859
-0.00079207
0.0496078
-0.000759663
0.0515692
-0.00072803
0.0536227
-0.000697398
0.0557591
-0.000667799
0.0579778
-0.000639478
0.0602439
-0.000612279
0.0624994
-0.00058635
0.0648917
-0.000561742
0.0668151
-0.00128516
0.0339829
-0.00122933
0.0351229
-0.00117675
0.0361693
-0.00112771
0.0371346
-0.00108209
0.0380471
-0.00103955
0.0389486
-0.000999738
0.0398739
-0.000962078
0.0408748
-0.000926092
0.0419607
-0.000891408
0.043191
-0.000857648
0.0445632
-0.00082455
0.046096
-0.000792027
0.0477858
-0.000760194
0.0496083
-0.000728986
0.0515701
-0.000698629
0.0536239
-0.000669144
0.0557604
-0.000640857
0.0579792
-0.000613505
0.0602451
-0.000587577
0.0625006
-0.000562569
0.0648925
-0.00053908
0.0668152
-0.00128929
0.0327552
-0.00123308
0.0339866
-0.0011795
0.0351257
-0.00112915
0.0361708
-0.00108216
0.0371347
-0.00103843
0.038046
-0.000997724
0.0389466
-0.000959545
0.0398713
-0.000923423
0.0408721
-0.000888949
0.0419582
-0.000855664
0.0431891
-0.000823205
0.0445619
-0.000791375
0.0460953
-0.000760195
0.0477858
-0.000729534
0.0496089
-0.000699577
0.0515711
-0.000670347
0.0536251
-0.00064216
0.0557617
-0.000614832
0.0579805
-0.000588749
0.0602463
-0.000563738
0.0625018
-0.000539849
0.0648933
-0.000517326
0.0668153
0.0314674
-0.00123707
0.0327592
-0.00118309
0.0339902
-0.00113175
0.0351283
-0.00108348
0.0361721
-0.00103843
0.0371347
-0.000996577
0.0380448
-0.000957553
0.0389446
-0.000920952
0.0398688
-0.000886369
0.0408696
-0.000853307
0.0419559
-0.000821323
0.0431872
-0.000790119
0.0445606
-0.000759611
0.0460947
-0.000729577
0.0477859
-0.000700141
0.0496095
-0.000671286
0.051572
-0.000643336
0.0536263
-0.000616093
0.055763
-0.000590025
0.0579818
-0.000564858
0.0602474
-0.000540962
0.0625029
-0.000518039
0.064894
-0.000496377
0.0668154
-0.00124059
0.0314709
-0.00118693
0.032763
-0.00113518
0.0339936
-0.00108593
0.0351307
-0.00103963
0.0361733
-0.000996504
0.0371346
-0.000956384
0.0380437
-0.000918985
0.0389427
-0.00088396
0.0398664
-0.000850815
0.0408671
-0.000819066
0.0419536
-0.000788335
0.0431854
-0.00075844
0.0445594
-0.000729057
0.0460942
-0.000700222
0.047786
-0.000671862
0.04961
-0.000644265
0.051573
-0.00061724
0.0536275
-0.000591246
0.0557642
-0.000566084
0.057983
-0.000542031
0.0602485
-0.000519098
0.0625039
-0.000497037
0.0648947
-0.000476335
0.0668155
-0.001243
0.0301707
-0.00119035
0.0314743
-0.00113888
0.0327667
-0.00108919
0.0339969
-0.00104193
0.035133
-0.000997591
0.0361744
-0.000956244
0.0371344
-0.000917798
0.0380425
-0.00088202
0.0389407
-0.000848469
0.0398641
-0.000816661
0.0408647
-0.000786176
0.0419515
-0.000756752
0.0431837
-0.000727968
0.0445583
-0.000699763
0.0460937
-0.00067198
0.0477861
-0.000644852
0.0496106
-0.000618158
0.0515739
-0.000592364
0.0536286
-0.000567264
0.0557654
-0.000543209
0.0579842
-0.000520118
0.0602495
-0.000498045
0.0625049
-0.000476945
0.0648953
-0.000457098
0.0668155
0.0289243
-0.00119272
0.0301731
-0.0011422
0.0314776
-0.00109276
0.0327703
-0.00104504
0.034
-0.000999756
0.0351352
-0.000957224
0.0361753
-0.000917596
0.0371342
-0.000880818
0.0380413
-0.000846557
0.0389388
-0.000814378
0.0398618
-0.000783857
0.0408624
-0.000754688
0.0419494
-0.000726372
0.0431821
-0.000698753
0.0445573
-0.000671578
0.0460933
-0.000645002
0.0477862
-0.000618754
0.0496112
-0.00059327
0.0515748
-0.000568353
0.0536297
-0.00054435
0.0557665
-0.000521249
0.0579853
-0.000499017
0.0602505
-0.000477903
0.0625059
-0.00045766
0.0648959
-0.000438617
0.0668155
-0.00119373
0.0289253
-0.00114453
0.0301754
-0.00109599
0.0314809
-0.00104848
0.0327737
-0.00100272
0.034003
-0.000959254
0.0351372
-0.000918474
0.0361762
-0.000880558
0.037134
-0.000845343
0.0380401
-0.000812496
0.0389369
-0.000781637
0.0398596
-0.000752453
0.0408601
-0.0007244
0.0419474
-0.000697245
0.0431806
-0.000670643
0.0445564
-0.000644655
0.046093
-0.000618935
0.0477864
-0.000593873
0.0496118
-0.000569246
0.0515757
-0.00054541
0.0536307
-0.000522351
0.0557676
-0.000500103
0.0579864
-0.000478829
0.0602514
-0.000458571
0.0625068
-0.000439134
0.0648964
-0.00042094
0.0668155
-0.00119349
0.0277817
-0.00114554
0.0289263
-0.00109828
0.0301777
-0.00105161
0.031484
-0.00100602
0.032777
-0.000962079
0.0340058
-0.000920375
0.0351391
-0.000881339
0.036177
-0.000845029
0.0371337
-0.000811272
0.0380388
-0.000779785
0.0389351
-0.000750294
0.0398574
-0.000722247
0.040858
-0.000695363
0.0419455
-0.000669221
0.0431792
-0.00064379
0.0445555
-0.000618638
0.0460927
-0.000594081
0.0477866
-0.000569854
0.0496124
-0.000546289
0.0515766
-0.000523382
0.0536318
-0.000501166
0.0557687
-0.000479871
0.0579874
-0.000459453
0.0602523
-0.000439998
0.0625077
-0.000421414
0.0648969
-0.000403868
0.0668155
0.026776
-0.00114534
0.0277815
-0.00109929
0.0289273
-0.00105386
0.0301799
-0.00100906
0.031487
-0.000965251
0.0327802
-0.000923061
0.0340085
-0.000883116
0.0351409
-0.000845719
0.0361777
-0.000810909
0.0371333
-0.000778556
0.0380376
-0.000748475
0.0389333
-0.000720151
0.0398553
-0.000693291
0.0408559
-0.000667426
0.0419437
-0.00064245
0.0431778
-0.000617842
0.0445547
-0.000593833
0.0460924
-0.000570088
0.0477869
-0.000546901
0.049613
-0.000524246
0.0515774
-0.000502169
0.0536328
-0.000480896
0.0557697
-0.000460452
0.0579884
-0.000440838
0.0602531
-0.000422235
0.0625085
-0.000404302
0.0648973
-0.0003876
0.0668154
-0.00114444
0.0267751
-0.00109912
0.0277813
-0.00105488
0.0289284
-0.00101127
0.0301821
-0.000968198
0.03149
-0.000926108
0.0327832
-0.000885668
0.034011
-0.000847377
0.0351426
-0.000811512
0.0361783
-0.000778146
0.0371329
-0.000747242
0.0380364
-0.000718366
0.0389315
-0.000691257
0.0398533
-0.000665433
0.0408539
-0.000640741
0.041942
-0.000616582
0.0431766
-0.000593102
0.044554
-0.000569885
0.0460922
-0.000547158
0.0477871
-0.000524861
0.0496136
-0.000503018
0.0515783
-0.000481871
0.0536337
-0.00046144
0.0557707
-0.000441795
0.0579894
-0.000423034
0.0602539
-0.00040508
0.0625093
-0.000387996
0.0648977
-0.000371936
0.0668154
-0.00114358
0.0258913
-0.00109827
0.0267742
-0.00105474
0.0277812
-0.00101229
0.0289294
-0.00097036
0.0301843
-0.000928964
0.0314928
-0.000888593
0.0327862
-0.000849799
0.0340135
-0.000813056
0.0351441
-0.000778667
0.0361788
-0.000746791
0.0371324
-0.000717131
0.0380351
-0.000689506
0.0389297
-0.000663461
0.0398513
-0.000638825
0.040852
-0.000614954
0.0419404
-0.000591917
0.0431754
-0.000569215
0.0445533
-0.000546996
0.0460921
-0.000525139
0.0477874
-0.000503633
0.0496143
-0.000482704
0.0515791
-0.000462386
0.0536347
-0.000442748
0.0557717
-0.00042395
0.0579903
-0.000405839
0.0602547
-0.000388734
0.06251
-0.000372295
0.064898
-0.000356935
0.0668153
-0.00114332
0.0250906
-0.00109741
0.0258904
-0.00105392
0.0267734
-0.00101219
0.0277811
-0.000971391
0.0289304
-0.000931083
0.0301864
-0.00089136
0.0314956
-0.000852605
0.032789
-0.000815352
0.0340158
-0.000780102
0.0351455
-0.000747234
0.0361793
-0.000716641
0.037132
-0.000688272
0.0380339
-0.000661745
0.038928
-0.000636913
0.0398494
-0.000613115
0.0408501
-0.000590369
0.0419389
-0.000568104
0.0431743
-0.000546386
0.0445527
-0.000525017
0.046092
-0.000503929
0.0477877
-0.000483318
0.0496149
-0.000463203
0.0515799
-0.000443665
0.0536356
-0.000424868
0.0557726
-0.000406717
0.0579912
-0.000389455
0.0602554
-0.000372995
0.0625107
-0.000357261
0.0648984
-0.000342503
0.0668152
-0.00114388
0.0243197
-0.00109713
0.0250903
-0.00105308
0.0258896
-0.0010114
0.0267726
-0.000971322
0.027781
-0.000932117
0.0289315
-0.000893436
0.0301885
-0.000855284
0.0314983
-0.000818042
0.0327916
-0.000782277
0.0340179
-0.000748564
0.0351469
-0.000717011
0.0361796
-0.000687748
0.0371314
-0.000660515
0.0380327
-0.000635234
0.0389263
-0.000611264
0.0398476
-0.000588604
0.0408484
-0.000566633
0.0419374
-0.000545345
0.0431732
-0.000524462
0.0445522
-0.000503844
0.0460919
-0.000483632
0.047788
-0.000463815
0.0496155
-0.000444465
0.0515807
-0.000425758
0.0536365
-0.0004076
0.0557735
-0.000390294
0.057992
-0.000373679
0.0602561
-0.000357923
0.0625114
-0.000342796
0.0648987
-0.000328674
0.0668151
-0.00114507
0.0235376
-0.00109764
0.0243202
-0.00105278
0.02509
-0.00101058
0.0258887
-0.000970571
0.0267719
-0.00093208
0.027781
-0.000894473
0.0289325
-0.000857317
0.0301905
-0.000820635
0.0315009
-0.000784854
0.0327942
-0.000750623
0.03402
-0.000718242
0.0351481
-0.000688049
0.0361799
-0.000659959
0.0371309
-0.000634009
0.0380315
-0.000609621
0.0389247
-0.000586812
0.0398458
-0.000564941
0.0408467
-0.000543949
0.041936
-0.000523488
0.0431723
-0.000503342
0.0445517
-0.000483581
0.0460918
-0.000464144
0.0477883
-0.000445075
0.0496161
-0.00042654
0.0515815
-0.000408462
0.0536374
-0.000391144
0.0557743
-0.000374482
0.0579928
-0.000358573
0.0602567
-0.000343423
0.062512
-0.000328937
0.0648989
-0.000315403
0.066815
-0.00114651
0.022734
-0.00109877
0.0235387
-0.00105324
0.0243207
-0.00101026
0.0250897
-0.00096976
0.0258879
-0.000931365
0.0267711
-0.000894467
0.027781
-0.000858355
0.0289335
-0.000822625
0.0301925
-0.000787361
0.0315034
-0.000753089
0.0327967
-0.000720187
0.0340219
-0.000689183
0.0351492
-0.000660195
0.0361802
-0.000633424
0.0371303
-0.000608404
0.0380302
-0.000585207
0.0389231
-0.000563209
0.039844
-0.000542327
0.0408451
-0.000522164
0.0419347
-0.000502433
0.0431714
-0.000483129
0.0445512
-0.000464125
0.0460918
-0.000445416
0.0477887
-0.000427146
0.0496167
-0.000409227
0.0515823
-0.000391979
0.0536382
-0.000375299
0.0557751
-0.00035934
0.0579936
-0.000344039
0.0602573
-0.000329529
0.0625126
-0.000315637
0.0648992
-0.000302669
0.0668149
0.0219199
-0.00110014
0.0227354
-0.0010543
0.0235398
-0.00101068
0.0243211
-0.000969427
0.0250894
-0.00093057
0.0258871
-0.000893787
0.0267705
-0.000858379
0.027781
-0.000823663
0.0289346
-0.000789307
0.0301945
-0.000755513
0.0315058
-0.000722546
0.032799
-0.00069102
0.0340238
-0.000661239
0.0351503
-0.0006336
0.0361803
-0.000607794
0.0371297
-0.000583998
0.038029
-0.000561641
0.0389215
-0.000540653
0.0398424
-0.000520611
0.0408435
-0.000501179
0.0419334
-0.000482282
0.0431705
-0.000463721
0.0445508
-0.000445427
0.0460918
-0.000427499
0.047789
-0.000409827
0.0496173
-0.000392726
0.051583
-0.000376107
0.053639
-0.000360125
0.0557759
-0.000344772
0.0579943
-0.000330113
0.0602579
-0.000316196
0.0625132
-0.000302876
0.0648994
-0.000290447
0.0668148
-0.00110144
0.0219212
-0.00105562
0.0227367
-0.00101168
0.0235408
-0.000969798
0.0243215
-0.000930223
0.025089
-0.000893009
0.0258864
-0.000857735
0.0267698
-0.000823717
0.027781
-0.000790345
0.0289356
-0.000757416
0.0301964
-0.000724888
0.0315082
-0.000693275
0.0328013
-0.000662971
0.0340255
-0.000634557
0.0351512
-0.000607912
0.0361805
-0.000583366
0.0371291
-0.000560444
0.0380278
-0.000539124
0.03892
-0.000518994
0.0398407
-0.000499693
0.040842
-0.000481095
0.0419322
-0.000462932
0.0431697
-0.000445067
0.0445505
-0.000427537
0.0460919
-0.00041019
0.0477894
-0.000393321
0.0496179
-0.000376836
0.0515837
-0.000360906
0.0536398
-0.000345526
0.0557767
-0.000330813
0.057995
-0.00031675
0.0602585
-0.000303405
0.0625137
-0.000290629
0.0648995
-0.000278723
0.0668147
-0.00110254
0.0211198
-0.00105687
0.0219225
-0.00101294
0.0227379
-0.000970749
0.0235417
-0.000930553
0.0243218
-0.000892649
0.0250887
-0.000856975
0.0258856
-0.000823107
0.0267692
-0.000790427
0.0277811
-0.000758452
0.0289366
-0.000726747
0.0301982
-0.000695536
0.0315104
-0.000665124
0.0328035
-0.000636188
0.0340271
-0.000608786
0.0351521
-0.000583431
0.0361805
-0.000559792
0.0371284
-0.000537938
0.0380267
-0.000517504
0.0389185
-0.000498134
0.0398392
-0.000479674
0.0408406
-0.00046181
0.0419311
-0.000444336
0.043169
-0.00042722
0.0445501
-0.000410253
0.0460919
-0.000393692
0.0477898
-0.000377424
0.0496185
-0.000361617
0.0515844
-0.000346281
0.0536405
-0.000331537
0.0557774
-0.000317417
0.0579957
-0.000303928
0.060259
-0.000291128
0.0625142
-0.000278881
0.0648997
-0.000267475
0.0668145
0.0203493
-0.00105793
0.0211209
-0.00101414
0.0219237
-0.000971953
0.0227391
-0.00093145
0.0235426
-0.00089294
0.0243221
-0.000856604
0.0250883
-0.000822365
0.0258849
-0.000789852
0.0267686
-0.000758562
0.0277812
-0.00072778
0.0289377
-0.000697351
0.0302
-0.000667305
0.0315126
-0.000638243
0.0328055
-0.00061032
0.0340287
-0.000584227
0.0351529
-0.000559807
0.0361805
-0.000537269
0.0371277
-0.000516332
0.0380255
-0.000496682
0.038917
-0.00047817
0.0398377
-0.000460454
0.0408392
-0.000443276
0.04193
-0.000426542
0.0431683
-0.000409976
0.0445499
-0.000393779
0.046092
-0.000377802
0.0477901
-0.000362198
0.0496191
-0.000346973
0.0515851
-0.000332266
0.0536413
-0.000318112
0.0557781
-0.000304565
0.0579963
-0.000291623
0.0602595
-0.000279351
0.0625147
-0.000267611
0.0648998
-0.000256674
0.0668144
-0.00105885
0.0203503
-0.00101515
0.0211219
-0.000973102
0.0219248
-0.000932599
0.0227403
-0.000893785
0.0235435
-0.000856858
0.0243223
-0.000821985
0.0250879
-0.00078913
0.0258841
-0.000758021
0.0267681
-0.000727917
0.0277814
-0.000698381
0.0289387
-0.000669077
0.0302018
-0.000640346
0.0315147
-0.000612279
0.0328075
-0.000585667
0.0340301
-0.000560528
0.0351536
-0.000537238
0.0361805
-0.000515648
0.037127
-0.000495525
0.0380243
-0.000476758
0.0389156
-0.000459005
0.0398362
-0.000441982
0.040838
-0.000425543
0.041929
-0.00040935
0.0431677
-0.000393539
0.0445496
-0.00037791
0.0460921
-0.000362581
0.0477905
-0.000347546
0.0496196
-0.00033294
0.0515858
-0.000318816
0.053642
-0.000305231
0.0557788
-0.00029223
0.0579969
-0.000279819
0.06026
-0.000268054
0.0625151
-0.00025679
0.0649
-0.000246315
0.0668142
-0.0010598
0.0196108
-0.00101604
0.0203512
-0.000974071
0.0211228
-0.000933702
0.0219259
-0.000894882
0.0227414
-0.000857652
0.0235442
-0.000822204
0.0243226
-0.000788741
0.0250875
-0.000757318
0.0258834
-0.00072741
0.0267676
-0.000698543
0.0277815
-0.000670102
0.0289397
-0.000642074
0.0302035
-0.000614305
0.0315167
-0.000587534
0.0328093
-0.000561879
0.0340315
-0.000537888
0.0351543
-0.000515575
0.0361804
-0.000494829
0.0371263
-0.000475617
0.0380232
-0.000457631
0.0389143
-0.000440586
0.0398348
-0.000424308
0.0408367
-0.000408409
0.0419281
-0.000392961
0.0431671
-0.000377705
0.0445494
-0.000362709
0.0460922
-0.000347934
0.0477909
-0.000333504
0.0496202
-0.000319471
0.0515865
-0.00030591
0.0536427
-0.000292868
0.0557794
-0.000280397
0.0579975
-0.000268496
0.0602604
-0.000257207
0.0625155
-0.000246411
0.0649001
-0.000236372
0.0668141
-0.00106085
0.0188965
-0.00101694
0.0196117
-0.000974918
0.020352
-0.00093463
0.0211238
-0.000895939
0.021927
-0.000858698
0.0227424
-0.00082295
0.023545
-0.000788927
0.0243228
-0.000756923
0.0250871
-0.000726727
0.0258827
-0.000698069
0.0267671
-0.000670287
0.0277817
-0.000643094
0.0289408
-0.00061599
0.0302052
-0.000589485
0.0315187
-0.000563655
0.0328111
-0.000539153
0.0340327
-0.000516157
0.0351549
-0.000494716
0.0361803
-0.000474911
0.0371256
-0.000456507
0.0380221
-0.000439252
0.0389129
-0.000422966
0.0398335
-0.000407233
0.0408355
-0.000392076
0.0419272
-0.000377174
0.0431666
-0.000362537
0.0445492
-0.000348079
0.0460924
-0.000333895
0.0477913
-0.000320026
0.0496208
-0.000306547
0.0515871
-0.000293523
0.0536433
-0.000281009
0.05578
-0.000269047
0.0579981
-0.000257624
0.0602608
-0.000246804
0.0625159
-0.00023645
0.0649001
-0.000226836
0.0668139
-0.00106202
0.0182015
-0.00101794
0.0188975
-0.000975774
0.0196125
-0.000935438
0.0203528
-0.000896829
0.0211247
-0.000859712
0.021928
-0.000823947
0.0227434
-0.000789626
0.0235457
-0.000757078
0.0243229
-0.000726326
0.0250867
-0.000697407
0.0258821
-0.000669847
0.0267667
-0.000643303
0.0277819
-0.000617003
0.0289418
-0.000591127
0.0302069
-0.000565533
0.0315206
-0.000540842
0.0328128
-0.00051734
0.0340339
-0.000495235
0.0351554
-0.000474761
0.0361802
-0.000455793
0.0371249
-0.000438146
0.038021
-0.00042167
0.0389116
-0.000405942
0.0398322
-0.000390956
0.0408344
-0.000376343
0.0419264
-0.00036205
0.0431661
-0.000347938
0.0445491
-0.000334056
0.0460925
-0.000320419
0.0477917
-0.000307092
0.0496213
-0.000294142
0.0515877
-0.00028164
0.0536439
-0.000269632
0.0557806
-0.000258147
0.0579986
-0.000247197
0.0602612
-0.000236819
0.0625163
-0.000226897
0.0649002
-0.00021768
0.0668137
-0.00106327
0.0175202
-0.00101906
0.0182026
-0.000976728
0.0188985
-0.000936253
0.0196134
-0.0008976
0.0203536
-0.000860565
0.0211255
-0.000824919
0.021929
-0.000790576
0.0227444
-0.000757732
0.0235463
-0.000726452
0.024323
-0.000697002
0.0250863
-0.000669206
0.0258814
-0.000642894
0.0267663
-0.000617234
0.0277821
-0.000592132
0.0289428
-0.00056713
0.0302085
-0.000542648
0.0315224
-0.000518944
0.0328144
-0.000496338
0.034035
-0.000475219
0.0351558
-0.000455609
0.03618
-0.000437427
0.0371242
-0.000420584
0.0380199
-0.000404685
0.0389104
-0.000389716
0.039831
-0.000375278
0.0408334
-0.00036127
0.0419256
-0.000347494
0.0431656
-0.000333944
0.044549
-0.000320595
0.0460927
-0.000307486
0.0477921
-0.000294676
0.0496218
-0.00028224
0.0515883
-0.00027024
0.0536445
-0.000258707
0.0557812
-0.000247695
0.0579991
-0.000237189
0.0602616
-0.000227243
0.0625166
-0.000217726
0.0649002
-0.000208901
0.0668136
-0.00106457
0.016853
-0.00102025
0.0175214
-0.000977793
0.0182037
-0.000937161
0.0188994
-0.000898375
0.0196141
-0.000861301
0.0203543
-0.000825736
0.0211263
-0.000791508
0.0219299
-0.000758636
0.0227453
-0.000727063
0.023547
-0.0006971
0.0243231
-0.000668799
0.0250859
-0.000642274
0.0258808
-0.000616857
0.0267659
-0.000592383
0.0277824
-0.000568128
0.0289438
-0.000544203
0.03021
-0.00052068
0.0315241
-0.000497861
0.0328159
-0.000476247
0.034036
-0.000456011
0.0351562
-0.000437211
0.0361798
-0.000419859
0.0371235
-0.000403619
0.0380188
-0.000388498
0.0389092
-0.000374088
0.0398298
-0.000360259
0.0408323
-0.000346763
0.0419249
-0.00033354
0.0431652
-0.00032051
0.0445489
-0.000307675
0.0460929
-0.000295071
0.0477925
-0.000282764
0.0496224
-0.000270822
0.0515889
-0.000259292
0.0536451
-0.00024823
0.0557817
-0.000237663
0.0579995
-0.000227592
0.0602619
-0.000218051
0.0625169
-0.000208932
0.0649003
-0.000200467
0.0668134
-0.0010659
0.0161999
-0.00102149
0.0168542
-0.000978935
0.0175226
-0.000938177
0.0182047
-0.000899239
0.0189002
-0.000862037
0.0196149
-0.000826438
0.020355
-0.000792291
0.0211271
-0.000759529
0.0219308
-0.000727924
0.0227461
-0.00069767
0.0235475
-0.00066887
0.0243232
-0.000641865
0.0250855
-0.000616259
0.0258802
-0.000592037
0.0267655
-0.000568398
0.0277827
-0.00054519
0.0289448
-0.000522191
0.0302115
-0.000499527
0.0315258
-0.000477691
0.0328174
-0.000456966
0.034037
-0.00043756
0.0351566
-0.000419616
0.0361795
-0.000402893
0.0371228
-0.000387452
0.0380178
-0.000372907
0.038908
-0.000359117
0.0398286
-0.000345803
0.0408314
-0.000332856
0.0419242
-0.000320143
0.0431649
-0.000307615
0.0445488
-0.000295271
0.0460931
-0.000283158
0.0477929
-0.000271335
0.0496229
-0.000259857
0.0515895
-0.000248793
0.0536457
-0.000238174
0.0557822
-0.000228041
0.058
-0.000218378
0.0602623
-0.000209236
0.0625172
-0.000200485
0.0649003
-0.000192384
0.0668132
-0.00106728
0.015563
-0.00102278
0.0162012
-0.000980125
0.0168554
-0.000939269
0.0175237
-0.000900207
0.0182057
-0.00086286
0.0189011
-0.000827138
0.0196156
-0.000792961
0.0203557
-0.000760279
0.0211279
-0.000728778
0.0219317
-0.000698488
0.022747
-0.000669401
0.0235481
-0.000641913
0.0243233
-0.000615849
0.0250851
-0.000591461
0.0258796
-0.000568082
0.0267652
-0.000545479
0.027783
-0.000523169
0.0289457
-0.000500996
0.030213
-0.00047929
0.0315274
-0.000458335
0.0328187
-0.000438446
0.0340379
-0.000419913
0.0351569
-0.000402623
0.0361793
-0.000386725
0.037122
-0.000371883
0.0380167
-0.000357974
0.0389068
-0.000344709
0.0398275
-0.000331946
0.0408305
-0.000319505
0.0419236
-0.000307284
0.0431645
-0.000295235
0.0445488
-0.000283369
0.0460933
-0.000271727
0.0477933
-0.000260359
0.0496234
-0.000249339
0.05159
-0.000238715
0.0536462
-0.00022853
0.0557827
-0.000218805
0.0580004
-0.000209544
0.0602626
-0.00020077
0.0625175
-0.000192389
0.0649003
-0.000184622
0.0668131
-0.00106869
0.0149408
-0.00102409
0.0155643
-0.000981353
0.0162024
-0.000940408
0.0168565
-0.000901251
0.0175247
-0.000863782
0.0182066
-0.00082792
0.0189018
-0.000793626
0.0196162
-0.000760918
0.0203563
-0.000729498
0.0211286
-0.000699307
0.0219325
-0.000670178
0.0227477
-0.000642405
0.0235485
-0.000615874
0.0243233
-0.000591052
0.0250847
-0.000567528
0.0258791
-0.000545193
0.0267649
-0.000523475
0.0277833
-0.000501963
0.0289467
-0.000480716
0.0302144
-0.000459868
0.0315289
-0.00043974
0.03282
-0.000420734
0.0340387
-0.000402873
0.0351571
-0.000386432
0.036179
-0.000371157
0.0371213
-0.000356972
0.0380157
-0.000343604
0.0389057
-0.000330898
0.0398265
-0.000318643
0.0408296
-0.000306689
0.041923
-0.000294938
0.0431642
-0.000283354
0.0445488
-0.000271947
0.0460935
-0.000260748
0.0477937
-0.00024983
0.0496239
-0.000239244
0.0515906
-0.00022905
0.0536468
-0.000219272
0.0557832
-0.000209949
0.0580008
-0.000201058
0.0602629
-0.000192656
0.0625178
-0.000184615
0.0649003
-0.000177171
0.0668129
-0.00107014
0.0143307
-0.00102545
0.0149422
-0.000982618
0.0155656
-0.000941583
0.0162036
-0.00090234
0.0168576
-0.000864779
0.0175257
-0.000828799
0.0182075
-0.000794369
0.0189026
-0.00076155
0.0196169
-0.000730107
0.0203569
-0.000699996
0.0211293
-0.000670961
0.0219333
-0.000643143
0.0227485
-0.00061633
0.023549
-0.000591056
0.0243233
-0.000567121
0.0250843
-0.00054466
0.0258786
-0.000523217
0.0267647
-0.000502284
0.0277836
-0.000481671
0.0289477
-0.000461251
0.0302158
-0.000441209
0.0315304
-0.000421957
0.0328213
-0.00040363
0.0340395
-0.000386637
0.0351573
-0.000370842
0.0361786
-0.000356248
0.0371206
-0.000342624
0.0380148
-0.00032983
0.0389047
-0.00031764
0.0398255
-0.000305873
0.0408288
-0.000294384
0.0419224
-0.000283089
0.043164
-0.000271953
0.0445488
-0.000260976
0.0460938
-0.000250217
0.0477941
-0.000239724
0.0496244
-0.000229561
0.0515911
-0.000219771
0.0536473
-0.000210394
0.0557836
-0.000201442
0.0580012
-0.000192927
0.0602631
-0.000184864
0.0625181
-0.000177153
0.0649003
-0.000170029
0.0668127
-0.00107161
0.0137333
-0.00102685
0.0143321
-0.000983925
0.0149435
-0.000942797
0.0155668
-0.000903466
0.0162047
-0.00086582
0.0168587
-0.00082975
0.0175267
-0.000795206
0.0182083
-0.000762256
0.0189033
-0.000730707
0.0196175
-0.000700578
0.0203575
-0.000671622
0.0211299
-0.000643893
0.021934
-0.00061703
0.0227492
-0.000591478
0.0235494
-0.000567104
0.0243233
-0.000544256
0.0250839
-0.000522707
0.0258781
-0.000502054
0.0267644
-0.000482007
0.0277839
-0.000462194
0.0289486
-0.00044255
0.0302171
-0.000423364
0.0315318
-0.000404785
0.0328224
-0.000387335
0.0340402
-0.000371006
0.0351575
-0.000355914
0.0361783
-0.000341903
0.0371199
-0.000328873
0.0380138
-0.000316609
0.0389036
-0.000304915
0.0398245
-0.000293613
0.040828
-0.000282575
0.0419219
-0.000271717
0.0431637
-0.000261
0.0445488
-0.000250451
0.046094
-0.000240106
0.0477944
-0.000230029