/*--------------------------------*- C++ -*----------------------------------*\
  =========                 |
  \\      /  F ield         | OpenFOAM: The Open Source CFD Toolbox
   \\    /   O peration     | Website:  https://openfoam.org
    \\  /    A nd           | Version:  7
     \\/     M anipulation  |
\*---------------------------------------------------------------------------*/
FoamFile
{
    version     2.0;
    format      ascii;
    class       volVectorField;
    location    "400";
    object      U;
}
// * * * * * * * * * * * * * * * * * * * * * * * * * * * * * * * * * * * * * //

dimensions      [0 1 -1 0 0 0 0];

internalField   nonuniform List<vector> 
23023
(
(50.1177 12.952 0)
(50.2221 12.9758 0)
(50.1101 12.9524 0)
(50.3461 12.8966 0)
(50.2123 12.9766 0)
(50.1025 12.9528 0)
(50.4387 12.8293 0)
(50.3369 12.8973 0)
(50.2024 12.9773 0)
(50.0949 12.9531 0)
(50.4298 12.83 0)
(50.3276 12.898 0)
(50.1924 12.978 0)
(50.0873 12.9534 0)
(50.5296 12.7438 0)
(50.4208 12.8306 0)
(50.3181 12.8987 0)
(50.1824 12.9786 0)
(50.0798 12.9537 0)
(50.6097 12.6525 0)
(50.5217 12.7445 0)
(50.4116 12.8312 0)
(50.3085 12.8993 0)
(50.1723 12.9792 0)
(50.0723 12.954 0)
(50.6738 12.5571 0)
(50.6032 12.653 0)
(50.5135 12.745 0)
(50.4022 12.8318 0)
(50.2988 12.9 0)
(50.1622 12.9798 0)
(50.0648 12.9542 0)
(50.7112 12.4641 0)
(50.6693 12.5574 0)
(50.5965 12.6535 0)
(50.5051 12.7456 0)
(50.3926 12.8324 0)
(50.289 12.9006 0)
(50.152 12.9804 0)
(50.0574 12.9545 0)
(50.7185 12.3791 0)
(50.7088 12.4642 0)
(50.6645 12.5578 0)
(50.5896 12.654 0)
(50.4965 12.7462 0)
(50.3829 12.833 0)
(50.2791 12.9011 0)
(50.1418 12.9809 0)
(50.05 12.9547 0)
(50.6914 12.3087 0)
(50.7185 12.379 0)
(50.7062 12.4644 0)
(50.6594 12.5582 0)
(50.5824 12.6545 0)
(50.4877 12.7467 0)
(50.3731 12.8335 0)
(50.2692 12.9017 0)
(50.1315 12.9814 0)
(50.0426 12.9549 0)
(50.6936 12.3083 0)
(50.7183 12.3789 0)
(50.7034 12.4646 0)
(50.6542 12.5585 0)
(50.575 12.6549 0)
(50.4788 12.7473 0)
(50.3631 12.834 0)
(50.2591 12.9022 0)
(50.1212 12.9819 0)
(50.0354 12.9551 0)
(50.6337 12.2583 0)
(50.6956 12.308 0)
(50.7178 12.3789 0)
(50.7004 12.4648 0)
(50.6486 12.5589 0)
(50.5674 12.6554 0)
(50.4696 12.7478 0)
(50.353 12.8345 0)
(50.2489 12.9027 0)
(50.1109 12.9823 0)
(50.0281 12.9553 0)
(50.5414 12.2341 0)
(50.6376 12.2577 0)
(50.6974 12.3077 0)
(50.7172 12.3789 0)
(50.6971 12.465 0)
(50.6428 12.5592 0)
(50.5595 12.6558 0)
(50.4603 12.7483 0)
(50.3428 12.835 0)
(50.2387 12.9032 0)
(50.1006 12.9827 0)
(50.0209 12.9554 0)
(50.4237 12.2389 0)
(50.5465 12.2333 0)
(50.6414 12.2571 0)
(50.6991 12.3074 0)
(50.7163 12.3788 0)
(50.6935 12.4652 0)
(50.6368 12.5596 0)
(50.5515 12.6563 0)
(50.4508 12.7488 0)
(50.3324 12.8355 0)
(50.2284 12.9037 0)
(50.0902 12.9831 0)
(50.0138 12.9556 0)
(50.2913 12.2735 0)
(50.4293 12.2379 0)
(50.5517 12.2324 0)
(50.6451 12.2566 0)
(50.7007 12.3072 0)
(50.7152 12.3789 0)
(50.6897 12.4654 0)
(50.6306 12.5599 0)
(50.5432 12.6567 0)
(50.4411 12.7492 0)
(50.3219 12.8359 0)
(50.218 12.9041 0)
(50.0798 12.9835 0)
(50.0068 12.9557 0)
(50.2964 12.2723 0)
(50.435 12.2369 0)
(50.5569 12.2316 0)
(50.6488 12.2561 0)
(50.7021 12.3069 0)
(50.7139 12.3789 0)
(50.6857 12.4656 0)
(50.624 12.5603 0)
(50.5347 12.6571 0)
(50.4312 12.7497 0)
(50.3113 12.8363 0)
(50.2076 12.9045 0)
(50.0695 12.9839 0)
(49.9998 12.9558 0)
(50.1613 12.3342 0)
(50.3016 12.2712 0)
(50.4408 12.2359 0)
(50.5621 12.2309 0)
(50.6523 12.2556 0)
(50.7033 12.3067 0)
(50.7124 12.3789 0)
(50.6814 12.4658 0)
(50.6173 12.5606 0)
(50.5259 12.6575 0)
(50.4212 12.7501 0)
(50.3006 12.8368 0)
(50.1971 12.905 0)
(50.0591 12.9842 0)
(49.9929 12.956 0)
(50.0393 12.4181 0)
(50.1652 12.3331 0)
(50.3071 12.2701 0)
(50.4467 12.2349 0)
(50.5673 12.2302 0)
(50.6558 12.2552 0)
(50.7043 12.3066 0)
(50.7106 12.379 0)
(50.6768 12.466 0)
(50.6103 12.561 0)
(50.517 12.6579 0)
(50.411 12.7506 0)
(50.2898 12.8372 0)
(50.1866 12.9054 0)
(50.0487 12.9845 0)
(49.9861 12.9561 0)
(50.0409 12.4171 0)
(50.1693 12.332 0)
(50.3128 12.269 0)
(50.4527 12.234 0)
(50.5724 12.2295 0)
(50.6591 12.2548 0)
(50.7051 12.3064 0)
(50.7086 12.379 0)
(50.672 12.4663 0)
(50.6031 12.5613 0)
(50.5079 12.6583 0)
(50.4007 12.751 0)
(50.2789 12.8375 0)
(50.176 12.9057 0)
(50.0384 12.9848 0)
(49.9794 12.9562 0)
(49.9441 12.5147 0)
(50.0428 12.4162 0)
(50.1737 12.331 0)
(50.3186 12.268 0)
(50.4588 12.2332 0)
(50.5776 12.2289 0)
(50.6623 12.2544 0)
(50.7057 12.3063 0)
(50.7063 12.3791 0)
(50.667 12.4665 0)
(50.5956 12.5616 0)
(50.4986 12.6587 0)
(50.3902 12.7514 0)
(50.2679 12.8379 0)
(50.1654 12.9061 0)
(50.0281 12.9851 0)
(49.9727 12.9562 0)
(49.8882 12.6145 0)
(49.9431 12.514 0)
(50.0451 12.4152 0)
(50.1784 12.3299 0)
(50.3247 12.267 0)
(50.465 12.2324 0)
(50.5827 12.2283 0)
(50.6654 12.2541 0)
(50.7061 12.3062 0)
(50.7038 12.3792 0)
(50.6617 12.4667 0)
(50.5879 12.562 0)
(50.4891 12.6591 0)
(50.3796 12.7518 0)
(50.2568 12.8382 0)
(50.1547 12.9064 0)
(50.0178 12.9854 0)
(49.9662 12.9563 0)
(49.8833 12.7035 0)
(49.8839 12.6142 0)
(49.9424 12.5133 0)
(50.0476 12.4143 0)
(50.1834 12.3289 0)
(50.3309 12.2661 0)
(50.4712 12.2316 0)
(50.5878 12.2277 0)
(50.6683 12.2537 0)
(50.7063 12.3061 0)
(50.701 12.3793 0)
(50.6561 12.4669 0)
(50.5799 12.5623 0)
(50.4793 12.6594 0)
(50.3688 12.7521 0)
(50.2456 12.8386 0)
(50.1441 12.9068 0)
(50.0075 12.9856 0)
(49.9597 12.9564 0)
(49.9339 12.768 0)
(49.8757 12.7038 0)
(49.8799 12.6139 0)
(49.9421 12.5126 0)
(50.0505 12.4134 0)
(50.1886 12.328 0)
(50.3373 12.2652 0)
(50.4775 12.2308 0)
(50.5928 12.2272 0)
(50.6711 12.2534 0)
(50.7063 12.306 0)
(50.698 12.3794 0)
(50.6503 12.4672 0)
(50.5718 12.5626 0)
(50.4694 12.6598 0)
(50.3579 12.7525 0)
(50.2344 12.8389 0)
(50.1334 12.9071 0)
(49.9973 12.9858 0)
(49.9534 12.9564 0)
(49.9233 12.7687 0)
(49.8684 12.7039 0)
(49.8763 12.6136 0)
(49.9421 12.512 0)
(50.0537 12.4126 0)
(50.1941 12.327 0)
(50.3438 12.2643 0)
(50.4839 12.2301 0)
(50.5977 12.2267 0)
(50.6737 12.2531 0)
(50.706 12.3059 0)
(50.6947 12.3795 0)
(50.6442 12.4674 0)
(50.5633 12.5629 0)
(50.4593 12.6601 0)
(50.3469 12.7529 0)
(50.2231 12.8392 0)
(50.1227 12.9074 0)
(49.9871 12.9861 0)
(49.9471 12.9565 0)
(50.0243 12.7964 0)
(49.913 12.7694 0)
(49.8613 12.7041 0)
(49.873 12.6133 0)
(49.9425 12.5113 0)
(50.0572 12.4117 0)
(50.1998 12.3261 0)
(50.3505 12.2635 0)
(50.4903 12.2294 0)
(50.6026 12.2262 0)
(50.6762 12.2529 0)
(50.7055 12.3059 0)
(50.6912 12.3796 0)
(50.6378 12.4676 0)
(50.5547 12.5632 0)
(50.4491 12.6605 0)
(50.3357 12.7532 0)
(50.2117 12.8395 0)
(50.112 12.9077 0)
(49.9769 12.9863 0)
(49.9409 12.9565 0)
(50.1671 12.7778 0)
(50.0117 12.7976 0)
(49.9028 12.7701 0)
(49.8545 12.7042 0)
(49.87 12.613 0)
(49.9433 12.5107 0)
(50.0611 12.4109 0)
(50.2058 12.3252 0)
(50.3574 12.2627 0)
(50.4967 12.2288 0)
(50.6074 12.2258 0)
(50.6785 12.2527 0)
(50.7048 12.3058 0)
(50.6874 12.3797 0)
(50.6312 12.4679 0)
(50.5458 12.5635 0)
(50.4386 12.6608 0)
(50.3245 12.7535 0)
(50.2003 12.8398 0)
(50.1013 12.908 0)
(49.9669 12.9864 0)
(49.9349 12.9566 0)
(50.1534 12.7794 0)
(49.9991 12.7987 0)
(49.8927 12.7707 0)
(49.8479 12.7043 0)
(49.8673 12.6126 0)
(49.9443 12.51 0)
(50.0653 12.41 0)
(50.212 12.3244 0)
(50.3643 12.2619 0)
(50.5031 12.2282 0)
(50.612 12.2254 0)
(50.6805 12.2524 0)
(50.7038 12.3058 0)
(50.6833 12.3798 0)
(50.6244 12.4681 0)
(50.5368 12.5638 0)
(50.428 12.6611 0)
(50.3131 12.7538 0)
(50.1888 12.8401 0)
(50.0906 12.9082 0)
(49.9568 12.9866 0)
(49.929 12.9566 0)
(50.3175 12.7125 0)
(50.1396 12.7808 0)
(49.9866 12.7997 0)
(49.8829 12.7712 0)
(49.8417 12.7043 0)
(49.8651 12.6123 0)
(49.9458 12.5094 0)
(50.0697 12.4092 0)
(50.2184 12.3236 0)
(50.3714 12.2612 0)
(50.5095 12.2276 0)
(50.6166 12.225 0)
(50.6824 12.2523 0)
(50.7026 12.3058 0)
(50.679 12.3799 0)
(50.6173 12.4683 0)
(50.5275 12.5641 0)
(50.4172 12.6614 0)
(50.3016 12.7541 0)
(50.1773 12.8403 0)
(50.0799 12.9085 0)
(49.9469 12.9868 0)
(49.9231 12.9566 0)
(50.4764 12.604 0)
(50.304 12.7141 0)
(50.1258 12.7822 0)
(49.9743 12.8007 0)
(49.8734 12.7717 0)
(49.8358 12.7044 0)
(49.8631 12.6119 0)
(49.9476 12.5087 0)
(50.0745 12.4085 0)
(50.225 12.3228 0)
(50.3786 12.2605 0)
(50.5159 12.227 0)
(50.6211 12.2246 0)
(50.6841 12.2521 0)
(50.7011 12.3058 0)
(50.6744 12.3801 0)
(50.6099 12.4685 0)
(50.518 12.5644 0)
(50.4063 12.6617 0)
(50.29 12.7544 0)
(50.1657 12.8406 0)
(50.0693 12.9087 0)
(49.937 12.9869 0)
(49.9174 12.9567 0)
(50.4643 12.6054 0)
(50.2902 12.7156 0)
(50.112 12.7836 0)
(49.962 12.8017 0)
(49.864 12.7722 0)
(49.8302 12.7044 0)
(49.8615 12.6115 0)
(49.9497 12.5081 0)
(50.0796 12.4077 0)
(50.2319 12.322 0)
(50.3859 12.2598 0)
(50.5223 12.2265 0)
(50.6254 12.2243 0)
(50.6856 12.2519 0)
(50.6994 12.3058 0)
(50.6695 12.3802 0)
(50.6023 12.4688 0)
(50.5082 12.5646 0)
(50.3952 12.662 0)
(50.2783 12.7547 0)
(50.1541 12.8408 0)
(50.0586 12.9089 0)
(49.9272 12.9871 0)
(49.9118 12.9567 0)
(50.5909 12.4723 0)
(50.4519 12.6068 0)
(50.2764 12.7171 0)
(50.0982 12.7848 0)
(49.9498 12.8026 0)
(49.8549 12.7726 0)
(49.8249 12.7044 0)
(49.8603 12.6111 0)
(49.9522 12.5075 0)
(50.0849 12.407 0)
(50.239 12.3213 0)
(50.3933 12.2591 0)
(50.5286 12.226 0)
(50.6296 12.2239 0)
(50.6868 12.2518 0)
(50.6974 12.3058 0)
(50.6643 12.3804 0)
(50.5944 12.469 0)
(50.4983 12.5649 0)
(50.384 12.6622 0)
(50.2666 12.7549 0)
(50.1425 12.841 0)
(50.048 12.9091 0)
(49.9174 12.9872 0)
(49.9064 12.9567 0)
(50.662 12.3398 0)
(50.5808 12.4733 0)
(50.4394 12.6082 0)
(50.2624 12.7185 0)
(50.0843 12.7861 0)
(49.9378 12.8034 0)
(49.846 12.773 0)
(49.8199 12.7043 0)
(49.8594 12.6108 0)
(49.955 12.5068 0)
(50.0906 12.4062 0)
(50.2462 12.3205 0)
(50.4008 12.2585 0)
(50.5349 12.2255 0)
(50.6336 12.2236 0)
(50.6878 12.2517 0)
(50.6951 12.3058 0)
(50.6589 12.3805 0)
(50.5863 12.4692 0)
(50.4882 12.5652 0)
(50.3726 12.6625 0)
(50.2547 12.7552 0)
(50.1309 12.8412 0)
(50.0374 12.9094 0)
(49.9078 12.9873 0)
(49.901 12.9567 0)
(50.6544 12.3402 0)
(50.5706 12.4743 0)
(50.4266 12.6095 0)
(50.2483 12.7199 0)
(50.0705 12.7872 0)
(49.9259 12.8042 0)
(49.8374 12.7733 0)
(49.8153 12.7042 0)
(49.8589 12.6104 0)
(49.9582 12.5062 0)
(50.0965 12.4055 0)
(50.2536 12.3199 0)
(50.4083 12.2579 0)
(50.5411 12.2251 0)
(50.6374 12.2234 0)
(50.6886 12.2516 0)
(50.6925 12.3059 0)
(50.6532 12.3806 0)
(50.5779 12.4694 0)
(50.4778 12.5654 0)
(50.3611 12.6628 0)
(50.2428 12.7554 0)
(50.1192 12.8414 0)
(50.0268 12.9095 0)
(49.8982 12.9874 0)
(49.8958 12.9567 0)
(50.6671 12.2329 0)
(50.6465 12.3406 0)
(50.5601 12.4752 0)
(50.4137 12.6108 0)
(50.234 12.7212 0)
(50.0567 12.7883 0)
(49.9142 12.8049 0)
(49.829 12.7736 0)
(49.811 12.7042 0)
(49.8588 12.61 0)
(49.9617 12.5056 0)
(50.1027 12.4049 0)
(50.2613 12.3192 0)
(50.4159 12.2573 0)
(50.5473 12.2247 0)
(50.6411 12.2231 0)
(50.6891 12.2515 0)
(50.6897 12.3059 0)
(50.6472 12.3808 0)
(50.5693 12.4696 0)
(50.4673 12.5657 0)
(50.3494 12.663 0)
(50.2308 12.7557 0)
(50.1076 12.8416 0)
(50.0163 12.9097 0)
(49.8888 12.9876 0)
(49.8907 12.9567 0)
(50.635 12.1673 0)
(50.661 12.2327 0)
(50.6385 12.341 0)
(50.5493 12.4762 0)
(50.4005 12.612 0)
(50.2197 12.7225 0)
(50.0429 12.7894 0)
(49.9027 12.8056 0)
(49.8209 12.7739 0)
(49.8071 12.704 0)
(49.859 12.6096 0)
(49.9656 12.5051 0)
(50.1092 12.4042 0)
(50.269 12.3185 0)
(50.4235 12.2568 0)
(50.5534 12.2243 0)
(50.6446 12.2229 0)
(50.6894 12.2514 0)
(50.6866 12.306 0)
(50.641 12.3809 0)
(50.5605 12.4698 0)
(50.4566 12.5659 0)
(50.3377 12.6632 0)
(50.2188 12.7559 0)
(50.0959 12.8418 0)
(50.0059 12.9099 0)
(49.8794 12.9876 0)
(49.8858 12.9567 0)
(50.6294 12.1668 0)
(50.6549 12.2326 0)
(50.6303 12.3415 0)
(50.5384 12.4771 0)
(50.3872 12.6132 0)
(50.2052 12.7237 0)
(50.0291 12.7904 0)
(49.8913 12.8063 0)
(49.8131 12.7741 0)
(49.8035 12.7039 0)
(49.8596 12.6092 0)
(49.9698 12.5045 0)
(50.116 12.4035 0)
(50.277 12.3179 0)
(50.4311 12.2563 0)
(50.5594 12.2239 0)
(50.6479 12.2227 0)
(50.6894 12.2513 0)
(50.6832 12.306 0)
(50.6344 12.3811 0)
(50.5514 12.47 0)
(50.4457 12.5661 0)
(50.3258 12.6635 0)
(50.2067 12.7561 0)
(50.0842 12.842 0)
(49.9955 12.9101 0)
(49.8701 12.9877 0)
(49.881 12.9567 0)
(50.5827 12.1426 0)
(50.6239 12.1664 0)
(50.6486 12.2326 0)
(50.6219 12.3419 0)
(50.5272 12.478 0)
(50.3736 12.6144 0)
(50.1907 12.7249 0)
(50.0155 12.7914 0)
(49.8801 12.8069 0)
(49.8056 12.7744 0)
(49.8003 12.7038 0)
(49.8606 12.6088 0)
(49.9743 12.5039 0)
(50.123 12.4029 0)
(50.285 12.3173 0)
(50.4388 12.2558 0)
(50.5653 12.2235 0)
(50.6511 12.2225 0)
(50.6892 12.2513 0)
(50.6795 12.3061 0)
(50.6276 12.3812 0)
(50.5421 12.4702 0)
(50.4347 12.5663 0)
(50.3138 12.6637 0)
(50.1945 12.7563 0)
(50.0726 12.8422 0)
(49.9851 12.9102 0)
(49.861 12.9878 0)
(49.8763 12.9567 0)
(50.5529 12.1441 0)
(50.5765 12.1422 0)
(50.6183 12.166 0)
(50.6423 12.2325 0)
(50.6134 12.3423 0)
(50.5158 12.4789 0)
(50.3599 12.6155 0)
(50.1762 12.726 0)
(50.0018 12.7923 0)
(49.8691 12.8074 0)
(49.7985 12.7745 0)
(49.7974 12.7036 0)
(49.862 12.6084 0)
(49.9792 12.5034 0)
(50.1302 12.4023 0)
(50.2932 12.3168 0)
(50.4464 12.2553 0)
(50.5711 12.2232 0)
(50.654 12.2223 0)
(50.6887 12.2512 0)
(50.6755 12.3062 0)
(50.6206 12.3814 0)
(50.5325 12.4704 0)
(50.4234 12.5666 0)
(50.3017 12.6639 0)
(50.1823 12.7565 0)
(50.061 12.8423 0)
(49.9748 12.9104 0)
(49.852 12.9879 0)
(49.8717 12.9567 0)
(50.5592 12.1478 0)
(50.5453 12.144 0)
(50.5703 12.1418 0)
(50.6128 12.1656 0)
(50.6358 12.2324 0)
(50.6046 12.3427 0)
(50.5042 12.4797 0)
(50.346 12.6166 0)
(50.1615 12.7271 0)
(49.9883 12.7931 0)
(49.8583 12.8079 0)
(49.7916 12.7747 0)
(49.7949 12.7035 0)
(49.8637 12.608 0)
(49.9844 12.5028 0)
(50.1377 12.4017 0)
(50.3016 12.3162 0)
(50.4541 12.2549 0)
(50.5768 12.2229 0)
(50.6566 12.2221 0)
(50.6879 12.2512 0)
(50.6713 12.3062 0)
(50.6132 12.3815 0)
(50.5228 12.4706 0)
(50.412 12.5668 0)
(50.2894 12.6641 0)
(50.1701 12.7567 0)
(50.0494 12.8425 0)
(49.9646 12.9105 0)
(49.843 12.9879 0)
(49.8673 12.9567 0)
(50.6012 12.134 0)
(50.55 12.148 0)
(50.5377 12.1438 0)
(50.5642 12.1414 0)
(50.6072 12.1653 0)
(50.6293 12.2324 0)
(50.5957 12.3432 0)
(50.4924 12.4806 0)
(50.332 12.6177 0)
(50.1468 12.7281 0)
(49.9749 12.7939 0)
(49.8478 12.8084 0)
(49.785 12.7748 0)
(49.7928 12.7033 0)
(49.8658 12.6076 0)
(49.9899 12.5023 0)
(50.1454 12.4012 0)
(50.31 12.3157 0)
(50.4617 12.2544 0)
(50.5823 12.2226 0)
(50.6591 12.222 0)
(50.6869 12.2512 0)
(50.6667 12.3063 0)
(50.6056 12.3817 0)
(50.5128 12.4708 0)
(50.4004 12.567 0)
(50.2771 12.6643 0)
(50.1578 12.7569 0)
(50.0378 12.8426 0)
(49.9545 12.9107 0)
(49.8342 12.988 0)
(49.863 12.9566 0)
(50.6638 12.0951 0)
(50.5911 12.1346 0)
(50.5409 12.1483 0)
(50.5301 12.1437 0)
(50.5582 12.141 0)
(50.6017 12.1649 0)
(50.6226 12.2324 0)
(50.5866 12.3436 0)
(50.4803 12.4814 0)
(50.3178 12.6187 0)
(50.1321 12.7291 0)
(49.9615 12.7947 0)
(49.8375 12.8089 0)
(49.7788 12.7749 0)
(49.7911 12.7031 0)
(49.8682 12.6072 0)
(49.9957 12.5018 0)
(50.1533 12.4006 0)
(50.3185 12.3152 0)
(50.4693 12.254 0)
(50.5876 12.2223 0)
(50.6613 12.2218 0)
(50.6855 12.2512 0)
(50.6619 12.3064 0)
(50.5977 12.3818 0)
(50.5025 12.471 0)
(50.3887 12.5672 0)
(50.2647 12.6645 0)
(50.1455 12.7571 0)
(50.0263 12.8428 0)
(49.9444 12.9108 0)
(49.8256 12.9881 0)
(49.8589 12.9566 0)
(50.7283 12.036 0)
(50.6533 12.0959 0)
(50.5809 12.1352 0)
(50.5319 12.1485 0)
(50.5227 12.1435 0)
(50.5522 12.1406 0)
(50.5961 12.1646 0)
(50.6159 12.2324 0)
(50.5773 12.344 0)
(50.4681 12.4822 0)
(50.3035 12.6197 0)
(50.1174 12.73 0)
(49.9483 12.7954 0)
(49.8274 12.8093 0)
(49.773 12.775 0)
(49.7897 12.7029 0)
(49.8711 12.6068 0)
(50.0019 12.5013 0)
(50.1615 12.4001 0)
(50.3271 12.3147 0)
(50.4769 12.2536 0)
(50.5929 12.2221 0)
(50.6633 12.2217 0)
(50.6839 12.2511 0)
(50.6568 12.3065 0)
(50.5896 12.382 0)
(50.4921 12.4712 0)
(50.3768 12.5674 0)
(50.2522 12.6647 0)
(50.1332 12.7572 0)
(50.0148 12.8429 0)
(49.9345 12.9109 0)
(49.817 12.9881 0)
(49.8549 12.9566 0)
(50.7178 12.0367 0)
(50.6427 12.0966 0)
(50.5707 12.1357 0)
(50.5228 12.1487 0)
(50.5154 12.1433 0)
(50.5463 12.1402 0)
(50.5906 12.1643 0)
(50.609 12.2324 0)
(50.5678 12.3445 0)
(50.4557 12.483 0)
(50.289 12.6207 0)
(50.1027 12.731 0)
(49.9352 12.7961 0)
(49.8176 12.8097 0)
(49.7674 12.7751 0)
(49.7888 12.7027 0)
(49.8743 12.6064 0)
(50.0083 12.5008 0)
(50.1698 12.3996 0)
(50.3358 12.3142 0)
(50.4844 12.2533 0)
(50.5979 12.2218 0)
(50.665 12.2216 0)
(50.682 12.2511 0)
(50.6513 12.3066 0)
(50.5812 12.3821 0)
(50.4815 12.4714 0)
(50.3648 12.5676 0)
(50.2397 12.6649 0)
(50.1209 12.7574 0)
(50.0033 12.843 0)
(49.9246 12.911 0)
(49.8086 12.9881 0)
(49.8511 12.9566 0)
(50.7732 11.9687 0)
(50.7072 12.0375 0)
(50.632 12.0973 0)
(50.5606 12.1362 0)
(50.5139 12.1489 0)
(50.5081 12.1432 0)
(50.5405 12.1399 0)
(50.585 12.164 0)
(50.6021 12.2324 0)
(50.5581 12.3449 0)
(50.443 12.4838 0)
(50.2744 12.6216 0)
(50.0879 12.7318 0)
(49.9223 12.7968 0)
(49.8081 12.81 0)
(49.7622 12.7751 0)
(49.7882 12.7025 0)
(49.8778 12.606 0)
(50.015 12.5003 0)
(50.1784 12.3991 0)
(50.3446 12.3138 0)
(50.4919 12.2529 0)
(50.6028 12.2216 0)
(50.6665 12.2215 0)
(50.6797 12.2512 0)
(50.6456 12.3067 0)
(50.5725 12.3823 0)
(50.4706 12.4715 0)
(50.3527 12.5677 0)
(50.2271 12.665 0)
(50.1086 12.7575 0)
(49.9919 12.8431 0)
(49.9148 12.9111 0)
(49.8003 12.9882 0)
(49.8474 12.9565 0)
(50.8194 11.901 0)
(50.7627 11.9693 0)
(50.6965 12.0381 0)
(50.6214 12.0979 0)
(50.5504 12.1367 0)
(50.505 12.1491 0)
(50.501 12.143 0)
(50.5348 12.1395 0)
(50.5795 12.1637 0)
(50.595 12.2324 0)
(50.5482 12.3453 0)
(50.4302 12.4846 0)
(50.2597 12.6225 0)
(50.0732 12.7327 0)
(49.9095 12.7974 0)
(49.7988 12.8103 0)
(49.7574 12.7752 0)
(49.788 12.7023 0)
(49.8818 12.6056 0)
(50.0221 12.4998 0)
(50.1871 12.3986 0)
(50.3534 12.3134 0)
(50.4992 12.2526 0)
(50.6074 12.2214 0)
(50.6677 12.2214 0)
(50.6772 12.2512 0)
(50.6396 12.3068 0)
(50.5636 12.3824 0)
(50.4596 12.4717 0)
(50.3404 12.5679 0)
(50.2144 12.6652 0)
(50.0963 12.7577 0)
(49.9806 12.8432 0)
(49.9051 12.9112 0)
(49.7922 12.9882 0)
(49.8439 12.9565 0)
(50.8087 11.9016 0)
(50.752 11.9699 0)
(50.6858 12.0388 0)
(50.6107 12.0986 0)
(50.5403 12.1372 0)
(50.4962 12.1492 0)
(50.4939 12.1428 0)
(50.5291 12.1392 0)
(50.5739 12.1634 0)
(50.5878 12.2324 0)
(50.5381 12.3458 0)
(50.4171 12.4853 0)
(50.2449 12.6234 0)
(50.0585 12.7334 0)
(49.8969 12.7979 0)
(49.7899 12.8106 0)
(49.753 12.7752 0)
(49.7881 12.7021 0)
(49.8861 12.6052 0)
(50.0294 12.4993 0)
(50.196 12.3981 0)
(50.3622 12.313 0)
(50.5065 12.2523 0)
(50.6119 12.2212 0)
(50.6686 12.2213 0)
(50.6744 12.2512 0)
(50.6333 12.3068 0)
(50.5544 12.3826 0)
(50.4484 12.4719 0)
(50.328 12.5681 0)
(50.2016 12.6653 0)
(50.0839 12.7578 0)
(49.9693 12.8433 0)
(49.8955 12.9113 0)
(49.7842 12.9882 0)
(49.8405 12.9565 0)
(50.8521 11.8366 0)
(50.7979 11.9021 0)
(50.7413 11.9705 0)
(50.675 12.0394 0)
(50.5999 12.0992 0)
(50.5301 12.1376 0)
(50.4874 12.1493 0)
(50.487 12.1426 0)
(50.5235 12.1388 0)
(50.5683 12.1632 0)
(50.5804 12.2325 0)
(50.5278 12.3462 0)
(50.4039 12.486 0)
(50.23 12.6242 0)
(50.0438 12.7342 0)
(49.8845 12.7985 0)
(49.7812 12.8109 0)
(49.7489 12.7752 0)
(49.7887 12.7018 0)
(49.8907 12.6048 0)
(50.037 12.4989 0)
(50.205 12.3977 0)
(50.3711 12.3126 0)
(50.5136 12.252 0)
(50.6161 12.221 0)
(50.6693 12.2213 0)
(50.6713 12.2512 0)
(50.6267 12.3069 0)
(50.545 12.3827 0)
(50.437 12.472 0)
(50.3154 12.5682 0)
(50.1888 12.6655 0)
(50.0716 12.758 0)
(49.9581 12.8434 0)
(49.886 12.9114 0)
(49.7764 12.9883 0)
(49.8373 12.9565 0)
(50.8994 11.7714 0)
(50.8409 11.8372 0)
(50.787 11.9026 0)
(50.7305 11.971 0)
(50.6642 12.04 0)
(50.5892 12.0998 0)
(50.5201 12.138 0)
(50.4788 12.1494 0)
(50.4801 12.1424 0)
(50.518 12.1385 0)
(50.5627 12.1629 0)
(50.5729 12.2326 0)
(50.5174 12.3466 0)
(50.3905 12.4867 0)
(50.215 12.625 0)
(50.0292 12.7349 0)
(49.8723 12.799 0)
(49.7729 12.8111 0)
(49.7452 12.7751 0)
(49.7897 12.7016 0)
(49.8957 12.6045 0)
(50.0448 12.4985 0)
(50.2142 12.3973 0)
(50.38 12.3122 0)
(50.5207 12.2518 0)
(50.6202 12.2209 0)
(50.6696 12.2212 0)
(50.6678 12.2513 0)
(50.6198 12.307 0)
(50.5353 12.3828 0)
(50.4254 12.4722 0)
(50.3028 12.5684 0)
(50.176 12.6656 0)
(50.0593 12.7581 0)
(49.9469 12.8435 0)
(49.8766 12.9115 0)
(49.7687 12.9883 0)
(49.8342 12.9564 0)
(50.9529 11.7014 0)
(50.8879 11.772 0)
(50.8297 11.8377 0)
(50.7761 11.9031 0)
(50.7197 11.9715 0)
(50.6533 12.0406 0)
(50.5784 12.1003 0)
(50.51 12.1384 0)
(50.4702 12.1495 0)
(50.4734 12.1423 0)
(50.5126 12.1382 0)
(50.557 12.1627 0)
(50.5653 12.2326 0)
(50.5067 12.347 0)
(50.3769 12.4874 0)
(50.1999 12.6258 0)
(50.0147 12.7356 0)
(49.8603 12.7995 0)
(49.7648 12.8113 0)
(49.7419 12.7751 0)
(49.791 12.7014 0)
(49.901 12.6041 0)
(50.0529 12.498 0)
(50.2235 12.3968 0)
(50.3889 12.3119 0)
(50.5276 12.2515 0)
(50.624 12.2207 0)
(50.6697 12.2212 0)
(50.6641 12.2513 0)
(50.6126 12.3071 0)
(50.5254 12.383 0)
(50.4136 12.4723 0)
(50.2901 12.5685 0)
(50.1631 12.6658 0)
(50.0471 12.7582 0)
(49.9359 12.8436 0)
(49.8674 12.9116 0)
(49.7612 12.9883 0)
(49.8313 12.9564 0)
(51.0114 11.6244 0)
(50.9411 11.7022 0)
(50.8762 11.7727 0)
(50.8185 11.8382 0)
(50.7651 11.9035 0)
(50.7089 11.972 0)
(50.6424 12.0411 0)
(50.5676 12.1008 0)
(50.5 12.1388 0)
(50.4618 12.1496 0)
(50.4668 12.1421 0)
(50.5072 12.1379 0)
(50.5513 12.1625 0)
(50.5576 12.2327 0)
(50.4958 12.3475 0)
(50.3632 12.4881 0)
(50.1847 12.6265 0)
(50.0002 12.7362 0)
(49.8485 12.7999 0)
(49.7571 12.8115 0)
(49.7389 12.775 0)
(49.7928 12.7011 0)
(49.9067 12.6037 0)
(50.0613 12.4976 0)
(50.233 12.3964 0)
(50.3977 12.3115 0)
(50.5344 12.2513 0)
(50.6275 12.2206 0)
(50.6695 12.2211 0)
(50.66 12.2513 0)
(50.6052 12.3072 0)
(50.5153 12.3831 0)
(50.4016 12.4725 0)
(50.2772 12.5687 0)
(50.1502 12.6659 0)
(50.0348 12.7583 0)
(49.9249 12.8437 0)
(49.8582 12.9117 0)
(49.7538 12.9883 0)
(49.8285 12.9564 0)
(51.0727 11.54 0)
(50.9993 11.6252 0)
(50.9291 11.7029 0)
(50.8645 11.7732 0)
(50.8071 11.8387 0)
(50.7541 11.904 0)
(50.6979 11.9725 0)
(50.6314 12.0417 0)
(50.5569 12.1013 0)
(50.4901 12.1391 0)
(50.4534 12.1497 0)
(50.4603 12.1419 0)
(50.5019 12.1376 0)
(50.5456 12.1623 0)
(50.5497 12.2328 0)
(50.4847 12.3479 0)
(50.3493 12.4887 0)
(50.1695 12.6272 0)
(49.9858 12.7369 0)
(49.8369 12.8003 0)
(49.7498 12.8117 0)
(49.7364 12.775 0)
(49.7949 12.7009 0)
(49.9127 12.6034 0)
(50.0699 12.4972 0)
(50.2425 12.3961 0)
(50.4066 12.3112 0)
(50.541 12.251 0)
(50.6308 12.2205 0)
(50.6689 12.2211 0)
(50.6556 12.2514 0)
(50.5974 12.3073 0)
(50.5049 12.3832 0)
(50.3895 12.4726 0)
(50.2643 12.5688 0)
(50.1373 12.666 0)
(50.0226 12.7584 0)
(49.914 12.8438 0)
(49.8492 12.9117 0)
(49.7466 12.9883 0)
(49.8259 12.9563 0)
(51.136 11.4487 0)
(51.0605 11.5408 0)
(50.9871 11.626 0)
(50.917 11.7036 0)
(50.8528 11.7738 0)
(50.7957 11.8392 0)
(50.7431 11.9044 0)
(50.687 11.9729 0)
(50.6205 12.0422 0)
(50.5461 12.1018 0)
(50.4802 12.1394 0)
(50.4452 12.1497 0)
(50.454 12.1417 0)
(50.4966 12.1373 0)
(50.5398 12.1621 0)
(50.5416 12.2329 0)
(50.4735 12.3483 0)
(50.3352 12.4894 0)
(50.1543 12.6279 0)
(49.9716 12.7374 0)
(49.8256 12.8007 0)
(49.7427 12.8118 0)
(49.7342 12.7749 0)
(49.7974 12.7006 0)
(49.9191 12.603 0)
(50.0787 12.4968 0)
(50.2522 12.3957 0)
(50.4154 12.3109 0)
(50.5474 12.2508 0)
(50.6339 12.2203 0)
(50.6681 12.2211 0)
(50.651 12.2514 0)
(50.5894 12.3074 0)
(50.4943 12.3834 0)
(50.3772 12.4728 0)
(50.2512 12.569 0)
(50.1243 12.6661 0)
(50.0105 12.7585 0)
(49.9032 12.8438 0)
(49.8403 12.9118 0)
(49.7396 12.9883 0)
(49.8235 12.9563 0)
(51.2009 11.3507 0)
(51.1236 11.4496 0)
(51.0481 11.5417 0)
(50.9747 11.6267 0)
(50.9048 11.7042 0)
(50.8409 11.7743 0)
(50.7843 11.8396 0)
(50.732 11.9048 0)
(50.676 11.9734 0)
(50.6094 12.0426 0)
(50.5353 12.1023 0)
(50.4704 12.1397 0)
(50.4371 12.1498 0)
(50.4477 12.1415 0)
(50.4914 12.137 0)
(50.534 12.162 0)
(50.5334 12.233 0)
(50.462 12.3487 0)
(50.321 12.49 0)
(50.139 12.6286 0)
(49.9574 12.738 0)
(49.8145 12.801 0)
(49.7361 12.812 0)
(49.7325 12.7748 0)
(49.8003 12.7004 0)
(49.9257 12.6027 0)
(50.0878 12.4965 0)
(50.262 12.3954 0)
(50.4241 12.3106 0)
(50.5537 12.2506 0)
(50.6367 12.2202 0)
(50.6669 12.221 0)
(50.646 12.2515 0)
(50.5811 12.3075 0)
(50.4834 12.3835 0)
(50.3648 12.4729 0)
(50.2381 12.5691 0)
(50.1114 12.6662 0)
(49.9983 12.7586 0)
(49.8925 12.8439 0)
(49.8316 12.9119 0)
(49.7327 12.9883 0)
(49.8212 12.9563 0)
(51.2679 11.2455 0)
(51.1886 11.3517 0)
(51.1111 11.4505 0)
(51.0355 11.5425 0)
(50.9622 11.6274 0)
(50.8926 11.7048 0)
(50.829 11.7748 0)
(50.7728 11.84 0)
(50.7208 11.9052 0)
(50.665 11.9738 0)
(50.5984 12.0431 0)
(50.5246 12.1027 0)
(50.4606 12.14 0)
(50.429 12.1498 0)
(50.4416 12.1413 0)
(50.4862 12.1367 0)
(50.5281 12.1618 0)
(50.5251 12.2331 0)
(50.4503 12.3491 0)
(50.3066 12.4906 0)
(50.1237 12.6292 0)
(49.9434 12.7385 0)
(49.8037 12.8014 0)
(49.7298 12.8121 0)
(49.7311 12.7747 0)
(49.8036 12.7001 0)
(49.9327 12.6024 0)
(50.097 12.4961 0)
(50.2718 12.395 0)
(50.4328 12.3104 0)
(50.5598 12.2504 0)
(50.6392 12.2202 0)
(50.6654 12.221 0)
(50.6406 12.2515 0)
(50.5725 12.3076 0)
(50.4724 12.3836 0)
(50.3522 12.473 0)
(50.2249 12.5692 0)
(50.0984 12.6664 0)
(49.9863 12.7587 0)
(49.8819 12.844 0)
(49.8229 12.9119 0)
(49.726 12.9883 0)
(49.819 12.9562 0)
(51.3367 11.1323 0)
(51.2555 11.2465 0)
(51.176 11.3526 0)
(51.0983 11.4514 0)
(51.0228 11.5433 0)
(50.9496 11.6281 0)
(50.8802 11.7054 0)
(50.8171 11.7753 0)
(50.7614 11.8404 0)
(50.7097 11.9056 0)
(50.6539 11.9742 0)
(50.5874 12.0436 0)
(50.5139 12.1031 0)
(50.4509 12.1402 0)
(50.4212 12.1498 0)
(50.4355 12.1411 0)
(50.4812 12.1365 0)
(50.5222 12.1617 0)
(50.5166 12.2333 0)
(50.4385 12.3495 0)
(50.2922 12.4912 0)
(50.1084 12.6298 0)
(49.9295 12.739 0)
(49.7932 12.8017 0)
(49.7238 12.8122 0)
(49.7301 12.7746 0)
(49.8073 12.6999 0)
(49.94 12.602 0)
(50.1065 12.4958 0)
(50.2817 12.3947 0)
(50.4414 12.3101 0)
(50.5657 12.2503 0)
(50.6414 12.2201 0)
(50.6636 12.221 0)
(50.635 12.2516 0)
(50.5636 12.3077 0)
(50.4611 12.3837 0)
(50.3395 12.4732 0)
(50.2117 12.5693 0)
(50.0854 12.6665 0)
(49.9743 12.7588 0)
(49.8714 12.844 0)
(49.8145 12.912 0)
(49.7195 12.9883 0)
(49.8171 12.9562 0)
(51.4069 11.0103 0)
(51.3245 11.1334 0)
(51.243 11.2475 0)
(51.1631 11.3535 0)
(51.0855 11.4522 0)
(51.0099 11.544 0)
(50.9369 11.6288 0)
(50.8678 11.706 0)
(50.8051 11.7758 0)
(50.7498 11.8408 0)
(50.6985 11.9059 0)
(50.6429 11.9746 0)
(50.5764 12.044 0)
(50.5032 12.1035 0)
(50.4414 12.1405 0)
(50.4134 12.1498 0)
(50.4296 12.1409 0)
(50.4761 12.1362 0)
(50.5162 12.1616 0)
(50.5079 12.2334 0)
(50.4264 12.3499 0)
(50.2775 12.4917 0)
(50.0931 12.6304 0)
(49.9158 12.7395 0)
(49.7829 12.802 0)
(49.7182 12.8122 0)
(49.7296 12.7745 0)
(49.8114 12.6997 0)
(49.9476 12.6017 0)
(50.1161 12.4954 0)
(50.2916 12.3944 0)
(50.4499 12.3099 0)
(50.5713 12.2501 0)
(50.6433 12.22 0)
(50.6615 12.221 0)
(50.6291 12.2516 0)
(50.5545 12.3078 0)
(50.4496 12.3839 0)
(50.3267 12.4733 0)
(50.1984 12.5694 0)
(50.0725 12.6666 0)
(49.9624 12.7589 0)
(49.861 12.8441 0)
(49.8061 12.912 0)
(49.7131 12.9883 0)
(49.8153 12.9562 0)
(51.4777 10.8788 0)
(51.3951 11.0115 0)
(51.3121 11.1345 0)
(51.2301 11.2485 0)
(51.1501 11.3544 0)
(51.0724 11.453 0)
(50.9969 11.5447 0)
(50.9241 11.6294 0)
(50.8553 11.7065 0)
(50.7931 11.7762 0)
(50.7383 11.8412 0)
(50.6873 11.9062 0)
(50.6318 11.975 0)
(50.5653 12.0444 0)
(50.4925 12.1039 0)
(50.4319 12.1407 0)
(50.4057 12.1498 0)
(50.4239 12.1407 0)
(50.4711 12.136 0)
(50.5101 12.1615 0)
(50.499 12.2335 0)
(50.4142 12.3503 0)
(50.2628 12.4923 0)
(50.0779 12.6309 0)
(49.9022 12.7399 0)
(49.773 12.8022 0)
(49.713 12.8123 0)
(49.7295 12.7744 0)
(49.8158 12.6994 0)
(49.9556 12.6014 0)
(50.1259 12.4951 0)
(50.3016 12.3941 0)
(50.4583 12.3096 0)
(50.5768 12.25 0)
(50.645 12.2199 0)
(50.6591 12.221 0)
(50.6228 12.2517 0)
(50.545 12.3079 0)
(50.438 12.384 0)
(50.3137 12.4734 0)
(50.185 12.5696 0)
(50.0595 12.6667 0)
(49.9505 12.759 0)
(49.8508 12.8441 0)
(49.7979 12.9121 0)
(49.707 12.9883 0)
(49.8136 12.9561 0)
(51.5479 10.7373 0)
(51.4664 10.88 0)
(51.3829 11.0126 0)
(51.2993 11.1355 0)
(51.2171 11.2494 0)
(51.1369 11.3552 0)
(51.0592 11.4537 0)
(50.9839 11.5454 0)
(50.9112 11.63 0)
(50.8428 11.707 0)
(50.781 11.7766 0)
(50.7268 11.8415 0)
(50.6762 11.9066 0)
(50.6208 11.9753 0)
(50.5543 12.0448 0)
(50.4819 12.1042 0)
(50.4224 12.1409 0)
(50.3982 12.1498 0)
(50.4182 12.1405 0)
(50.4661 12.1357 0)
(50.504 12.1614 0)
(50.49 12.2337 0)
(50.4018 12.3507 0)
(50.2479 12.4928 0)
(50.0626 12.6315 0)
(49.8889 12.7404 0)
(49.7634 12.8025 0)
(49.7082 12.8123 0)
(49.7297 12.7743 0)
(49.8206 12.6992 0)
(49.9637 12.6011 0)
(50.1359 12.4948 0)
(50.3116 12.3938 0)
(50.4666 12.3094 0)
(50.582 12.2498 0)
(50.6463 12.2199 0)
(50.6563 12.221 0)
(50.6162 12.2518 0)
(50.5354 12.308 0)
(50.4261 12.3841 0)
(50.3006 12.4735 0)
(50.1716 12.5697 0)
(50.0466 12.6667 0)
(49.9387 12.759 0)
(49.8407 12.8442 0)
(49.7899 12.9121 0)
(49.701 12.9883 0)
(49.8121 12.9561 0)
(51.6162 10.5853 0)
(51.5373 10.7385 0)
(51.4546 10.8812 0)
(51.3704 11.0137 0)
(51.2863 11.1365 0)
(51.2038 11.2503 0)
(51.1235 11.356 0)
(51.0458 11.4544 0)
(50.9707 11.546 0)
(50.8983 11.6306 0)
(50.8303 11.7075 0)
(50.7689 11.777 0)
(50.7152 11.8418 0)
(50.665 11.9069 0)
(50.6097 11.9757 0)
(50.5432 12.0451 0)
(50.4713 12.1046 0)
(50.4131 12.1411 0)
(50.3909 12.1497 0)
(50.4126 12.1403 0)
(50.4612 12.1355 0)
(50.4977 12.1613 0)
(50.4808 12.2338 0)
(50.3892 12.3511 0)
(50.233 12.4933 0)
(50.0474 12.632 0)
(49.8757 12.7408 0)
(49.754 12.8027 0)
(49.7038 12.8124 0)
(49.7304 12.7742 0)
(49.8258 12.6989 0)
(49.9722 12.6008 0)
(50.1461 12.4945 0)
(50.3216 12.3936 0)
(50.4747 12.3092 0)
(50.587 12.2497 0)
(50.6473 12.2198 0)
(50.6532 12.2211 0)
(50.6093 12.2518 0)
(50.5254 12.3081 0)
(50.414 12.3842 0)
(50.2874 12.4736 0)
(50.1581 12.5698 0)
(50.0337 12.6668 0)
(49.927 12.7591 0)
(49.8306 12.8442 0)
(49.782 12.9121 0)
(49.6952 12.9883 0)
(49.8108 12.9561 0)
(51.6809 10.4228 0)
(51.6064 10.5865 0)
(51.5262 10.7397 0)
(51.4425 10.8823 0)
(51.3576 11.0147 0)
(51.273 11.1374 0)
(51.1903 11.2512 0)
(51.11 11.3568 0)
(51.0323 11.4551 0)
(50.9574 11.5466 0)
(50.8853 11.6311 0)
(50.8177 11.7079 0)
(50.7569 11.7774 0)
(50.7037 11.8421 0)
(50.6538 11.9072 0)
(50.5986 11.976 0)
(50.5322 12.0455 0)
(50.4608 12.1049 0)
(50.4039 12.1412 0)
(50.3836 12.1497 0)
(50.4072 12.1401 0)
(50.4563 12.1353 0)
(50.4914 12.1612 0)