/*--------------------------------*- C++ -*----------------------------------*\
  =========                 |
  \\      /  F ield         | OpenFOAM: The Open Source CFD Toolbox
   \\    /   O peration     | Website:  https://openfoam.org
    \\  /    A nd           | Version:  7
     \\/     M anipulation  |
\*---------------------------------------------------------------------------*/
FoamFile
{
    version     2.0;
    format      ascii;
    class       volScalarField;
    location    "400";
    object      yPlus;
}
// * * * * * * * * * * * * * * * * * * * * * * * * * * * * * * * * * * * * * //

dimensions      [0 0 0 0 0 0 0];

internalField   uniform 0;

boundaryField
{
    inlet-l
    {
        type            calculated;
        value           nonuniform 0();
    }
    airfoil-l1
    {
        type            calculated;
        value           nonuniform 0();
    }
    empty-1
    {
        type            empty;
    }
    empty-2
    {
        type            empty;
    }
    wall-l1
    {
        type            calculated;
        value           nonuniform 0();
    }
    airfoil-l2
    {
        type            calculated;
        value           nonuniform 0();
    }
    empty-3
    {
        type            empty;
    }
    empty-4
    {
        type            empty;
    }
    wall-l2
    {
        type            calculated;
        value           nonuniform 0();
    }
    outlet-l
    {
        type            calculated;
        value           uniform 0;
    }
    empty-5
    {
        type            empty;
    }
    empty-6
    {
        type            empty;
    }
    outlet-h
    {
        type            calculated;
        value           uniform 0;
    }
    wall-h2
    {
        type            calculated;
        value           nonuniform List<scalar> 
74
(
120.601
120.792
120.995
121.198
121.407
121.628
121.861
122.106
122.361
122.628
122.908
123.2
123.504
123.822
124.153
124.497
124.855
125.227
125.613
126.014
126.429
126.858
127.302
127.76
128.233
128.72
129.221
129.736
130.264
130.806
131.361
131.928
132.507
133.096
133.696
134.306
134.924
135.55
136.182
136.819
137.459
138.103
138.746
139.389
140.03
140.666
141.295
141.917
142.529
143.129
143.714
144.283
144.834
145.363
145.87
146.352
146.806
147.23
147.622
147.98
148.301
148.582
148.82
149.012
149.155
149.242
149.268
149.224
149.095
148.864
148.486
148.015
147.017
147.793
)
;
    }
    empty-7
    {
        type            empty;
    }
    empty-8
    {
        type            empty;
    }
    airfoil-h2
    {
        type            calculated;
        value           nonuniform List<scalar> 
34
(
20.1499
21.2239
22.0138
22.5784
22.9743
23.2438
23.4077
23.4804
23.4743
23.4075
23.2969
23.1412
22.9433
22.711
22.4491
22.1649
21.8601
21.5433
21.2163
20.8903
20.5646
20.2367
19.9039
19.5551
19.1774
18.7598
18.2768
17.7125
17.0099
16.1606
14.9612
13.6584
11.2026
9.66236
)
;
    }
    wall-h1
    {
        type            calculated;
        value           nonuniform List<scalar> 
34
(
120.23
120.219
120.203
120.196
120.182
120.178
120.168
120.168
120.162
120.163
120.159
120.164
120.163
120.171
120.173
120.183
120.188
120.201
120.208
120.223
120.234
120.246
120.264
120.277
120.3
120.316
120.338
120.357
120.382
120.403
120.43
120.451
120.48
120.507
)
;
    }
    empty-9
    {
        type            empty;
    }
    empty-10
    {
        type            empty;
    }
    inlet-h
    {
        type            calculated;
        value           nonuniform 0();
    }
    airfoil-h1
    {
        type            calculated;
        value           nonuniform 0();
    }
    empty-11
    {
        type            empty;
    }
    empty-12
    {
        type            empty;
    }
    procBoundary2to1
    {
        type            processor;
        value           uniform 0;
    }
    procBoundary2to3
    {
        type            processor;
        value           uniform 0;
    }
}


// ************************************************************************* //
