/*--------------------------------*- C++ -*----------------------------------*\
  =========                 |
  \\      /  F ield         | OpenFOAM: The Open Source CFD Toolbox
   \\    /   O peration     | Website:  https://openfoam.org
    \\  /    A nd           | Version:  7
     \\/     M anipulation  |
\*---------------------------------------------------------------------------*/
FoamFile
{
    version     2.0;
    format      ascii;
    class       volScalarField;
    location    "200";
    object      nut;
}
// * * * * * * * * * * * * * * * * * * * * * * * * * * * * * * * * * * * * * //

dimensions      [0 2 -1 0 0 0 0];

internalField   nonuniform List<scalar> 
23052
(
5.20705e-06
5.20673e-06
5.20744e-06
5.20666e-06
5.20748e-06
5.20826e-06
5.20668e-06
5.20745e-06
5.20809e-06
5.20835e-06
5.20675e-06
5.20744e-06
5.20797e-06
5.20818e-06
5.20797e-06
5.2076e-06
5.20675e-06
5.20739e-06
5.20783e-06
5.208e-06
5.2078e-06
5.2075e-06
5.2076e-06
5.20831e-06
5.20675e-06
5.20732e-06
5.2077e-06
5.20783e-06
5.20766e-06
5.20743e-06
5.20763e-06
5.20834e-06
5.20941e-06
5.20673e-06
5.20724e-06
5.20757e-06
5.20768e-06
5.20752e-06
5.20739e-06
5.20769e-06
5.20844e-06
5.20943e-06
5.21057e-06
5.2067e-06
5.20716e-06
5.20745e-06
5.20753e-06
5.20741e-06
5.20737e-06
5.20776e-06
5.20853e-06
5.20952e-06
5.21057e-06
5.21168e-06
5.20668e-06
5.20708e-06
5.20733e-06
5.20741e-06
5.20732e-06
5.20738e-06
5.20785e-06
5.20864e-06
5.2096e-06
5.21063e-06
5.21167e-06
5.21273e-06
5.20665e-06
5.20701e-06
5.20723e-06
5.2073e-06
5.20725e-06
5.20742e-06
5.20795e-06
5.20875e-06
5.20969e-06
5.21069e-06
5.2117e-06
5.21271e-06
5.21373e-06
5.20662e-06
5.20694e-06
5.20714e-06
5.2072e-06
5.20722e-06
5.20748e-06
5.20806e-06
5.20887e-06
5.20978e-06
5.21075e-06
5.21173e-06
5.21272e-06
5.2137e-06
5.21469e-06
5.2066e-06
5.20689e-06
5.20706e-06
5.20713e-06
5.20721e-06
5.20756e-06
5.20818e-06
5.20898e-06
5.20988e-06
5.21081e-06
5.21177e-06
5.21273e-06
5.21369e-06
5.21465e-06
5.21561e-06
5.20659e-06
5.20685e-06
5.207e-06
5.20708e-06
5.20723e-06
5.20765e-06
5.2083e-06
5.2091e-06
5.20997e-06
5.21088e-06
5.21181e-06
5.21275e-06
5.21369e-06
5.21463e-06
5.21556e-06
5.21648e-06
5.20659e-06
5.20682e-06
5.20696e-06
5.20706e-06
5.20729e-06
5.20777e-06
5.20843e-06
5.20921e-06
5.21006e-06
5.21094e-06
5.21185e-06
5.21277e-06
5.21369e-06
5.21462e-06
5.21553e-06
5.21643e-06
5.2173e-06
5.20661e-06
5.2068e-06
5.20693e-06
5.20708e-06
5.20738e-06
5.20789e-06
5.20856e-06
5.20932e-06
5.21015e-06
5.21101e-06
5.2119e-06
5.2128e-06
5.2137e-06
5.2146e-06
5.2155e-06
5.21638e-06
5.21725e-06
5.21809e-06
5.20664e-06
5.2068e-06
5.20693e-06
5.20712e-06
5.20748e-06
5.20802e-06
5.20868e-06
5.20943e-06
5.21024e-06
5.21108e-06
5.21195e-06
5.21283e-06
5.21371e-06
5.2146e-06
5.21548e-06
5.21635e-06
5.21719e-06
5.21803e-06
5.21884e-06
5.20667e-06
5.20681e-06
5.20695e-06
5.2072e-06
5.20759e-06
5.20814e-06
5.2088e-06
5.20954e-06
5.21032e-06
5.21115e-06
5.212e-06
5.21286e-06
5.21373e-06
5.2146e-06
5.21546e-06
5.21631e-06
5.21715e-06
5.21797e-06
5.21877e-06
5.21955e-06
5.20669e-06
5.20683e-06
5.207e-06
5.20729e-06
5.20771e-06
5.20827e-06
5.20892e-06
5.20964e-06
5.21041e-06
5.21122e-06
5.21205e-06
5.21289e-06
5.21375e-06
5.2146e-06
5.21545e-06
5.21629e-06
5.21711e-06
5.21792e-06
5.2187e-06
5.21948e-06
5.22022e-06
5.20671e-06
5.20686e-06
5.20708e-06
5.2074e-06
5.20783e-06
5.20839e-06
5.20903e-06
5.20974e-06
5.2105e-06
5.21129e-06
5.2121e-06
5.21293e-06
5.21377e-06
5.21461e-06
5.21544e-06
5.21626e-06
5.21707e-06
5.21787e-06
5.21865e-06
5.21941e-06
5.22015e-06
5.22086e-06
5.20673e-06
5.20692e-06
5.20716e-06
5.2075e-06
5.20795e-06
5.2085e-06
5.20914e-06
5.20984e-06
5.21058e-06
5.21136e-06
5.21216e-06
5.21297e-06
5.2138e-06
5.21462e-06
5.21544e-06
5.21624e-06
5.21704e-06
5.21783e-06
5.21859e-06
5.21935e-06
5.22007e-06
5.22079e-06
5.22147e-06
5.20675e-06
5.20697e-06
5.20724e-06
5.2076e-06
5.20806e-06
5.20861e-06
5.20924e-06
5.20993e-06
5.21066e-06
5.21143e-06
5.21222e-06
5.21302e-06
5.21382e-06
5.21463e-06
5.21544e-06
5.21623e-06
5.21702e-06
5.21779e-06
5.21855e-06
5.21929e-06
5.22001e-06
5.22071e-06
5.2214e-06
5.22205e-06
5.20676e-06
5.20702e-06
5.20732e-06
5.20769e-06
5.20816e-06
5.20872e-06
5.20934e-06
5.21002e-06
5.21075e-06
5.2115e-06
5.21227e-06
5.21306e-06
5.21385e-06
5.21465e-06
5.21544e-06
5.21622e-06
5.21699e-06
5.21776e-06
5.2185e-06
5.21923e-06
5.21995e-06
5.22065e-06
5.22132e-06
5.22198e-06
5.2226e-06
5.20678e-06
5.20707e-06
5.20739e-06
5.20779e-06
5.20826e-06
5.20882e-06
5.20944e-06
5.21011e-06
5.21083e-06
5.21157e-06
5.21233e-06
5.21311e-06
5.21389e-06
5.21467e-06
5.21545e-06
5.21622e-06
5.21698e-06
5.21773e-06
5.21846e-06
5.21919e-06
5.21989e-06
5.22058e-06
5.22125e-06
5.22189e-06
5.22253e-06
5.22312e-06
5.20679e-06
5.20712e-06
5.20746e-06
5.20787e-06
5.20836e-06
5.20891e-06
5.20953e-06
5.2102e-06
5.21091e-06
5.21164e-06
5.21239e-06
5.21315e-06
5.21392e-06
5.21469e-06
5.21545e-06
5.21621e-06
5.21696e-06
5.2177e-06
5.21843e-06
5.21914e-06
5.21984e-06
5.22052e-06
5.22118e-06
5.22182e-06
5.22244e-06
5.22305e-06
5.22361e-06
5.20681e-06
5.20716e-06
5.20753e-06
5.20795e-06
5.20845e-06
5.20901e-06
5.20963e-06
5.21029e-06
5.21099e-06
5.21171e-06
5.21245e-06
5.2132e-06
5.21396e-06
5.21471e-06
5.21547e-06
5.21621e-06
5.21695e-06
5.21768e-06
5.2184e-06
5.2191e-06
5.21979e-06
5.22046e-06
5.22112e-06
5.22175e-06
5.22237e-06
5.22296e-06
5.22354e-06
5.22408e-06
5.20682e-06
5.2072e-06
5.20759e-06
5.20803e-06
5.20853e-06
5.2091e-06
5.20972e-06
5.21037e-06
5.21106e-06
5.21178e-06
5.21251e-06
5.21325e-06
5.21399e-06
5.21474e-06
5.21548e-06
5.21622e-06
5.21695e-06
5.21767e-06
5.21837e-06
5.21907e-06
5.21975e-06
5.22041e-06
5.22106e-06
5.22168e-06
5.22229e-06
5.22289e-06
5.22345e-06
5.22401e-06
5.22453e-06
5.20683e-06
5.20724e-06
5.20765e-06
5.20811e-06
5.20862e-06
5.20919e-06
5.2098e-06
5.21046e-06
5.21114e-06
5.21185e-06
5.21257e-06
5.2133e-06
5.21403e-06
5.21477e-06
5.2155e-06
5.21622e-06
5.21694e-06
5.21765e-06
5.21835e-06
5.21904e-06
5.21971e-06
5.22036e-06
5.221e-06
5.22162e-06
5.22223e-06
5.22281e-06
5.22338e-06
5.22392e-06
5.22446e-06
5.22496e-06
5.20684e-06
5.20728e-06
5.20771e-06
5.20818e-06
5.2087e-06
5.20927e-06
5.20989e-06
5.21054e-06
5.21122e-06
5.21191e-06
5.21263e-06
5.21335e-06
5.21407e-06
5.21479e-06
5.21552e-06
5.21623e-06
5.21694e-06
5.21764e-06
5.21833e-06
5.21901e-06
5.21967e-06
5.22032e-06
5.22095e-06
5.22157e-06
5.22216e-06
5.22274e-06
5.2233e-06
5.22385e-06
5.22437e-06
5.22489e-06
5.22536e-06
5.20685e-06
5.20731e-06
5.20776e-06
5.20825e-06
5.20877e-06
5.20935e-06
5.20997e-06
5.21062e-06
5.21129e-06
5.21198e-06
5.21268e-06
5.2134e-06
5.21411e-06
5.21482e-06
5.21554e-06
5.21624e-06
5.21695e-06
5.21764e-06
5.21832e-06
5.21899e-06
5.21964e-06
5.22028e-06
5.22091e-06
5.22151e-06
5.2221e-06
5.22268e-06
5.22324e-06
5.22378e-06
5.2243e-06
5.2248e-06
5.22529e-06
5.22574e-06
5.20686e-06
5.20734e-06
5.20781e-06
5.20831e-06
5.20885e-06
5.20943e-06
5.21005e-06
5.21069e-06
5.21136e-06
5.21205e-06
5.21274e-06
5.21345e-06
5.21415e-06
5.21486e-06
5.21556e-06
5.21626e-06
5.21695e-06
5.21763e-06
5.21831e-06
5.21897e-06
5.21961e-06
5.22025e-06
5.22086e-06
5.22146e-06
5.22205e-06
5.22262e-06
5.22317e-06
5.22371e-06
5.22422e-06
5.22473e-06
5.2252e-06
5.22568e-06
5.22611e-06
5.20687e-06
5.20737e-06
5.20786e-06
5.20837e-06
5.20892e-06
5.2095e-06
5.21012e-06
5.21077e-06
5.21143e-06
5.21211e-06
5.2128e-06
5.2135e-06
5.21419e-06
5.21489e-06
5.21558e-06
5.21627e-06
5.21696e-06
5.21763e-06
5.2183e-06
5.21895e-06
5.21959e-06
5.22021e-06
5.22082e-06
5.22142e-06
5.222e-06
5.22256e-06
5.22311e-06
5.22364e-06
5.22416e-06
5.22465e-06
5.22513e-06
5.22559e-06
5.22604e-06
5.22645e-06
5.20688e-06
5.2074e-06
5.20791e-06
5.20843e-06
5.20899e-06
5.20958e-06
5.2102e-06
5.21084e-06
5.2115e-06
5.21217e-06
5.21286e-06
5.21354e-06
5.21423e-06
5.21492e-06
5.21561e-06
5.21629e-06
5.21697e-06
5.21763e-06
5.21829e-06
5.21894e-06
5.21957e-06
5.22018e-06
5.22079e-06
5.22138e-06
5.22195e-06
5.22251e-06
5.22305e-06
5.22358e-06
5.22409e-06
5.22458e-06
5.22506e-06
5.22552e-06
5.22596e-06
5.22639e-06
5.22678e-06
5.20689e-06
5.20743e-06
5.20795e-06
5.20849e-06
5.20905e-06
5.20965e-06
5.21027e-06
5.21091e-06
5.21157e-06
5.21224e-06
5.21291e-06
5.21359e-06
5.21428e-06
5.21496e-06
5.21564e-06
5.21631e-06
5.21698e-06
5.21764e-06
5.21829e-06
5.21892e-06
5.21955e-06
5.22016e-06
5.22076e-06
5.22134e-06
5.22191e-06
5.22246e-06
5.223e-06
5.22352e-06
5.22403e-06
5.22452e-06
5.22499e-06
5.22545e-06
5.22589e-06
5.22631e-06
5.22673e-06
5.2271e-06
5.20689e-06
5.20746e-06
5.20799e-06
5.20854e-06
5.20912e-06
5.20972e-06
5.21034e-06
5.21098e-06
5.21163e-06
5.2123e-06
5.21297e-06
5.21364e-06
5.21432e-06
5.21499e-06
5.21567e-06
5.21633e-06
5.21699e-06
5.21764e-06
5.21828e-06
5.21891e-06
5.21953e-06
5.22014e-06
5.22073e-06
5.2213e-06
5.22187e-06
5.22241e-06
5.22295e-06
5.22347e-06
5.22397e-06
5.22445e-06
5.22492e-06
5.22538e-06
5.22582e-06
5.22624e-06
5.22664e-06
5.22704e-06
5.22739e-06
5.2069e-06
5.20748e-06
5.20804e-06
5.2086e-06
5.20918e-06
5.20978e-06
5.21041e-06
5.21105e-06
5.2117e-06
5.21236e-06
5.21302e-06
5.21369e-06
5.21436e-06
5.21503e-06
5.2157e-06
5.21636e-06
5.21701e-06
5.21765e-06
5.21828e-06
5.21891e-06
5.21952e-06
5.22011e-06
5.2207e-06
5.22127e-06
5.22183e-06
5.22237e-06
5.2229e-06
5.22341e-06
5.22391e-06
5.22439e-06
5.22486e-06
5.22531e-06
5.22575e-06
5.22617e-06
5.22658e-06
5.22696e-06
5.22734e-06
5.22767e-06
5.20691e-06
5.20751e-06
5.20807e-06
5.20865e-06
5.20924e-06
5.20985e-06
5.21047e-06
5.21111e-06
5.21176e-06
5.21242e-06
5.21308e-06
5.21374e-06
5.21441e-06
5.21507e-06
5.21573e-06
5.21638e-06
5.21702e-06
5.21766e-06
5.21829e-06
5.2189e-06
5.21951e-06
5.2201e-06
5.22068e-06
5.22124e-06
5.22179e-06
5.22233e-06
5.22286e-06
5.22336e-06
5.22386e-06
5.22434e-06
5.2248e-06
5.22525e-06
5.22569e-06
5.22611e-06
5.22651e-06
5.2269e-06
5.22726e-06
5.22762e-06
5.22794e-06
5.20692e-06
5.20753e-06
5.20811e-06
5.2087e-06
5.20929e-06
5.20991e-06
5.21053e-06
5.21117e-06
5.21182e-06
5.21248e-06
5.21313e-06
5.21379e-06
5.21445e-06
5.21511e-06
5.21576e-06
5.2164e-06
5.21704e-06
5.21767e-06
5.21829e-06
5.2189e-06
5.2195e-06
5.22008e-06
5.22065e-06
5.22122e-06
5.22176e-06
5.2223e-06
5.22281e-06
5.22332e-06
5.22381e-06
5.22429e-06
5.22475e-06
5.22519e-06
5.22563e-06
5.22604e-06
5.22644e-06
5.22683e-06
5.2272e-06
5.22755e-06
5.22789e-06
5.22819e-06
5.20692e-06
5.20755e-06
5.20815e-06
5.20874e-06
5.20935e-06
5.20997e-06
5.2106e-06
5.21124e-06
5.21188e-06
5.21253e-06
5.21319e-06
5.21384e-06
5.2145e-06
5.21515e-06
5.21579e-06
5.21643e-06
5.21706e-06
5.21768e-06
5.2183e-06
5.2189e-06
5.21949e-06
5.22007e-06
5.22064e-06
5.22119e-06
5.22173e-06
5.22226e-06
5.22278e-06
5.22328e-06
5.22376e-06
5.22424e-06
5.22469e-06
5.22514e-06
5.22557e-06
5.22598e-06
5.22638e-06
5.22677e-06
5.22713e-06
5.22749e-06
5.22782e-06
5.22815e-06
5.22843e-06
5.20693e-06
5.20757e-06
5.20818e-06
5.20879e-06
5.2094e-06
5.21002e-06
5.21066e-06
5.2113e-06
5.21194e-06
5.21259e-06
5.21324e-06
5.21389e-06
5.21454e-06
5.21519e-06
5.21583e-06
5.21646e-06
5.21708e-06
5.2177e-06
5.2183e-06
5.2189e-06
5.21948e-06
5.22006e-06
5.22062e-06
5.22117e-06
5.22171e-06
5.22223e-06
5.22274e-06
5.22324e-06
5.22372e-06
5.22419e-06
5.22464e-06
5.22509e-06
5.22551e-06
5.22593e-06
5.22632e-06
5.22671e-06
5.22707e-06
5.22742e-06
5.22776e-06
5.22808e-06
5.22839e-06
5.22865e-06
5.20693e-06
5.20759e-06
5.20822e-06
5.20883e-06
5.20945e-06
5.21008e-06
5.21071e-06
5.21135e-06
5.212e-06
5.21265e-06
5.2133e-06
5.21394e-06
5.21459e-06
5.21523e-06
5.21586e-06
5.21648e-06
5.2171e-06
5.21771e-06
5.21831e-06
5.2189e-06
5.21948e-06
5.22005e-06
5.22061e-06
5.22115e-06
5.22168e-06
5.2222e-06
5.22271e-06
5.2232e-06
5.22368e-06
5.22414e-06
5.2246e-06
5.22504e-06
5.22546e-06
5.22587e-06
5.22627e-06
5.22665e-06
5.22701e-06
5.22736e-06
5.2277e-06
5.22802e-06
5.22832e-06
5.22861e-06
5.22886e-06
5.20694e-06
5.20761e-06
5.20825e-06
5.20887e-06
5.2095e-06
5.21013e-06
5.21077e-06
5.21141e-06
5.21206e-06
5.2127e-06
5.21335e-06
5.21399e-06
5.21463e-06
5.21527e-06
5.21589e-06
5.21651e-06
5.21713e-06
5.21773e-06
5.21832e-06
5.21891e-06
5.21948e-06
5.22004e-06
5.2206e-06
5.22114e-06
5.22166e-06
5.22218e-06
5.22268e-06
5.22317e-06
5.22364e-06
5.2241e-06
5.22455e-06
5.22499e-06
5.22541e-06
5.22582e-06
5.22621e-06
5.22659e-06
5.22696e-06
5.22731e-06
5.22764e-06
5.22796e-06
5.22826e-06
5.22855e-06
5.22883e-06
5.22906e-06
5.20694e-06
5.20763e-06
5.20828e-06
5.20891e-06
5.20955e-06
5.21018e-06
5.21083e-06
5.21147e-06
5.21211e-06
5.21276e-06
5.2134e-06
5.21404e-06
5.21468e-06
5.21531e-06
5.21593e-06
5.21654e-06
5.21715e-06
5.21775e-06
5.21834e-06
5.21891e-06
5.21948e-06
5.22004e-06
5.22059e-06
5.22112e-06
5.22164e-06
5.22215e-06
5.22265e-06
5.22313e-06
5.22361e-06
5.22406e-06
5.22451e-06
5.22494e-06
5.22536e-06
5.22577e-06
5.22616e-06
5.22654e-06
5.2269e-06
5.22725e-06
5.22758e-06
5.2279e-06
5.22821e-06
5.22849e-06
5.22876e-06
5.22903e-06
5.22925e-06
5.20695e-06
5.20765e-06
5.2083e-06
5.20895e-06
5.20959e-06
5.21024e-06
5.21088e-06
5.21153e-06
5.21217e-06
5.21281e-06
5.21345e-06
5.21409e-06
5.21472e-06
5.21534e-06
5.21596e-06
5.21657e-06
5.21717e-06
5.21777e-06
5.21835e-06
5.21892e-06
5.21949e-06
5.22004e-06
5.22058e-06
5.22111e-06
5.22163e-06
5.22213e-06
5.22262e-06
5.2231e-06
5.22357e-06
5.22403e-06
5.22447e-06
5.2249e-06
5.22532e-06
5.22572e-06
5.22611e-06
5.22649e-06
5.22685e-06
5.2272e-06
5.22753e-06
5.22785e-06
5.22815e-06
5.22844e-06
5.22871e-06
5.22897e-06
5.22922e-06
5.22943e-06
5.20695e-06
5.20766e-06
5.20833e-06
5.20899e-06
5.20964e-06
5.21029e-06
5.21093e-06
5.21158e-06
5.21223e-06
5.21287e-06
5.2135e-06
5.21414e-06
5.21476e-06
5.21538e-06
5.216e-06
5.2166e-06
5.2172e-06
5.21779e-06
5.21836e-06
5.21893e-06
5.21949e-06
5.22004e-06
5.22057e-06
5.2211e-06
5.22161e-06
5.22211e-06
5.2226e-06
5.22308e-06
5.22354e-06
5.22399e-06
5.22443e-06
5.22486e-06
5.22528e-06
5.22568e-06
5.22606e-06
5.22644e-06
5.2268e-06
5.22715e-06
5.22748e-06
5.2278e-06
5.2281e-06
5.22839e-06
5.22866e-06
5.22892e-06
5.22917e-06
5.2294e-06
5.2296e-06
5.20696e-06
5.20768e-06
5.20836e-06
5.20903e-06
5.20968e-06
5.21034e-06
5.21099e-06
5.21163e-06
5.21228e-06
5.21292e-06
5.21355e-06
5.21418e-06
5.21481e-06
5.21542e-06
5.21603e-06
5.21663e-06
5.21722e-06
5.21781e-06
5.21838e-06
5.21894e-06
5.2195e-06
5.22004e-06
5.22057e-06
5.22109e-06
5.2216e-06
5.22209e-06
5.22258e-06
5.22305e-06
5.22351e-06
5.22396e-06
5.2244e-06
5.22482e-06
5.22524e-06
5.22563e-06
5.22602e-06
5.22639e-06
5.22675e-06
5.2271e-06
5.22743e-06
5.22774e-06
5.22805e-06
5.22834e-06
5.22861e-06
5.22887e-06
5.22912e-06
5.22935e-06
5.22957e-06
5.22975e-06
5.20696e-06
5.2077e-06
5.20839e-06
5.20906e-06
5.20973e-06
5.21038e-06
5.21104e-06
5.21169e-06
5.21233e-06
5.21297e-06
5.2136e-06
5.21423e-06
5.21485e-06
5.21546e-06
5.21607e-06
5.21666e-06
5.21725e-06
5.21783e-06
5.2184e-06
5.21896e-06
5.2195e-06
5.22004e-06
5.22057e-06
5.22108e-06
5.22159e-06
5.22208e-06
5.22256e-06
5.22303e-06
5.22349e-06
5.22393e-06
5.22437e-06
5.22479e-06
5.2252e-06
5.22559e-06
5.22598e-06
5.22635e-06
5.22671e-06
5.22705e-06
5.22738e-06
5.2277e-06
5.228e-06
5.22829e-06
5.22856e-06
5.22883e-06
5.22907e-06
5.22931e-06
5.22953e-06
5.22974e-06
5.2299e-06
5.20697e-06
5.20771e-06
5.20841e-06
5.2091e-06
5.20977e-06
5.21043e-06
5.21109e-06
5.21174e-06
5.21238e-06
5.21302e-06
5.21365e-06
5.21428e-06
5.21489e-06
5.2155e-06
5.2161e-06
5.2167e-06
5.21728e-06
5.21785e-06
5.21842e-06
5.21897e-06
5.21951e-06
5.22005e-06
5.22057e-06
5.22108e-06
5.22158e-06
5.22207e-06
5.22254e-06
5.22301e-06
5.22346e-06
5.22391e-06
5.22434e-06
5.22475e-06
5.22516e-06
5.22556e-06
5.22594e-06
5.22631e-06
5.22666e-06
5.227e-06
5.22733e-06
5.22765e-06
5.22795e-06
5.22824e-06
5.22852e-06
5.22878e-06
5.22903e-06
5.22926e-06
5.22949e-06
5.22969e-06
5.22988e-06
5.23003e-06
5.20697e-06
5.20773e-06
5.20844e-06
5.20913e-06
5.20981e-06
5.21048e-06
5.21114e-06
5.21179e-06
5.21243e-06
5.21307e-06
5.2137e-06
5.21432e-06
5.21494e-06
5.21554e-06
5.21614e-06
5.21673e-06
5.21731e-06
5.21788e-06
5.21843e-06
5.21898e-06
5.21952e-06
5.22005e-06
5.22057e-06
5.22107e-06
5.22157e-06
5.22205e-06
5.22253e-06
5.22299e-06
5.22344e-06
5.22388e-06
5.22431e-06
5.22472e-06
5.22513e-06
5.22552e-06
5.2259e-06
5.22626e-06
5.22662e-06
5.22696e-06
5.22729e-06
5.2276e-06
5.22791e-06
5.2282e-06
5.22847e-06
5.22874e-06
5.22899e-06
5.22922e-06
5.22944e-06
5.22965e-06
5.22984e-06
5.23002e-06
5.23016e-06
5.20698e-06
5.20774e-06
5.20846e-06
5.20916e-06
5.20985e-06
5.21052e-06
5.21118e-06
5.21184e-06
5.21248e-06
5.21312e-06
5.21375e-06
5.21437e-06
5.21498e-06
5.21558e-06
5.21618e-06
5.21676e-06
5.21734e-06
5.2179e-06
5.21845e-06
5.219e-06
5.21953e-06
5.22006e-06
5.22057e-06
5.22107e-06
5.22156e-06
5.22204e-06
5.22251e-06
5.22297e-06
5.22342e-06
5.22386e-06
5.22428e-06
5.22469e-06
5.22509e-06
5.22548e-06
5.22586e-06
5.22623e-06
5.22658e-06
5.22692e-06
5.22725e-06
5.22756e-06
5.22786e-06
5.22815e-06
5.22843e-06
5.22869e-06
5.22894e-06
5.22918e-06
5.2294e-06
5.22961e-06
5.22981e-06
5.22998e-06
5.23015e-06
5.23027e-06
5.20698e-06
5.20776e-06
5.20849e-06
5.20919e-06
5.20988e-06
5.21056e-06
5.21123e-06
5.21188e-06
5.21253e-06
5.21317e-06
5.21379e-06
5.21441e-06
5.21502e-06
5.21562e-06
5.21621e-06
5.21679e-06
5.21736e-06
5.21793e-06
5.21848e-06
5.21902e-06
5.21955e-06
5.22006e-06
5.22057e-06
5.22107e-06
5.22156e-06
5.22204e-06
5.2225e-06
5.22296e-06
5.2234e-06
5.22383e-06
5.22426e-06
5.22467e-06
5.22506e-06
5.22545e-06
5.22583e-06
5.22619e-06
5.22654e-06
5.22688e-06
5.2272e-06
5.22752e-06
5.22782e-06
5.22811e-06
5.22839e-06
5.22865e-06
5.2289e-06
5.22914e-06
5.22937e-06
5.22958e-06
5.22977e-06
5.22995e-06
5.23011e-06
5.23027e-06
5.23037e-06
5.20698e-06
5.20777e-06
5.20851e-06
5.20922e-06
5.20992e-06
5.2106e-06
5.21127e-06
5.21193e-06
5.21258e-06
5.21321e-06
5.21384e-06
5.21446e-06
5.21507e-06
5.21566e-06
5.21625e-06
5.21683e-06
5.21739e-06
5.21795e-06
5.2185e-06
5.21903e-06
5.21956e-06
5.22007e-06
5.22058e-06
5.22107e-06
5.22156e-06
5.22203e-06
5.22249e-06
5.22294e-06
5.22339e-06
5.22381e-06
5.22423e-06
5.22464e-06
5.22504e-06
5.22542e-06
5.22579e-06
5.22615e-06
5.2265e-06
5.22684e-06
5.22717e-06
5.22748e-06
5.22778e-06
5.22807e-06
5.22835e-06
5.22861e-06
5.22887e-06
5.2291e-06
5.22933e-06
5.22954e-06
5.22974e-06
5.22992e-06
5.23008e-06
5.23023e-06
5.23037e-06
5.23046e-06
5.20699e-06
5.20778e-06
5.20853e-06
5.20925e-06
5.20996e-06
5.21064e-06
5.21132e-06
5.21198e-06
5.21262e-06
5.21326e-06
5.21389e-06
5.2145e-06
5.21511e-06
5.2157e-06
5.21629e-06
5.21686e-06
5.21742e-06
5.21798e-06
5.21852e-06
5.21905e-06
5.21957e-06
5.22008e-06
5.22058e-06
5.22108e-06
5.22156e-06
5.22203e-06
5.22248e-06
5.22293e-06
5.22337e-06
5.2238e-06
5.22421e-06
5.22462e-06
5.22501e-06
5.22539e-06
5.22576e-06
5.22612e-06
5.22647e-06
5.2268e-06
5.22713e-06
5.22744e-06
5.22774e-06
5.22803e-06
5.22831e-06
5.22857e-06
5.22883e-06
5.22907e-06
5.22929e-06
5.2295e-06
5.2297e-06
5.22989e-06
5.23005e-06
5.23021e-06
5.23034e-06
5.23047e-06
5.23055e-06
5.20699e-06
5.2078e-06
5.20855e-06
5.20928e-06
5.20999e-06
5.21068e-06
5.21136e-06
5.21202e-06
5.21267e-06
5.21331e-06
5.21393e-06
5.21455e-06
5.21515e-06
5.21574e-06
5.21633e-06
5.2169e-06
5.21745e-06
5.218e-06
5.21854e-06
5.21907e-06
5.21959e-06
5.2201e-06
5.22059e-06
5.22108e-06
5.22156e-06
5.22202e-06
5.22248e-06
5.22292e-06
5.22336e-06
5.22378e-06
5.22419e-06
5.22459e-06
5.22498e-06
5.22536e-06
5.22573e-06
5.22609e-06
5.22643e-06
5.22677e-06
5.22709e-06
5.2274e-06
5.2277e-06
5.22799e-06
5.22827e-06
5.22854e-06
5.22879e-06
5.22903e-06
5.22926e-06
5.22947e-06
5.22967e-06
5.22985e-06
5.23002e-06
5.23018e-06
5.23032e-06
5.23044e-06
5.23055e-06
5.23062e-06
5.20699e-06
5.20781e-06
5.20857e-06
5.20931e-06
5.21003e-06
5.21072e-06
5.2114e-06
5.21207e-06
5.21272e-06
5.21335e-06
5.21398e-06
5.21459e-06
5.21519e-06
5.21578e-06
5.21636e-06
5.21693e-06
5.21749e-06
5.21803e-06
5.21857e-06
5.21909e-06
5.2196e-06
5.22011e-06
5.2206e-06
5.22108e-06
5.22156e-06
5.22202e-06
5.22247e-06
5.22291e-06
5.22334e-06
5.22376e-06
5.22417e-06
5.22457e-06
5.22496e-06
5.22534e-06
5.2257e-06
5.22606e-06
5.2264e-06
5.22673e-06
5.22706e-06
5.22737e-06
5.22767e-06
5.22796e-06
5.22824e-06
5.2285e-06
5.22875e-06
5.229e-06
5.22922e-06
5.22944e-06
5.22964e-06
5.22982e-06
5.23e-06
5.23015e-06
5.23029e-06
5.23042e-06
5.23053e-06
5.23063e-06
5.23068e-06
5.207e-06
5.20782e-06
5.2086e-06
5.20934e-06
5.21006e-06
5.21076e-06
5.21144e-06
5.21211e-06
5.21276e-06
5.2134e-06
5.21402e-06
5.21464e-06
5.21524e-06
5.21582e-06
5.2164e-06
5.21696e-06
5.21752e-06
5.21806e-06
5.21859e-06
5.21911e-06
5.21962e-06
5.22012e-06
5.22061e-06
5.22109e-06
5.22156e-06
5.22202e-06
5.22247e-06
5.22291e-06
5.22333e-06
5.22375e-06
5.22416e-06
5.22455e-06
5.22494e-06
5.22531e-06
5.22567e-06
5.22603e-06
5.22637e-06
5.2267e-06
5.22702e-06
5.22734e-06
5.22764e-06
5.22792e-06
5.2282e-06
5.22847e-06
5.22872e-06
5.22896e-06
5.22919e-06
5.22941e-06
5.22961e-06
5.22979e-06
5.22997e-06
5.23013e-06
5.23027e-06
5.2304e-06
5.23051e-06
5.23061e-06
5.23069e-06
5.23074e-06
5.207e-06
5.20783e-06
5.20862e-06
5.20937e-06
5.21009e-06
5.2108e-06
5.21149e-06
5.21215e-06
5.21281e-06
5.21344e-06
5.21407e-06
5.21468e-06
5.21528e-06
5.21586e-06
5.21644e-06
5.217e-06
5.21755e-06
5.21809e-06
5.21861e-06
5.21913e-06
5.21964e-06
5.22014e-06
5.22062e-06
5.2211e-06
5.22156e-06
5.22202e-06
5.22247e-06
5.2229e-06
5.22332e-06
5.22374e-06
5.22414e-06
5.22453e-06
5.22492e-06
5.22529e-06
5.22565e-06
5.226e-06
5.22634e-06
5.22667e-06
5.22699e-06
5.2273e-06
5.2276e-06
5.22789e-06
5.22817e-06
5.22843e-06
5.22869e-06
5.22893e-06
5.22916e-06
5.22937e-06
5.22958e-06
5.22977e-06
5.22994e-06
5.2301e-06
5.23025e-06
5.23038e-06
5.23049e-06
5.23059e-06
5.23068e-06
5.23075e-06
5.23078e-06
5.20701e-06
5.20785e-06
5.20864e-06
5.20939e-06
5.21013e-06
5.21084e-06
5.21153e-06
5.2122e-06
5.21285e-06
5.21349e-06
5.21411e-06
5.21472e-06
5.21532e-06
5.2159e-06
5.21647e-06
5.21703e-06
5.21758e-06
5.21811e-06
5.21864e-06
5.21915e-06
5.21966e-06
5.22015e-06
5.22063e-06
5.22111e-06
5.22157e-06
5.22202e-06
5.22246e-06
5.22289e-06
5.22332e-06
5.22373e-06
5.22413e-06
5.22452e-06
5.2249e-06
5.22527e-06
5.22563e-06
5.22598e-06
5.22631e-06
5.22664e-06
5.22696e-06
5.22727e-06
5.22757e-06
5.22786e-06
5.22814e-06
5.2284e-06
5.22866e-06
5.2289e-06
5.22913e-06
5.22934e-06
5.22955e-06
5.22974e-06
5.22991e-06
5.23008e-06
5.23022e-06
5.23036e-06
5.23048e-06
5.23058e-06
5.23067e-06
5.23074e-06
5.2308e-06
5.23082e-06
5.20701e-06
5.20786e-06
5.20866e-06
5.20942e-06
5.21016e-06
5.21087e-06
5.21156e-06
5.21224e-06
5.21289e-06
5.21353e-06
5.21415e-06
5.21476e-06
5.21536e-06
5.21594e-06
5.21651e-06
5.21707e-06
5.21761e-06
5.21814e-06
5.21867e-06
5.21918e-06
5.21968e-06
5.22017e-06
5.22065e-06
5.22112e-06
5.22157e-06
5.22202e-06
5.22246e-06
5.22289e-06
5.22331e-06
5.22372e-06
5.22411e-06
5.2245e-06
5.22488e-06
5.22525e-06
5.2256e-06
5.22595e-06
5.22629e-06
5.22662e-06
5.22694e-06
5.22724e-06
5.22754e-06
5.22783e-06
5.2281e-06
5.22837e-06
5.22862e-06
5.22887e-06
5.2291e-06
5.22931e-06
5.22952e-06
5.22971e-06
5.22989e-06
5.23005e-06
5.2302e-06
5.23034e-06
5.23046e-06
5.23057e-06
5.23066e-06
5.23073e-06
5.23079e-06
5.23084e-06
5.23084e-06
5.20701e-06
5.20787e-06
5.20867e-06
5.20945e-06
5.21019e-06
5.21091e-06
5.2116e-06
5.21228e-06
5.21293e-06
5.21357e-06
5.2142e-06
5.21481e-06
5.2154e-06
5.21598e-06
5.21655e-06
5.2171e-06
5.21764e-06
5.21817e-06
5.21869e-06
5.2192e-06
5.2197e-06
5.22018e-06
5.22066e-06
5.22113e-06
5.22158e-06
5.22203e-06
5.22246e-06
5.22289e-06
5.2233e-06
5.22371e-06
5.2241e-06
5.22449e-06
5.22486e-06
5.22523e-06
5.22558e-06
5.22593e-06
5.22626e-06
5.22659e-06
5.22691e-06
5.22722e-06
5.22751e-06
5.2278e-06
5.22808e-06
5.22834e-06
5.22859e-06
5.22884e-06
5.22907e-06
5.22928e-06
5.22949e-06
5.22968e-06
5.22986e-06
5.23003e-06
5.23018e-06
5.23032e-06
5.23044e-06
5.23055e-06
5.23065e-06
5.23073e-06
5.23079e-06
5.23084e-06
5.23087e-06
5.23086e-06
5.20702e-06
5.20788e-06
5.20869e-06
5.20947e-06
5.21022e-06
5.21094e-06
5.21164e-06
5.21232e-06
5.21298e-06
5.21362e-06
5.21424e-06
5.21485e-06
5.21544e-06
5.21602e-06
5.21658e-06
5.21714e-06
5.21768e-06
5.2182e-06
5.21872e-06
5.21922e-06
5.21972e-06
5.2202e-06
5.22067e-06
5.22114e-06
5.22159e-06
5.22203e-06
5.22246e-06
5.22288e-06
5.2233e-06
5.2237e-06
5.22409e-06
5.22447e-06
5.22485e-06
5.22521e-06
5.22556e-06
5.22591e-06
5.22624e-06
5.22657e-06
5.22688e-06
5.22719e-06
5.22748e-06
5.22777e-06
5.22805e-06
5.22831e-06
5.22856e-06
5.22881e-06
5.22904e-06
5.22926e-06
5.22946e-06
5.22966e-06
5.22984e-06
5.23e-06
5.23016e-06
5.2303e-06
5.23043e-06
5.23054e-06
5.23064e-06
5.23072e-06
5.23079e-06
5.23084e-06
5.23087e-06
5.23089e-06
5.23087e-06
5.20702e-06
5.20789e-06
5.20871e-06
5.2095e-06
5.21025e-06
5.21098e-06
5.21168e-06
5.21236e-06
5.21302e-06
5.21366e-06
5.21428e-06
5.21489e-06
5.21548e-06
5.21606e-06
5.21662e-06
5.21717e-06
5.21771e-06
5.21823e-06
5.21875e-06
5.21925e-06
5.21974e-06
5.22022e-06
5.22069e-06
5.22115e-06
5.2216e-06
5.22204e-06
5.22246e-06
5.22288e-06
5.22329e-06
5.22369e-06
5.22408e-06
5.22446e-06
5.22483e-06
5.22519e-06
5.22554e-06
5.22589e-06
5.22622e-06
5.22654e-06
5.22686e-06
5.22716e-06
5.22746e-06
5.22774e-06
5.22802e-06
5.22828e-06
5.22854e-06
5.22878e-06
5.22901e-06
5.22923e-06
5.22944e-06
5.22963e-06
5.22981e-06
5.22998e-06
5.23014e-06
5.23028e-06
5.23041e-06
5.23052e-06
5.23063e-06
5.23071e-06
5.23078e-06
5.23084e-06
5.23087e-06
5.2309e-06
5.2309e-06
5.23087e-06
5.20702e-06
5.2079e-06
5.20873e-06
5.20952e-06
5.21028e-06
5.21101e-06
5.21172e-06
5.2124e-06
5.21306e-06
5.2137e-06
5.21432e-06
5.21493e-06
5.21552e-06
5.2161e-06
5.21666e-06
5.21721e-06
5.21774e-06
5.21826e-06
5.21877e-06
5.21927e-06
5.21976e-06
5.22024e-06
5.2207e-06
5.22116e-06
5.22161e-06
5.22204e-06
5.22247e-06
5.22288e-06
5.22329e-06
5.22368e-06
5.22407e-06
5.22445e-06
5.22482e-06
5.22518e-06
5.22553e-06
5.22587e-06
5.2262e-06
5.22652e-06
5.22684e-06
5.22714e-06
5.22743e-06
5.22772e-06
5.22799e-06
5.22826e-06
5.22851e-06
5.22875e-06
5.22898e-06
5.2292e-06
5.22941e-06
5.22961e-06
5.22979e-06
5.22996e-06
5.23012e-06
5.23026e-06
5.23039e-06
5.23051e-06
5.23061e-06
5.2307e-06
5.23078e-06
5.23084e-06
5.23088e-06
5.2309e-06
5.23091e-06
5.2309e-06
5.23085e-06
5.20702e-06
5.20791e-06
5.20875e-06
5.20954e-06
5.21031e-06
5.21104e-06
5.21175e-06
5.21244e-06
5.2131e-06
5.21374e-06
5.21437e-06
5.21497e-06
5.21556e-06
5.21614e-06
5.2167e-06
5.21724e-06
5.21778e-06
5.21829e-06
5.2188e-06
5.2193e-06
5.21978e-06
5.22026e-06
5.22072e-06
5.22117e-06
5.22161e-06
5.22205e-06
5.22247e-06
5.22288e-06
5.22329e-06
5.22368e-06
5.22406e-06
5.22444e-06
5.22481e-06
5.22516e-06
5.22551e-06
5.22585e-06
5.22618e-06
5.2265e-06
5.22681e-06
5.22712e-06
5.22741e-06
5.22769e-06
5.22797e-06
5.22823e-06
5.22848e-06
5.22872e-06
5.22896e-06
5.22918e-06
5.22938e-06
5.22958e-06
5.22976e-06
5.22994e-06
5.2301e-06
5.23024e-06
5.23038e-06
5.2305e-06
5.2306e-06
5.2307e-06
5.23077e-06
5.23083e-06
5.23088e-06
5.23091e-06
5.23092e-06
5.23092e-06
5.23089e-06
5.23083e-06
5.20703e-06
5.20792e-06
5.20876e-06
5.20957e-06
5.21034e-06
5.21108e-06
5.21179e-06
5.21248e-06
5.21314e-06
5.21378e-06
5.21441e-06
5.21501e-06
5.2156e-06
5.21618e-06
5.21673e-06
5.21728e-06
5.21781e-06
5.21833e-06
5.21883e-06
5.21932e-06
5.2198e-06
5.22028e-06
5.22074e-06
5.22118e-06
5.22162e-06
5.22205e-06
5.22247e-06
5.22288e-06
5.22328e-06
5.22368e-06
5.22406e-06
5.22443e-06
5.2248e-06
5.22515e-06
5.2255e-06
5.22583e-06
5.22616e-06
5.22648e-06
5.22679e-06
5.22709e-06
5.22739e-06
5.22767e-06
5.22794e-06
5.2282e-06
5.22846e-06
5.2287e-06
5.22893e-06
5.22915e-06
5.22936e-06
5.22956e-06
5.22974e-06
5.22992e-06
5.23008e-06
5.23023e-06
5.23036e-06
5.23048e-06
5.23059e-06
5.23069e-06
5.23077e-06
5.23083e-06
5.23088e-06
5.23092e-06
5.23093e-06
5.23093e-06
5.23092e-06
5.23087e-06
5.2308e-06
5.20703e-06
5.20793e-06
5.20878e-06
5.20959e-06
5.21036e-06
5.21111e-06
5.21182e-06
5.21251e-06
5.21318e-06
5.21382e-06
5.21445e-06
5.21505e-06
5.21564e-06
5.21621e-06
5.21677e-06
5.21731e-06
5.21784e-06
5.21836e-06
5.21886e-06
5.21935e-06
5.21983e-06
5.22029e-06
5.22075e-06
5.2212e-06
5.22163e-06
5.22206e-06
5.22248e-06
5.22289e-06
5.22328e-06
5.22367e-06
5.22405e-06
5.22442e-06
5.22479e-06
5.22514e-06
5.22548e-06
5.22582e-06
5.22615e-06
5.22646e-06
5.22677e-06
5.22707e-06
5.22736e-06
5.22765e-06
5.22792e-06
5.22818e-06
5.22843e-06
5.22867e-06
5.2289e-06
5.22913e-06
5.22933e-06
5.22953e-06
5.22972e-06
5.22989e-06
5.23006e-06
5.23021e-06
5.23035e-06
5.23047e-06
5.23058e-06
5.23068e-06
5.23076e-06
5.23083e-06
5.23089e-06
5.23092e-06
5.23094e-06
5.23095e-06
5.23093e-06
5.2309e-06
5.23084e-06
5.23076e-06
5.20703e-06
5.20794e-06
5.2088e-06
5.20961e-06
5.21039e-06
5.21114e-06
5.21186e-06
5.21255e-06
5.21322e-06
5.21386e-06
5.21449e-06
5.21509e-06
5.21568e-06
5.21625e-06
5.21681e-06
5.21735e-06
5.21787e-06
5.21839e-06
5.21889e-06
5.21937e-06
5.21985e-06
5.22031e-06
5.22077e-06
5.22121e-06
5.22165e-06
5.22207e-06
5.22248e-06
5.22289e-06
5.22328e-06
5.22367e-06
5.22405e-06
5.22442e-06
5.22478e-06
5.22513e-06
5.22547e-06
5.2258e-06
5.22613e-06
5.22645e-06
5.22675e-06
5.22705e-06
5.22734e-06
5.22762e-06
5.22789e-06
5.22816e-06
5.22841e-06
5.22865e-06
5.22888e-06
5.2291e-06
5.22931e-06
5.22951e-06
5.2297e-06
5.22987e-06
5.23004e-06
5.23019e-06
5.23033e-06
5.23046e-06
5.23057e-06
5.23067e-06
5.23076e-06
5.23083e-06
5.23089e-06
5.23093e-06
5.23095e-06
5.23096e-06
5.23095e-06
5.23092e-06
5.23088e-06
5.2308e-06
5.23071e-06
5.20704e-06
5.20795e-06
5.20881e-06
5.20963e-06
5.21042e-06
5.21117e-06
5.21189e-06
5.21259e-06
5.21325e-06
5.2139e-06
5.21453e-06
5.21513e-06
5.21572e-06
5.21629e-06
5.21684e-06
5.21738e-06
5.2179e-06
5.21842e-06
5.21891e-06
5.2194e-06
5.21987e-06
5.22033e-06
5.22079e-06
5.22123e-06
5.22166e-06
5.22208e-06
5.22249e-06
5.22289e-06
5.22329e-06
5.22367e-06
5.22405e-06
5.22441e-06
5.22477e-06
5.22512e-06
5.22546e-06
5.22579e-06
5.22612e-06
5.22643e-06
5.22674e-06
5.22703e-06
5.22732e-06
5.2276e-06
5.22787e-06
5.22813e-06
5.22838e-06
5.22863e-06
5.22886e-06
5.22908e-06
5.22929e-06
5.22949e-06
5.22968e-06
5.22985e-06
5.23002e-06
5.23017e-06
5.23032e-06
5.23045e-06
5.23056e-06
5.23067e-06
5.23075e-06
5.23083e-06
5.23089e-06
5.23093e-06
5.23096e-06