/*--------------------------------*- C++ -*----------------------------------*\
  =========                 |
  \\      /  F ield         | OpenFOAM: The Open Source CFD Toolbox
   \\    /   O peration     | Website:  https://openfoam.org
    \\  /    A nd           | Version:  7
     \\/     M anipulation  |
\*---------------------------------------------------------------------------*/
FoamFile
{
    version     2.0;
    format      ascii;
    class       volScalarField;
    location    "200";
    object      p;
}
// * * * * * * * * * * * * * * * * * * * * * * * * * * * * * * * * * * * * * //

dimensions      [0 2 -2 0 0 0 0];

internalField   nonuniform List<scalar> 
23052
(
30.7873
28.6711
18.9797
27.2583
19.9276
21.9708
26.2462
20.3115
21.2988
22.1106
25.5085
20.4513
20.9215
22.2243
22.6203
22.9962
24.9457
20.4778
20.6806
22.1876
22.5297
23.052
23.8178
24.3169
24.5007
20.4609
20.507
22.0956
22.4704
23.0526
23.7716
24.3739
25.1311
24.1354
20.4321
20.3698
21.9832
22.4164
23.0185
23.7413
24.3885
25.1488
25.8629
23.8272
20.4041
20.2552
21.8666
22.3577
22.9702
23.7049
24.3874
25.1341
25.9002
26.7102
23.5571
20.3814
20.1567
21.7518
22.2934
22.9125
23.6621
24.3667
25.1209
25.9008
26.7377
27.5784
23.3139
20.3638
20.0708
21.6408
22.2242
22.8484
23.611
24.3349
25.0963
25.8948
26.7307
27.6099
28.5133
23.0918
20.3496
19.9945
21.534
22.1513
22.7791
23.5521
24.2924
25.0634
25.8734
26.7215
27.6052
28.5419
29.4936
22.8812
20.3372
19.9262
21.4304
22.0755
22.7055
23.4862
24.2408
25.0211
25.8422
26.6987
27.5964
28.5345
29.5224
30.5313
22.6812
20.3237
19.8639
21.3297
21.9972
22.628
23.4142
24.1809
24.9701
25.8008
26.667
27.5731
28.5238
29.5144
30.5586
31.6225
22.4872
20.3077
19.8057
21.2308
21.9165
22.5468
23.3363
24.1134
24.9107
25.7501
26.6251
27.5405
28.4989
29.5025
30.5487
31.6489
32.7712
22.2957
20.287
19.75
21.1327
21.8334
22.4622
23.2529
24.0387
24.8433
25.6904
26.5739
27.4975
28.4648
29.4762
30.5349
31.6375
32.7962
33.9777
22.1068
20.2607
19.6954
21.0346
21.7474
22.3741
23.1644
23.9571
24.7682
25.6222
26.5133
27.4448
28.4201
29.4403
30.5067
31.6219
32.7829
34.0014
35.2443
21.9195
20.2278
19.6404
20.9359
21.6583
22.2823
23.0709
23.8692
24.6855
25.5457
26.4439
27.3827
28.3655
29.3937
30.4688
31.5918
32.7654
33.9864
35.2664
36.5723
21.7309
20.1872
19.5838
20.8356
21.5657
22.1868
22.9724
23.7749
24.5958
25.4611
26.3658
27.3113
28.3013
29.337
30.4199
31.5517
32.7331
33.9668
35.2496
36.5929
37.9636
21.54
20.1381
19.5247
20.733
21.4692
22.0871
22.8689
23.6745
24.4992
25.3689
26.2792
27.231
28.2276
29.2705
30.3609
31.5005
32.6907
33.9323
35.2278
36.5742
37.9825
39.4197
21.3485
20.0802
19.462
20.6277
21.3684
21.9834
22.7603
23.5681
24.3957
25.2692
26.1845
27.1419
28.1447
29.1942
30.2918
31.439
32.6371
33.8875
35.1911
36.5502
37.9618
39.4369
40.9423
21.1546
20.0136
19.3951
20.519
21.263
21.8751
22.6468
23.4556
24.2856
25.1621
26.0818
27.0443
28.0527
29.1084
30.2127
31.3671
32.5728
33.8313
35.1438
36.5111
37.9356
39.4143
40.9578
42.5332
20.9569
19.9378
19.3235
20.4065
21.1525
21.762
22.5281
23.3373
24.169
25.0478
25.9713
26.9383
27.9519
29.0134
30.124
31.2851
32.498
33.7643
35.0849
36.4613
37.8942
39.3858
40.9333
42.547
44.194
20.7561
19.8524
19.2464
20.2899
21.0369
21.644
22.4042
23.213
24.0458
24.9265
25.8531
26.8241
27.8424
28.9092
30.0256
31.1931
32.4129
33.6865
35.015
36.3997
37.8418
39.342
40.9025
42.5205
44.2061
45.9264
20.5532
19.7575
19.1634
20.1686
20.9158
21.5209
22.2749
23.0827
23.9162
24.7981
25.7274
26.702
27.7244
28.7961
29.9179
31.0914
32.3177
33.5982
34.9341
36.3269
37.7774
39.287
40.8563
42.4875
44.1779
45.9369
47.7322
20.3461
19.6533
19.0742
20.0425
20.7891
21.3924
22.1403
22.9466
23.7802
24.663
25.5943
26.5719
27.5981
28.6742
29.801
30.98
32.2124
33.4995
34.8426
36.2429
37.7016
39.2198
40.7987
42.439
44.1426
45.9069
47.7411
49.613
20.1359
19.5398
18.9786
19.9114
20.6566
21.2583
22
22.8044
23.6379
24.521
25.454
26.4342
27.4636
28.5437
29.6751
30.8593
32.0973
33.3906
34.7404
36.1479
37.6144
39.141
40.7288
42.3789
44.0917
45.8696
47.7095
49.6205
51.5707
19.9222
19.4171
18.8763
19.775
20.5182
21.1186
21.8541
22.6563
23.4892
24.3723
25.3064
26.2888
27.3211
28.4047
29.5403
30.7292
31.9725
33.2716
34.6278
36.0422
37.5161
39.0507
40.647
42.3061
44.0291
45.8165
47.6702
49.5874
51.5768
53.6069
19.7048
19.2854
18.7672
19.6333
20.3738
20.9731
21.7026
22.5021
23.3343
24.217
25.1518
26.1359
27.1706
28.2574
29.3968
30.59
31.8382
33.1428
34.5049
35.9258
37.4068
38.949
40.5534
42.2214
43.9537
45.7514
47.615
49.5463
51.5425
53.612
55.7235
19.4843
19.1449
18.651
19.4861
20.2233
20.8218
21.5454
22.342
23.173
24.0551
24.9903
25.9756
27.0124
28.1018
29.2446
30.4418
31.6946
33.0042
34.3719
35.799
37.2866
38.836
40.4483
42.1246
43.866
45.6734
47.5477
49.4892
51.4998
53.5766
55.7277
57.9223
19.2598
18.9958
18.5279
19.3332
20.0667
20.6645
21.3825
22.1759
23.0055
23.8866
24.8218
25.808
26.8464
27.9382
29.084
30.2848
31.5417
32.856
34.2289
35.6618
37.1557
38.712
40.3318
42.0161
43.7662
45.5829
47.4671
49.4197
51.441
53.5326
55.6917
57.926
60.2055
19.0324
18.8382
18.3976
19.1747
19.904
20.5014
21.2137
22.0038
22.8318
23.7117
24.6465
25.6333
26.6729
27.7666
28.915
30.119
31.3797
32.6983
34.0761
35.5143
37.0142
38.5771
40.204
41.896
43.6543
45.48
47.3739
49.3368
51.3696
53.4724
55.6467
57.8898
60.2089
62.5749
18.8015
18.6725
18.2603
19.0106
19.7352
20.3323
21.0392
21.8258
22.652
23.5303
24.4645
25.4515
26.492
27.5873
28.7378
29.9446
31.2087
32.5312
33.9135
35.3568
36.8623
38.4313
40.065
41.7644
43.5307
45.3649
47.2681
49.2411
51.2845
53.3993
55.5854
57.8442
60.1728
62.5782
65.0324
18.5672
18.499
18.116
18.8408
19.5604
20.1572
20.8589
21.6418
22.466
23.3426
24.2758
25.2626
26.3037
27.4002
28.5526
29.7618
31.0289
32.355
33.7414
35.1893
36.7001
38.2748
39.9149
41.6213
43.3952
45.2378
47.1499
49.1325
51.1864
53.3123
55.5108
57.782
60.1269
62.5429
65.0363
67.5804
18.3295
18.3178
17.9647
18.6655
19.3796
19.9763
20.6729
21.452
22.2739
23.1486
24.0806
25.0669
26.1082
27.2055
28.3593
29.5706
30.8403
32.1696
33.5598
35.012
36.5277
38.1079
39.7539
41.4669
43.2481
45.0986
47.0193
49.0112
51.0752
53.212
55.4222
57.7063
60.0644
62.4972
65.0022
67.5853
70.2213
18.0891
18.1291
17.8064
18.4845
19.1929
19.7894
20.4811
21.2563
22.0758
22.9485
23.8788
24.8645
25.9055
27.0033
28.1582
29.3712
30.6431
31.9753
33.3688
34.825
36.3451
37.9304
39.5821
41.3014
43.0896
44.9475
46.8765
48.8774
50.9511
53.0984
55.32
57.6164
59.9881
62.4348
64.9574
67.553
70.2276
72.9572
17.8455
17.9334
17.6413
18.298
19.0003
19.5967
20.2837
21.0548
21.8718
22.7421
23.6707
24.6553
25.6959
26.7937
27.9494
29.1637
30.4375
31.7721
33.1686
34.6283
36.1526
37.7426
39.3996
41.1248
42.9195
44.7847
46.7216
48.7311
50.8142
52.9717
55.2044
57.5128
59.8973
62.3583
64.8956
67.5097
70.1978
72.9655
75.7905
17.5991
17.7307
17.4696
18.1061
18.8021
19.3982
20.0807
20.8477
21.662
22.5297
23.4563
24.4395
25.4793
26.5769
27.7329
28.9482
30.2235
31.5601
32.9593
34.4222
35.9502
37.5445
39.2065
40.9373
42.7381
44.6102
46.5546
48.5724
50.6645
52.8319
55.0753
57.3953
59.7925
62.2671
64.8194
67.4491
70.1565
72.9389
75.8015
78.7241
17.3497
17.5216
17.2912
17.9087
18.5981
19.1941
19.8721
20.6349
21.4463
22.3114
23.2357
24.2172
25.2559
26.3529
27.509
28.7248
30.0013
31.3396
32.741
34.2067
35.7381
37.3364
39.0029
40.7389
42.5455
44.4241
46.3757
48.4014
50.5022
52.6791
54.9328
57.2641
59.6735
62.1615
64.7281
67.3737
70.0978
72.9005
75.7789
78.7383
81.7605
17.0974
17.3061
17.1064
17.7062
18.3887
18.9844
19.6581
20.4165
21.2249
22.0872
23.0089
23.9885
25.0258
26.1219
27.2776
28.4936
29.7709
31.1105
32.5138
33.982
35.5163
37.1182
38.7889
40.5297
42.3418
44.2265
46.1849
48.2182
50.3273
52.5133
54.7771
57.1192
59.5405
62.0414
64.6222
67.283
70.0238
72.8442
75.7442
78.7206
81.7785
84.9023
16.8426
17.0846
16.9153
17.4984
18.174
18.7692
19.4388
20.1928
20.9979
21.8572
22.7762
23.7535
24.7891
25.884
27.039
28.2549
29.5325
30.8731
32.2778
33.748
35.285
36.8901
38.5646
40.3098
42.1271
44.0175
45.9824
48.0228
50.14
52.3347
54.608
56.9608
59.3936
61.9071
64.5016
67.1773
69.9343
72.7725
75.6912
78.6903
81.7665
84.9249
88.1525
16.5857
16.8573
16.718
17.2855
17.954
18.5487
19.2141
19.9637
20.7654
21.6215
22.5375
23.5124
24.5459
25.6393
26.7933
28.0086
29.2862
30.6274
32.0332
33.5051
35.0443
36.6522
38.3301
40.0794
41.9013
43.7971
45.7681
47.8154
49.9402
52.1434
54.4259
56.7889
59.2328
61.7585
64.3663
67.0566
69.8294
72.6847
75.6223
78.6412
81.7416
84.9198
88.1804
91.514
16.3257
16.6244
16.5148
17.0677
17.7289
18.3229
18.9844
19.7293
20.5275
21.3802
22.2931
23.2652
24.2964
25.3879
26.5405
27.7549
29.0322
30.3735
31.7801
33.2532
34.7942
36.4046
38.0855
39.8384
41.6646
43.5655
45.5421
47.596
49.7279
51.9392
54.2307
56.6034
59.0583
61.5957
64.2164
66.9208
69.7092
72.5813
75.5371
78.5761
81.6975
84.9013
88.1834
91.5482
94.9897
16.0633
16.3864
16.3057
16.8451
17.4988
18.0921
18.7496
19.4898
20.2843
21.1335
22.0429
23.012
24.0406
25.1299
26.2807
27.4939
28.7705
30.1116
31.5185
32.9924
34.5349
36.1472
37.8309
39.5871
41.4172
43.3227
45.3047
47.3645
49.5034
51.7223
54.0224
56.4046
58.8699
61.4188
64.0521
66.7702
69.5734
72.462
75.4357
78.4943
81.637
84.8632
88.1721
91.5602
95.0313
98.583
15.7989
16.1433
16.091
16.6178
17.2639
17.8562
18.5098
19.2454
20.036
20.8814
21.7872
22.753
23.7787
24.8655
26.0142
27.2258
28.5013
29.8418
31.2485
32.723
34.2665
35.8804
37.5663
39.3254
41.159
43.0687
45.0557
47.1212
49.2665
51.4928
53.801
56.1924
58.6677
61.2277
63.8732
66.6048
69.4226
72.327
75.3182
78.3957
81.5592
84.808
88.141
91.5575
95.0536
98.633
102.297
15.5326
15.8955
15.8708
16.386
17.0244
17.6155
18.2652
18.996
19.7826
20.6241
21.5261
22.4883
23.5108
24.5947
25.741
26.9507
28.2246
29.5641
30.9704
32.4449
33.989
35.6042
37.2919
39.0534
40.8902
42.8037
44.7952
46.866
49.0175
51.2507
53.5667
55.9668
58.4518
61.0225
63.6798
66.4244
69.2564
72.1765
75.1845
78.2805
81.4644
84.7351
88.0923
91.5341
95.0604
98.6666
102.357
106.135
15.264
15.6433
15.6454
16.1497
16.7804
17.3702
18.016
18.7419
19.5243
20.3617
21.2596
22.218
23.237
24.3178
25.4613
26.6686
27.9407
29.2788
30.6842
32.1584
33.7027
35.3187
37.0077
38.7713
40.6108
42.5277
44.5234
46.5991
48.7562
50.996
53.3195
55.7279
58.2222
60.8032
63.4719
66.229
69.075
72.0102
75.0348
78.1489
81.3523
84.6447
88.0253
91.4929
95.0461
98.6844
102.403
106.205
110.1
14.9933
15.3868
15.4149
15.9091
16.532
17.1203
17.7623
18.4831
19.2611
20.0943
20.9879
21.9423
22.9575
24.0347
25.1752
26.3798
27.6496
28.9859
30.3901
31.8634
33.4076
35.0239
36.7139
38.4792
40.321
42.2408
44.2402
46.3204
48.4828
50.7287
53.0592
55.4755
57.9787
60.5698
63.2496
66.0189
68.8782
71.8282
74.869
78.0008
81.2235
84.5367
87.9402
91.433
95.0135
98.6806
102.433
106.266
110.182
114.196
14.7211
15.1263
15.1795
15.6645
16.2795
16.866
17.5041
18.2199
18.9933
19.8221
20.7111
21.6612
22.6723
23.7457
24.8827
26.0842
27.3514
28.6856
30.088
31.5603
33.1038
34.72
36.4106
38.177
40.0207
41.9431
43.9458
46.03
48.1973
50.4489
52.7859
55.2099
57.7216
60.3222
63.0128
65.7938
68.6662
71.6305
74.687
77.8361
81.0777
84.4116
87.8372
91.3541
94.9616
98.6575
102.441
106.309
110.258
114.291
118.426
14.4469
14.862
14.9394
15.4158
16.023
16.6074
17.2417
17.9524
18.721
19.5451
20.4294
21.3749
22.3817
23.451
24.5841
25.7822
27.0464
28.3779
29.7783
31.2489
32.7913
34.4071
36.0978
37.865
39.71
41.6346
43.6401
45.728
47.8997
50.1566
52.4999
54.9309
57.4508
60.0606
62.7612
65.5538
68.4388
71.4171
74.489
77.6547
80.9148
84.2688
87.7164
91.2571
94.8902
98.6144
102.428
106.33
110.317
114.384
118.536
122.794
14.1709
14.5943
14.6948
15.1633
15.7626
16.3449
16.9752
17.6806
18.4443
19.2636
20.1429
21.0835
22.0857
23.1505
24.2795
25.4738
26.7345
28.0631
29.461
30.9296
32.4705
34.0853
35.7757
37.5431
39.3892
41.3153
43.3233
45.4145
47.5901
49.8518
52.201
54.6386
57.1662
59.7847
62.4952
65.2987
68.196
71.1879
74.2747
77.457
80.7348
84.1084
87.5774
91.1416
94.7999
98.5517
102.395
106.329
110.351
114.459
118.648
122.919
127.303
13.8935
14.3232
14.4459
14.9072
15.4986
16.0784
16.7047
17.4047
18.1634
18.9776
19.8518
20.7873
21.7844
22.8445
23.969
25.1591
26.416
27.7413
29.1361
30.6023
32.1413
33.7547
35.4443
37.2115
39.0581
40.9855
42.9954
45.0892
47.2685
49.5347
51.8892
54.3332
56.8679
59.4947
62.2148
65.0288
67.9378
70.9427
74.0441
77.2424
80.5378
83.9305
87.4205
91.0074
94.6907
98.4695
102.342
106.308
110.365
114.51
118.741
123.052
127.446
131.956
13.6146
14.0491
14.1929
14.6475
15.231
15.8081
16.4305
17.1249
17.8784
18.6873
19.5561
20.4862
21.4781
22.5331
23.6527
24.8383
26.091
27.4124
28.804
30.2672
31.8038
33.4155
35.1038
36.8704
38.717
40.6452
42.6565
44.7527
46.935
49.2051
51.5644
54.0143
56.5559
59.1907
61.9196
64.7438
67.6643
70.6819
73.7973
77.0109
80.3235
83.7349
87.2454
90.8547
94.5621
98.3674
102.269
106.266
110.357
114.538
118.808
123.164
127.601
132.118
136.756
13.3341
13.772
13.936
14.3844
14.96
15.5343
16.1525
16.8414
17.5894
18.3928
19.256
20.1805
21.1668
22.2165
23.3309
24.5115
25.7597
27.0769
28.4646
29.9245
31.4583
33.0676
34.7542
36.5197
38.3659
40.2944
42.3067
44.4046
46.5896
48.8632
51.2268
53.682
56.2301
58.8722
61.6099
64.4437
67.3752
70.4051
73.534
76.7628
80.0919
83.5217
87.052
90.6831
94.4145
98.2455
102.176
106.203
110.327
114.544
118.853
123.251
127.734
132.297
136.94
141.707
13.0524
13.4924
13.6753
14.1181
14.6859
15.257
15.871
16.5543
17.2966
18.0944
18.9517
19.8703
20.8508
21.8946
23.0036
24.1789
25.422
26.7346
28.1181
29.5742
31.1047
32.7113
34.3956
36.1597
38.0049
39.9331
41.946
44.0452
46.2324
48.5089
50.8765
53.3367
55.8906
58.5397
61.2854
64.1285
67.0704
70.1122
73.2543
76.4978
79.8431
83.2906
86.8404
90.4929
94.2476
98.1041
102.062
106.119
110.275
114.528
118.875
123.314
127.841
132.454
137.145
141.915
146.813
12.7696
13.2103
13.4111
13.8487
14.4088
14.9764
15.5862
16.2637
17.0001
17.7921
18.6432
19.5557
20.53
21.5679
22.6709
23.8405
25.0783
26.3858
27.7647
29.2166
30.7433
32.3467
34.0284
35.7902
37.6341
39.5616
41.5746
43.6745
45.8633
48.1424
50.5135
52.9779
55.5374
58.1929
60.9462
63.7982
66.7502
69.8032
72.9581
76.2157
79.5766
83.0415
86.6106
90.2837
94.0613
97.9425
101.927
106.014
110.202
114.489
118.874
123.353
127.924
132.583
137.326
142.148
147.046
152.075
12.4856
12.9259
13.1436
13.5765
14.1287
14.6928
15.2981
15.9697
16.7002
17.486
18.3309
19.2369
20.2048
21.2363
22.333
23.4966
24.7286
26.0307
27.4044
28.8517
30.3741
31.9738
33.6523
35.4117
37.2536
39.1799
41.1923
43.2926
45.4824
47.7636
50.1377
52.606
55.1703
57.8319
60.5924
63.4527
66.4143
69.4781
72.6453
75.9166
79.2928
82.7745
86.3619
90.0558
93.8553
97.761
101.772
105.888
110.107
114.428
118.849
123.368
127.982
132.687
137.48
142.356
147.309
152.338
157.498
12.2005
12.6394
12.8729
13.3014
13.846
14.4062
15.007
15.6726
16.3968
17.1764
18.0147
18.914
19.8752
20.9
21.9902
23.1473
24.3731
25.6693
27.0375
28.4796
29.9974
31.5928
33.2678
35.024
36.8636
38.788
40.7995
42.8996
45.0901
47.3726
49.749
52.2209
54.7895
57.4568
60.2237
63.0918
66.0626
69.1368
72.3158
75.6004
78.9913
82.4894
86.095
89.8085
93.6301
97.5595
101.596
105.74
109.99
114.344
118.801
123.359
128.015
132.766
137.607
142.536
147.547
152.632
157.791
163.084
11.9143
12.3511
12.5993
13.0238
13.5607
14.1169
14.713
15.3725
16.0903
16.8634
17.6949
18.5872
19.5414
20.5592
21.6424
22.7928
24.012
25.3018
26.6641
28.1006
29.6132
31.2039
32.8747
34.6274
36.4639
38.3862
40.3961
42.4954
44.686
46.9695
49.3478
51.8225
54.3951
57.0671
59.8403
62.7158
65.6951
68.7792
71.9694
75.2668
78.672
82.186
85.8093
89.542
93.385
97.3375
101.4
105.571
109.851
114.238
118.73
123.326
128.023
132.818
137.708
142.689
147.755
152.901
158.12
163.411
168.835
11.6273
12.0612
12.323
12.7436
13.2731
13.8249
14.4163
15.0695
15.7807
16.5471
17.3716
18.2567
19.2036
20.214
21.2899
22.4331
23.6453
24.9284
26.2842
27.7147
29.2217
30.8072
32.4733
34.2219
36.0549
37.9744
39.9822
42.0803
44.2704
46.5543
48.9339
51.4109
53.9868
56.6634
59.4421
62.3244
65.3117
68.4052
71.6063
74.9157
78.3348
81.8642
85.5045
89.2562
93.1197
97.0952
101.183
105.381
109.69
114.109
118.636
123.269
128.007
132.846
137.783
142.813
147.934
153.139
158.423
163.776
169.198
174.754
11.3396
11.7697
12.0441
12.4612
12.9832
13.5305
14.117
14.7637
15.4682
16.2276
17.0449
17.9225
18.8618
19.8646
20.9328
22.0684
23.2733
24.5492
25.8982
27.3221
28.823
30.4029
32.0638
33.8077
35.6367
37.5529
39.558
41.6542
43.8432
46.127
48.5073
50.9861
53.5648
56.2453
59.0291
61.9176
64.9124
68.0149
71.226
74.5473
77.9797
81.5239
85.1808
88.9509
92.8346
96.8323
100.944
105.169
109.507
113.957
118.518
123.188
127.965
132.847
137.83
142.911
148.085
153.348
158.693
164.114
169.603
175.156
180.843
11.0511
11.4768
11.7627
12.1767
12.6911
13.2338
13.8152
14.4555
15.153
15.9053
16.715
17.5848
18.5163
19.5111
20.5713
21.699
22.8961
24.1644
25.5061
26.923
28.4173
29.9909
31.6461
33.3849
35.2094
37.1216
39.1236
41.2172
43.4047
45.6877
48.0683
50.5482
53.1292
55.8129
58.6012
61.4954
64.4971
67.6079
70.8288
74.1612
77.6064
81.165
84.8379
88.6259
92.5295
96.5488
100.684
104.935
109.301
113.782
118.376
123.082
127.899
132.823
137.851
142.981
148.208
153.527
158.933
164.419
169.979
175.603
181.287
187.102
10.7619
11.1828
11.4792
11.8901
12.3973
12.9349
13.5111
14.1448
14.8352
15.58
16.3821
17.2439
18.1671
19.1536
20.2055
21.3249
22.5138
23.7741
25.108
26.5174
28.0046
29.5716
31.2205
32.9536
34.773
36.6807
38.679
40.7697
42.9548
45.2365
47.6168
50.0973
52.6798
55.3663
58.1585
61.0577
64.0658
67.1845
70.4144
73.7576
77.2148
80.7871
84.4757
88.281
92.2038
96.2442
100.403
104.679
109.073
113.584
118.211
122.952
127.807
132.772
137.845
143.023
148.302
153.677
159.143
164.693
170.322
176.02
181.779
187.593
193.534
10.4722
10.8879
11.1937
11.6017
12.1016
12.6341
13.2049
13.8318
14.5149
15.2522
16.0462
16.8998
17.8145
18.7924
19.8356
20.9463
22.1266
23.3785
24.7042
26.1056
27.5852
29.145
30.7872
32.514
34.3278
36.2304
38.2243
40.3114
42.4938
44.7735
47.1527
49.6331
52.2168
54.9053
57.7009
60.6047
63.6185
66.7442
69.9829
73.3361
76.805
80.3905
84.0939
87.9159
91.8572
95.9185
100.099
104.401
108.822
113.362
118.022
122.798
127.69
132.696
137.813
143.038
148.367
153.797
159.321
164.935
170.631
176.402
182.239
188.132
194.076
200.14
10.182
10.592
10.9063
11.3116
11.8043
12.3314
12.8967
13.5167
14.1923
14.9218
15.7076
16.5526
17.4586
18.4276
19.4618
20.5634
21.7347
22.9777
24.2947
25.6878
27.1592
28.7113
30.3462
32.0662
33.8737
35.7708
37.7597
39.8426
42.0216
44.2988
46.6762
49.156
51.7401
54.4302
57.2283
60.136
63.1553
66.2874
69.534
72.8965
76.3767
79.9748
83.6926
87.5307
91.49
95.5713
99.7745
104.1
108.548
113.117
117.808
122.618
127.548
132.593
137.753
143.025
148.405
153.888
159.469
165.146
170.908
176.75
182.663
188.639
194.665
200.737
206.919
9.89129
10.2955
10.6172
11.0199
11.5055
12.0271
12.5867
13.1997
13.8676
14.589
15.3664
16.2026
17.0995
18.0593
19.0841
20.1763
21.3382
22.5719
23.8798
25.264
26.7268
28.2706
29.8977
31.6104
33.4111
35.3019
37.2853
39.3633
41.5383
43.8123
46.1876
48.6661
51.2497
53.9408
56.741
59.652
62.6757
65.8137
69.0678
72.4391
75.9294
79.5398
83.2714
87.1251
91.102
95.2026
99.4274
103.776
108.25
112.848
117.569
122.413
127.379
132.464
137.666
142.984
148.413
153.949
159.588
165.324
171.152
177.064
183.052
189.108
195.221
201.378
207.574
213.872
9.60028
9.99845
10.3267
10.7268
11.2054
11.7213
12.275
12.8808
13.5408
14.2541
15.0228
15.8499
16.7375
17.6876
18.7028
19.7852
20.9372
22.1613
23.4596
24.8344
26.2881
27.8232
29.4419
31.1467
32.94
34.824
36.8012
38.8738
41.0441
43.3143
45.6866
48.1632
50.746
53.4373
56.2388
59.1524
62.1798
65.3232
68.584
71.9636
75.4636
79.0856
82.8302
86.699
90.6927
94.8119
99.0578
103.43
107.929
112.555
117.306
122.183
127.185
132.308
137.552
142.915
148.392
153.98
159.675
165.471
171.364
177.344
183.406
189.54
195.737
201.985
208.273
214.59
220.997
9.30903
9.70097
10.0348
10.4324
10.9041
11.414
11.9618
12.5603
13.2122
13.917
14.6768
15.4946
16.3726
17.3129
18.3179
19.3902
20.5321
21.746
23.0342
24.3992
25.8434
27.3691
28.9789
30.6752
32.4605
34.3371
36.3075
38.3741
40.5391
42.8048
45.1735
47.6475
50.2288
52.9194
55.7216
58.6371
61.6681
64.8159
68.0828
71.4697
74.9791
78.6114
82.3689
86.2519
90.2618
94.3995
98.6653
103.06
107.584
112.237
117.018
121.928
126.964
132.125
137.411
142.817
148.342
153.981
159.731
165.587
171.542
177.591
183.725
189.937
196.216
202.553
208.935
215.348
221.784
228.294
9.01757
9.40323
9.74186
10.1369
10.6017
11.1056
11.6471
12.2382
12.8819
13.5781
14.3287
15.1369
16.005
16.9351
17.9298
18.9915
20.1228
21.3261
22.6039
23.9585
25.3926
26.9086
28.5089
30.1961
31.9729
33.8415
35.8045
37.8643
40.0233
42.284
44.6485
47.119
49.698
52.3875
55.1898
58.1065
61.14
64.2917
67.5639
70.9578
74.4755
78.1182
81.8874
85.784
89.8096
93.9649
98.2504
102.667
107.215
111.894
116.705
121.646
126.716
131.915
137.241
142.691
148.262
153.952
159.757
165.67
171.688
177.804
184.009
190.298
196.658
203.082
209.556
216.069
222.605
229.154
235.759
8.72606
9.10534
9.44787
9.84038
10.2984
10.796
11.3312
11.9147
12.5501
13.2373
13.9786
14.777
15.6348
16.5545
17.5384
18.5893
19.7096
20.9019
22.1687
23.5126
24.9361
26.4417
28.032
29.7097
31.4772
33.3372
35.2922
37.3446
39.497
41.7518
44.1114
46.5779
49.154
51.8417
54.6431
57.5604
60.5956
63.7505
67.0273
70.4275
73.9529
77.6049
81.3852
85.295
89.3356
93.5077
97.8125
102.25
106.821
111.527
116.365
121.338
126.442
131.677
137.042
142.536
148.153
153.893
159.75
165.722
171.801
177.983
184.259
190.622
197.063
203.573
210.138
216.748
223.388
230.043
236.7
243.392
8.43446
8.80749
9.1531
9.54302
9.99424
10.4855
11.0142
11.59
12.2168
12.8949
13.6267
14.4149
15.2623
16.1712
17.1441
18.1837
19.2927
20.4735
21.729
23.0616
24.474
25.9687
27.5485
29.2159
30.9737
32.8245
34.7707
36.8152
38.9603
41.2085
43.5625
46.0244
48.5967
51.2816
54.0816
56.9987
60.035
63.1925
66.4731
69.8788
73.4111
77.0721
80.8628
84.7848
88.8397
93.0278
97.3508
101.809
106.404
111.134
116
121.002
126.14
131.411
136.815
142.35
148.014
153.803
159.713
165.741
171.88
178.127
184.473
190.91
197.431
204.024
210.68
217.386
224.127
230.891
237.659
244.419
251.187
8.14286
8.50977
8.85765
9.24494
9.68953
10.1743
10.6962
11.2641
11.8822
12.5511
13.273
14.0509
14.8876
15.7853
16.7469
17.7749
18.8721
20.0412
21.2848
22.6057
24.0064
25.4898
27.0584
28.7151
30.4625
32.3033
34.2403
36.2761
38.4132
40.6542
43.0018
45.4584
48.0261
50.7078
53.5055
56.4215
59.4582
62.6173
65.9012
69.3114
72.8501
76.519
80.3195
84.2534
88.3214
92.5254
96.866
101.344
105.96
110.715
115.609
120.641
125.81
131.117
136.56
142.136
147.844
153.681
159.643
165.727
171.926
178.237
184.651
191.162
197.761
204.437
211.182
217.982
224.825
231.694
238.576
245.452
252.308
259.141
7.8514
8.21229
8.56172
8.94624
9.38427
9.86233
10.3774
10.9373
11.5465
12.2059
12.9177
13.6851
14.5107
15.3971
16.3469
17.363
18.4481
19.6049
20.8363
22.145
23.5336
25.0051
26.562
28.2074
29.9438
31.7741
33.7011
35.7275
37.8559
40.0891
42.4295
44.88
47.4426
50.1202
52.9149
55.8292
58.8652
62.0254
65.3116
68.7258
72.27
75.946
79.7553
83.6999
87.7808
91.9995
96.3573
100.854
105.492
110.271
115.191
120.251
125.453
130.794
136.275
141.891
147.644
153.528
159.541
165.679
171.939
178.312
184.795
191.377
198.053
204.813
211.644
218.538
225.479
232.454
239.448
246.442
253.419
260.362
267.25
7.56013
7.91518
8.26543
8.64713
9.07858
9.54983
10.0578
10.6096
11.2097
11.8595
12.5611
13.3177
14.132
15.0066
15.9444
16.9482
18.0208
19.165
20.3837
21.6796
23.0557
24.5147
26.0595
27.6929
29.4177
31.2369
33.1533
35.1697
37.2887
39.5132
41.8458
44.2892
46.846
49.5187
52.3095
55.2214
58.2561
61.4166
64.7041
68.1216
71.6704
75.3528
79.1702
83.1248
87.2179
91.4507
95.8244
100.34
104.998
109.8
114.746
119.835
125.067
130.443
135.959
141.616
147.412
153.343
159.407
165.599
171.916
178.352
184.901
191.555
198.307
205.148
212.067
219.052
226.092
233.171
240.274
247.386
254.486
261.556
268.579
275.506
7.26911
7.61853
7.96894
8.34767
8.77263
9.23689
9.73771
10.2813
10.8721
11.512
12.2031
12.9486
13.7514
14.6141
15.5396
16.5307
17.5904
18.7216
19.9272
21.21
22.5729
24.019
25.551
27.1718
28.8845
30.692
32.5971
34.6027
36.7117
38.9268
41.2508
43.6864
46.2365
48.9034
51.6898
54.5983
57.6311
60.7906
64.079
67.4985
71.0514
74.7392
78.5645
82.528
86.6322
90.8783
95.2673
99.8004
104.479
109.303
114.273
119.39
124.652
130.061
135.614
141.311
147.148
153.125
159.239
165.485
171.859
178.356
184.971
191.697
198.523
205.445
212.449
219.526
226.662
233.844
241.056
248.283
255.505
262.704
269.859
276.951
283.904
6.97843
7.32246
7.67241
8.04803
8.46654
8.92375
9.41714
9.95229
10.5338
11.1636
11.844
12.5783
13.3692
14.2197
15.1325
16.1107
17.1571
18.2749
19.4669
20.7361
22.0855
23.518
25.0367
26.6444
28.3443
30.1393
32.0325
34.0267
36.1249
38.3299
40.6445
43.0717
45.6143
48.2747
51.0557
53.9599
56.9897
60.1478
63.436
66.8569
70.4128
74.1055
77.9372
81.9093
86.0239
90.2821
94.6856
99.2357
103.933
108.779
113.773
118.916
124.209
129.65
135.238
140.973
146.853
152.875
159.037
165.336
171.767
178.325
185.004
191.799
198.702
205.701
212.791
219.957
227.189
234.473
241.794
249.134
256.477
263.804
271.093
278.322
285.473
292.435
6.68815
7.02709
7.376
7.74829
8.16037
8.61044
9.09627
9.62288
10.1948
10.8144
11.4839
12.2066
12.9855
13.8235
14.7233
15.6882
16.7211
17.825
19.003
20.2581
21.5934
23.0119
24.5167
26.1108
27.7973
29.5793
31.4598
33.442
35.5286
37.7227
40.0274
42.4453
44.9794
47.6326
50.4074
53.3066
56.3325
59.488
62.7753
66.1967
69.7549
73.4514
77.2886
81.2684
85.3922
89.6623
94.0795
98.6455
103.361
108.228
113.245
118.414
123.735
129.208
134.831
140.604
146.524
152.592
158.802
165.152
171.639
178.256
185.001
191.864
198.84
205.919
213.092
220.348
227.674
235.059
242.486
249.939
257.402
264.855
272.277
279.647
286.941
294.139
301.092
6.39832
6.73248
7.07982
7.44864
7.85435
8.29707
8.77524
9.29314
9.85539
10.4645
11.123
11.8339
12.6005
13.4256
14.3122
15.2634
16.2823
17.372
18.5357
19.7763
21.097
22.501
23.9914
25.5712
27.2437
29.0121
30.8793
32.8485
34.9229
37.1055
39.3993
41.8073
44.3321
46.977
49.7449
52.638
55.6595
58.8116
62.0971
65.5181
69.0773
72.777
76.6188
80.6051
84.7374
89.0182
93.4484
98.0294
102.763
107.649
112.689
117.883
123.232
128.735
134.392
140.202
146.163
152.274
158.532
164.933
171.475
178.152
184.959
191.89
198.939
206.096
213.351
220.696
228.116
235.6
243.133
250.699
258.28
265.858
273.412
280.92
288.36
295.707
302.94
309.865
6.10909
6.43878
6.78399
7.14915
7.54849
7.98386
8.45411
8.9632
9.5156
10.1141
10.7613
11.4603
12.2143
13.0263
13.8994
14.8366
15.8412
16.9163
18.0651
19.2908
20.5965
21.9854
23.4608
25.0259
26.6837
28.4377
30.291
32.2468
34.3082
36.4784
38.7605
41.1576
43.6727
46.3085
49.0683
51.9545
54.9705
58.1185
61.4011
64.8209
68.3802
72.082
75.9277
79.9196
84.0597
88.3502
92.7922
97.3874
102.137
107.042
112.104
117.323
122.699
128.232
133.922
139.767
145.768
151.922
158.226
164.678
171.274
178.01
184.879
191.878
198.998
206.232
213.569
221.001
228.514
236.097
243.734
251.411
259.11
266.812
274.496
282.142
289.727
297.226
304.614
311.867
318.743
5.82048
6.14604
6.48871
6.84995
7.2429
7.67084
8.13309
8.63316
9.17559
9.76329
10.399
11.0858
11.827
12.6257
13.4849
14.4079
15.3978
16.4579
17.5915
18.8017
20.0919
21.4654
22.9252
24.4749
26.1176
27.8566
29.6952
31.6368
33.6845
35.8416
38.1113
40.4967
43.0009
45.6268
48.3778
51.2565
54.2658
57.4085
60.6875
64.1051
67.6639
71.3665
75.215
79.2117
83.3588
87.6579
92.1108
96.7193
101.484
106.408
111.49
116.732
122.135
127.696
133.419
139.3
145.339
151.535
157.885
164.387
171.036
177.829
184.761
191.826
199.017
206.327
213.745
221.263
228.869
236.549
244.29
252.077
259.892
267.717
275.532
283.315
291.043
298.692
306.237
313.651
320.91
327.716
5.53257
5.85438
6.19402
6.55117
6.93774
7.35812
7.81223
8.30316
8.83546
9.41221
10.0362
10.7107
11.4388
12.2239
13.069
13.9774
14.9523
15.9971
17.115
18.3094
19.5837
20.941
22.3848
23.9185
25.5454
27.2688
29.0922
31.0188
33.0521
35.1952
37.4518
39.8246
42.3171
44.9324
47.6735
50.5436
53.5456
56.6821
59.9563
63.3706
66.928
70.6305
74.4809
78.4815
82.634
86.9408
91.4039
96.0247
100.805
105.745
110.847
116.112
121.539
127.129
132.883
138.799
144.876
151.113
157.508
164.058
170.76
177.61
184.603
191.733
198.995
206.379
213.878
221.482
229.178
236.956
244.8
252.696
260.627
268.574
276.517
284.435
292.306
300.105
307.807
315.384
322.81
330.06
336.772
5.2455
5.5639
5.90014
6.25293
6.6331
7.04584
7.49159
7.97333
8.49533
9.06097
9.6731
10.335
11.0499
11.8211
12.6518
13.5452
14.5048
15.5339
16.6358
17.814
19.0717
20.4125
21.8398
23.3569
24.9674
26.6746
28.4819
30.393
32.4111
34.5397
36.782
39.1416
41.6217
44.2252
46.9558
49.8162
52.8097
55.9393
59.2079
62.6178
66.1725
69.8742
73.7254
77.7285
81.8861
86.1996
90.6716
95.3035
100.097
105.054
110.175
115.461
120.913
126.53
132.314
138.263
144.377
150.654
157.094
163.691
170.445
177.351
184.404
191.6
198.93
206.389
213.968
221.656
229.443
237.316
245.263
253.267
261.312
269.381
277.452
285.505
293.518
301.466
309.323
317.063
324.658
332.081
339.304
345.897
4.95942
5.27465
5.6071
5.9553
6.32907
6.73408
7.1714
7.64373
8.15534
8.70968
9.30977
9.95883
10.6603
11.4174
12.2334
13.1116
14.0556
15.0686
16.1541
17.3155
18.5564
19.8802
21.2904
22.7904
24.3838
26.0742
27.8649
29.7597
31.7618
33.8749
36.1024
38.4479
40.9144
43.5056
46.2246
49.0745
52.0586
55.1801
58.4419
61.8468
65.3976
69.0974
72.9483
76.9532
81.114
85.4336
89.9133
94.5553
99.3617
104.334
109.472
114.779
120.254
125.898
131.711
137.693
143.843
150.16
156.642
163.287
170.091
177.052
184.165
191.424
198.824
206.356
214.013
221.785
229.662
237.631
245.678
253.79
261.949
270.138
278.336
286.524
294.677
302.773
310.785
318.687
326.452
334.049
341.452
348.631
355.078
4.6745
4.98673
5.31506
5.65844
6.02572
6.42304
6.85174
7.31454
7.81559
8.35849
8.94635
9.58243
10.2702
11.0129
11.814
12.6767
13.6047
14.6013
15.67
16.8144
18.0379
19.3442
20.7367
22.2191
23.7949
25.4677
27.2412
29.1188
31.1044
33.2013
35.4132
37.7437
40.1958
42.7736
45.4801
48.3186
51.2922
54.4048
57.6587
61.0573
64.6035
68.3003
72.1497
76.1554
80.3185
84.6429
89.1297
93.7809
98.5984
103.585
108.74
114.066
119.563
125.232
131.074
137.088
143.273
149.628
156.152
162.844
169.698
176.713
183.884
191.207
198.674
206.279
214.014
221.869
229.834
237.897
246.046