/*--------------------------------*- C++ -*----------------------------------*\
  =========                 |
  \\      /  F ield         | OpenFOAM: The Open Source CFD Toolbox
   \\    /   O peration     | Website:  https://openfoam.org
    \\  /    A nd           | Version:  7
     \\/     M anipulation  |
\*---------------------------------------------------------------------------*/
FoamFile
{
    version     2.0;
    format      ascii;
    class       surfaceScalarField;
    location    "200";
    object      phi;
}
// * * * * * * * * * * * * * * * * * * * * * * * * * * * * * * * * * * * * * //

dimensions      [0 3 -1 0 0 0 0];

internalField   nonuniform List<scalar> 
45794
(
-0.295302
0.0428472
-0.293624
0.0453697
-0.283679
0.0411487
-0.291849
0.0479056
-0.281951
0.0436414
-0.272137
0.0396738
-0.289948
0.0503434
-0.280157
0.0461112
-0.270537
0.0420413
-0.261173
0.038128
-0.287886
0.0527267
-0.27823
0.0484167
-0.268781
0.0443555
-0.2596
0.0404681
-0.250645
0.036667
-0.241868
0.0330868
-0.285769
0.0551
-0.276264
0.0507611
-0.266977
0.0466127
-0.257941
0.0426959
-0.249137
0.0389599
-0.240503
0.0353021
-0.232089
0.0318281
-0.22387
0.00209306
-0.283455
0.0572646
-0.274157
0.0529928
-0.265077
0.0488603
-0.256191
0.044863
-0.247487
0.0410452
-0.238999
0.0374563
-0.230785
0.0339983
-0.222709
0.0306678
-0.214819
0.00209261
-0.281148
0.0595185
-0.272009
0.0551167
-0.263034
0.0509505
-0.254301
0.0469707
-0.245794
0.0431705
-0.237504
0.0395501
-0.229339
0.0360099
-0.221408
0.032697
-0.213665
0.0295136
-0.206119
0.00211191
-0.278649
0.0615634
-0.269719
0.0572282
-0.260949
0.0530316
-0.25237
0.0490195
-0.24401
0.0451869
-0.235819
0.041485
-0.2278
0.0380118
-0.220065
0.0346664
-0.212417
0.0314495
-0.20498
0.0283743
-0.197728
0.00212124
-0.276109
0.0636458
-0.267387
0.0592316
-0.258725
0.055004
-0.250347
0.0510081
-0.242135
0.0471443
-0.234142
0.0435099
-0.22627
0.0399545
-0.218629
0.0365766
-0.211077
0.0333261
-0.203783
0.030252
-0.196654
0.0272995
-0.189691
0.00213064
-0.273531
0.0656195
-0.264916
0.0611751
-0.256509
0.0570151
-0.248283
0.0529404
-0.240221
0.0490937
-0.232324
0.0453271
-0.224599
0.0418387
-0.217053
0.0383783
-0.209694
0.0351937
-0.202522
0.0320659
-0.1955
0.0290987
-0.188648
0.0262564
-0.181972
0.00213986
-0.270767
0.0674858
-0.262358
0.0630614
-0.254155
0.0588216
-0.246031
0.0547625
-0.238166
0.050886
-0.230417
0.0471866
-0.222887
0.0436158
-0.215436
0.0402216
-0.208269
0.0369532
-0.201165
0.0338361
-0.194278
0.0308442
-0.187541
0.027992
-0.180974
0.0252586
-0.174566
0.00214889
-0.268016
0.0693413
-0.259762
0.0648891
-0.251711
0.060617
-0.243788
0.056579
-0.236073
0.0526689
-0.228469
0.0489374
-0.221034
0.0453335
-0.213776
0.041956
-0.206703
0.0386554
-0.19975
0.0355386
-0.192984
0.0325418
-0.186371
0.0296741
-0.179912
0.0269301
-0.173607
0.0242988
-0.16745
0.00215307
-0.26513
0.071091
-0.257078
0.0666582
-0.249229
0.0624077
-0.241507
0.058336
-0.233889
0.0543951
-0.226481
0.0506813
-0.219192
0.0470952
-0.212077
0.0436339
-0.205095
0.0403483
-0.198293
0.0371982
-0.191632
0.0341867
-0.185128
0.0312988
-0.178777
0.0285388
-0.172578
0.0259013
-0.166527
0.0233756
-0.160629
0.00216214
-0.262206
0.0728301
-0.254357
0.06837
-0.24666
0.064089
-0.239087
0.059988
-0.231618
0.0560647
-0.224356
0.0522694
-0.217209
0.0486985
-0.210237
0.0452552
-0.203447
0.0419863
-0.196746
0.0388013
-0.190209
0.0357744
-0.183818
0.0328761
-0.177583
0.0301051
-0.17149
0.0274512
-0.16554
0.0249138
-0.159741
0.0224869
-0.154078
0.00216623
-0.259201
0.0744165
-0.251503
0.0699761
-0.243955
0.0656649
-0.23658
0.0615818
-0.229307
0.0576776
-0.22219
0.0538988
-0.215236
0.0502962
-0.208406
0.0468683
-0.201708
0.0435157
-0.195111
0.0403512
-0.188718
0.0373109
-0.18245
0.0344063
-0.176326
0.0316197
-0.170339
0.0289543
-0.164493
0.0264047
-0.158793
0.0239656
-0.153223
0.0216313
-0.147793
0.00217521
-0.256109
0.0759925
-0.248612
0.0715251
-0.241262
0.0672831
-0.234036
0.0631213
-0.22691
0.0591841
-0.219985
0.0554729
-0.213176
0.0518387
-0.206438
0.0483282
-0.199879
0.0450394
-0.193441
0.0418458
-0.187171
0.0388044
-0.181019
0.0358807
-0.175008
0.0330874
-0.16913
0.0304105
-0.163388
0.027849
-0.157785
0.0253975
-0.152308
0.0230504
-0.146969
0.0208071
-0.141753
0.00217922
-0.252936
0.0775152
-0.245638
0.0730182
-0.238484
0.0687476
-0.231407
0.0646536
-0.224473
0.0606848
-0.217693
0.0568924
-0.210976
0.0532735
-0.204428
0.0498281
-0.198009
0.0464583
-0.191702
0.0433001
-0.185562
0.0402369
-0.179527
0.0373124
-0.173631
0.034504
-0.167863
0.0318204
-0.162224
0.029247
-0.156719
0.026783
-0.151338
0.0244279
-0.14609
0.0221714
-0.140963
0.0200176
-0.135968
0.00218798
-0.24973
0.078982
-0.242628
0.0745051
-0.235621
0.070155
-0.228739
0.0660793
-0.22195
0.0621301
-0.215363
0.0583544
-0.208787
0.0547027
-0.20238
0.0512259
-0.196051
0.0478702
-0.18993
0.0446866
-0.183888
0.0416254
-0.177981
0.0386904
-0.172193
0.0358745
-0.166539
0.0331796
-0.161003
0.030599
-0.1556
0.0281273
-0.150319
0.0257642
-0.145156
0.0234943
-0.140119
0.021327
-0.135207
0.0192565
-0.130409
0.0021919
-0.246489
0.0803433
-0.239485
0.0758396
-0.232724
0.0716075
-0.226036
0.0674522
-0.21939
0.0635199
-0.212896
0.0596631
-0.206512
0.0560792
-0.200244
0.052567
-0.194103
0.0492778
-0.188099
0.046039
-0.182165
0.0429637
-0.176376
0.0400205
-0.170702
0.0371998
-0.165162
0.034498
-0.159734
0.0319103
-0.154427
0.029426
-0.149242
0.0270501
-0.144173
0.0247814
-0.139225
0.0226002
-0.134396
0.0205158
-0.129675
0.0185224
-0.125076
0.0022007
-0.243118
0.0816516
-0.236358
0.0772164
-0.229741
0.0728566
-0.223198
0.0687694
-0.216745
0.0648072
-0.210392
0.0610157
-0.204197
0.0573482
-0.198069
0.0539037
-0.192066
0.0505296
-0.186154
0.0473325
-0.180385
0.044259
-0.174715
0.041303
-0.169162
0.0384804
-0.163729
0.0357665
-0.158407
0.0331715
-0.153201
0.0306844
-0.148116
0.0283001
-0.143136
0.0260133
-0.138276
0.0238331
-0.13353
0.0217343
-0.128891
0.0197314
-0.124367
0.0178138
-0.119953
0.00219961
-0.239665
0.0829041
-0.233147
0.0784408
-0.226675
0.0741507
-0.220374
0.0700324
-0.214063
0.0660873
-0.2079
0.0623155
-0.201846
0.0586649
-0.195856
0.0551356
-0.189954
0.051792
-0.184204
0.0485795
-0.178551
0.0454981
-0.173
0.0425438
-0.167569
0.0397095
-0.162244
0.036995
-0.157027
0.0343866
-0.151922
0.0318927
-0.146932
0.0295003
-0.142051
0.0272147
-0.137279
0.0250156
-0.132614
0.0229174
-0.128066
0.0209098
-0.123618
0.0189823
-0.119279
0.0171394
-0.115047
0.00220818
-0.236228
0.0841533
-0.229904
0.0796605
-0.223624
0.0753893
-0.217465
0.0712426
-0.211296
0.067265
-0.205273
0.0634607
-0.199356
0.0598258
-0.193554
0.0563631
-0.18782
0.0530017
-0.182195
0.0497837
-0.176665
0.0466942
-0.171238
0.0437358
-0.165921
0.0408959
-0.160707
0.0381733
-0.155601
0.0355693
-0.150602
0.0330666
-0.14571
0.0306706
-0.140922
0.0283714
-0.136237
0.0261733
-0.131664
0.0240656
-0.127192
0.0220432
-0.122819
0.0201106
-0.118554
0.0182574
-0.114395
0.0164881
-0.110331
0.00221192
-0.23276
0.0852998
-0.226579
0.0808287
-0.220491
0.0765279
-0.214473
0.0723972
-0.208491
0.0684382
-0.202659
0.064651
-0.19693
0.0610345
-0.191216
0.057487
-0.185607
0.0541499
-0.180126
0.0509327
-0.174727
0.0478453
-0.169424
0.0448801
-0.164222
0.0420371
-0.159124
0.0393127
-0.154124
0.0366956
-0.149227
0.0341944
-0.144434
0.0317909
-0.13974
0.0294884
-0.135147
0.0272812
-0.130655
0.0251642
-0.126263
0.023137
-0.121975
0.0211991
-0.117789
0.0193453
-0.113698
0.0175604
-0.109701
0.0158585
-0.105805
0.00221056
-0.229161
0.0863935
-0.223221
0.0819413
-0.217272
0.0776096
-0.211445
0.073499
-0.205654
0.0695599
-0.20001
0.0657886
-0.194368
0.0620887
-0.18879
0.0586091
-0.183381
0.0552616
-0.17801
0.052034
-0.172738
0.0489435
-0.167561
0.0459828
-0.162481
0.0431393
-0.157495
0.0404081
-0.152605
0.0377941
-0.147813
0.0352812
-0.143113
0.032873
-0.13851
0.0305609
-0.134008
0.0283499
-0.129607
0.0262333
-0.1253
0.0242011
-0.121091
0.0222531
-0.116979
0.0203888
-0.112956
0.0186028
-0.109036
0.0168949
-0.105206
0.0152595
-0.101466
0.00221421
-0.22558
0.0874342
-0.219781
0.082954
-0.214023
0.0786922
-0.208385
0.0745506
-0.202781
0.0706262
-0.197274
0.0668238
-0.19177
0.0631906
-0.186396
0.0596945
-0.181092
0.0563195
-0.17585
0.0531013
-0.17071
0.0500067
-0.165657
0.0470392
-0.160692
0.0441939
-0.155815
0.0414595
-0.151035
0.0388375
-0.146345
0.0363264
-0.141748
0.0339163
-0.137243
0.031606
-0.132837
0.0293895
-0.12852
0.0272632
-0.124293
0.0252261
-0.120163
0.0232727
-0.116128
0.0214028
-0.112178
0.0196109
-0.108325
0.0178918
-0.104561
0.01625
-0.100886
0.0146801
-0.097302
0.00222256
-0.221919
0.0884235
-0.216309
0.0839621
-0.210738
0.0796696
-0.205288
0.0755951
-0.199873
0.0716423
-0.194454
0.0678063
-0.189134
0.0641877
-0.183896
0.0606902
-0.178735
0.0573382
-0.173647
0.054116
-0.168635
0.0510259
-0.163707
0.0480566
-0.158858
0.0452046
-0.154095
0.0424734
-0.149428
0.0398531
-0.144842
0.0373339
-0.140341
0.0349194
-0.135931
0.0326046
-0.131616
0.0303851
-0.127385
0.0282544
-0.123242
0.0262123
-0.119195
0.0242586
-0.115234
0.022378
-0.11136
0.020585
-0.107573
0.0188595
-0.103881
0.0172111
-0.100266
0.0156296
-0.0967412
0.0141192
-0.093304
0.00222609
-0.218227
0.0893613
-0.212806
0.0849202
-0.207423
0.0806465
-0.202112
0.0764928
-0.196832
0.0725548
-0.191597
0.0687857
-0.186462
0.0651347
-0.18137
0.0616616
-0.176347
0.058302
-0.17139
0.0550817
-0.166509
0.0519899
-0.161706
0.0490251
-0.156977
0.0461762
-0.152334
0.0434433
-0.14777
0.040815
-0.143286
0.0382976
-0.138892
0.0358849
-0.134579
0.0335669
-0.130354
0.0313424
-0.126207
0.0292068
-0.122152
0.0271646
-0.118183
0.0252005
-0.114299
0.0233241
-0.110502
0.0215202
-0.106786
0.0197983
-0.10316
0.0181384
-0.0996096
0.0165547
-0.096149
0.0150374
-0.0927657
0.0135809
-0.0894667
0.00222454
-0.214454
0.0901966
-0.20922
0.0857758
-0.204025
0.0815223
-0.1989
0.0774344
-0.193855
0.0735151
-0.188755
0.0697123
-0.183755
0.0660787
-0.178815
0.0625805
-0.173916
0.0592304
-0.169101
0.0560124
-0.164351
0.0529238
-0.159668
0.0499523
-0.155059
0.0471067
-0.150533
0.0443755
-0.146077
0.0417504
-0.141701
0.0392299
-0.137402
0.0368079
-0.133184
0.0344904
-0.129053
0.0322663
-0.124995
0.0301307
-0.121029
0.0280837
-0.117138
0.0261191
-0.11333
0.0242319
-0.109605
0.0224267
-0.10596
0.0206935
-0.102398
0.0190367
-0.0989174
0.0174462
-0.0955158
0.0159216
-0.0921909
0.0144626
-0.0889547
0.0130688
-0.0857851
0.00222795
-0.210651
0.0910812
-0.205653
0.0866296
-0.200643
0.0823937
-0.195702
0.0783246
-0.190744
0.0743235
-0.185828
0.070589
-0.180994
0.0669515
-0.176196
0.0634593
-0.171448
0.0601125
-0.166768
0.0568978
-0.162148
0.0538101
-0.157591
0.0508468
-0.153105
0.0479981
-0.148688
0.0452616
-0.144338
0.042637
-0.140073
0.040122
-0.135875
0.0377031
-0.131757
0.0353812
-0.127716
0.0331527
-0.123747
0.0310176
-0.119863
0.0289642
-0.116054
0.0269993
-0.112323
0.0251113
-0.108673
0.0233001
-0.105098
0.0215653
-0.101606
0.0199019
-0.0981899
0.0183091
-0.0948468
0.0167772
-0.0915849
0.0153156
-0.0884014
0.0139093
-0.0852887
0.0125724
-0.0822542
0.00223117
-0.206866
0.091866
-0.202005
0.0874334
-0.19718
0.0831666
-0.192375
0.0790668
-0.187601
0.0751823
-0.182868
0.0713634
-0.178181
0.0677752
-0.173543
0.064299
-0.168942
0.0609533
-0.1644
0.0577445
-0.159904
0.0546537
-0.155475
0.0516937
-0.151108
0.0488496
-0.146807
0.0461173
-0.142574
0.0434972
-0.13841
0.0409742
-0.134308
0.0385545
-0.130287
0.0362331
-0.126341
0.0340064
-0.12246
0.0318656
-0.118658
0.0298131
-0.114931
0.0278421
-0.111281
0.0259577
-0.107702
0.0241401
-0.104202
0.0224037
-0.100779
0.0207384
-0.0974218
0.0191339
-0.0941471
0.0176094
-0.0909478
0.0161401
-0.0878167
0.0147309
-0.0847608
0.0133813
-0.0817775
0.0120957
-0.0788689
0.00223444
-0.203001
0.0925982
-0.198326
0.0881871
-0.193686
0.0839392
-0.189064
0.0798555
-0.184472
0.0759376
-0.179873
0.072187
-0.175382
0.0685652
-0.170857
0.0650887
-0.166397
0.061754
-0.161987
0.0585409
-0.157626
0.055466
-0.153326
0.0525043
-0.149075
0.0496608
-0.144886
0.0469281
-0.140765
0.0443086
-0.1367
0.0417875
-0.132708
0.0393746
-0.128782
0.0370488
-0.124929
0.0348213
-0.121134
0.0326809
-0.11742
0.0306277
-0.11378
0.0286614
-0.110205
0.0267661
-0.106697
0.0249524
-0.103271
0.0232095
-0.0999128
0.0215371
-0.0966237
0.0199403
-0.0934169
0.0184037
-0.0902702
0.0169318
-0.0872009
0.0155244
-0.0842014
0.0141715
-0.0812691
0.0128729
-0.0784061
0.011633
-0.0756143
0.00223752
-0.199057
0.0932333
-0.194567
0.0888384
-0.190156
0.0846578
-0.185719
0.0805943
-0.18131
0.0766938
-0.176893
0.0729579
-0.172503
0.0693075
-0.168129
0.0658371
-0.163813
0.0625044
-0.159537
0.0593036
-0.155311
0.0562258
-0.151132
0.0532723
-0.147004
0.0504333
-0.142931
0.0477062
-0.138921
0.0450837
-0.134965
0.042573
-0.131071
0.0401508
-0.127245
0.0378381
-0.123484
0.0356035
-0.119781
0.0334686
-0.11615
0.0314109
-0.11259
0.0294376
-0.109091
0.0275476
-0.105662
0.0257318
-0.102311
0.0239922
-0.0990213
0.022318
-0.0958005
0.0207138
-0.0926512
0.0191746
-0.0895666
0.0177
-0.0865539
0.0162848
-0.0836058
0.0149288
-0.0807292
0.0136316
-0.0779164
0.0123831
-0.0751695
0.0111882
-0.0724904
0.00223577
-0.195133
0.0939151
-0.190874
0.0895404
-0.186599
0.0852807
-0.182293
0.081232
-0.178065
0.077349
-0.173784
0.0735846
-0.169555
0.0700098
-0.16537
0.0665491
-0.161198
0.0632224
-0.157063
0.0600299
-0.152963
0.0569554
-0.14891
0.054004
-0.144898
0.051167
-0.140947
0.0484494
-0.137046
0.0458311
-0.133195
0.0433138
-0.1294
0.040902
-0.125672
0.0385773
-0.121997
0.0363509
-0.118393
0.0342152
-0.114847
0.0321652
-0.111366
0.0301875
-0.107949
0.0282955
-0.104594
0.0264789
-0.101312
0.0247325
-0.0980903
0.0230613
-0.0949373
0.0214549
-0.0918506
0.0199132
-0.0888279
0.0184359
-0.0858715
0.0170176
-0.0829793
0.0156583
-0.0801579
0.0143575
-0.0773952
0.0131103
-0.0747027
0.0119164
-0.0720678
0.0107655
-0.0694971
0.00223868
-0.191178
0.0944999
-0.187103
0.0901441
-0.183007
0.0859489
-0.178932
0.0819191
-0.174837
0.0780039
-0.170701
0.0742655
-0.166641
0.0706707
-0.16258
0.0672197
-0.158552
0.0639028
-0.154549
0.0607087
-0.15058
0.0576475
-0.146655
0.0547006
-0.142765
0.0518706
-0.138929
0.0491487
-0.135131
0.046535
-0.13139
0.0440268
-0.127704
0.0416169
-0.124068
0.0392978
-0.120495
0.0370755
-0.116973
0.0349305
-0.113512
0.0328798
-0.110112
0.0309111
-0.106774
0.029012
-0.103497
0.0271986
-0.100288
0.0254555
-0.0971351
0.0237772
-0.0940446
0.0221685
-0.0910247
0.020629
-0.0880633
0.0191487
-0.0851632
0.0177275
-0.0823314
0.0163697
-0.0795603
0.0150607
-0.0768474
0.0138097
-0.0741993
0.0126069
-0.0716132
0.0114617
-0.0690908
0.0103593
-0.0666292
0.0022415
-0.187193
0.0950844
-0.183299
0.0906964
-0.179385
0.0865215
-0.175441
0.0824582
-0.171501
0.0785827
-0.167572
0.0748753
-0.163667
0.0712916
-0.15976
0.0678504
-0.15587
0.0645382
-0.152003
0.0613574
-0.148172
0.0583009
-0.144369
0.055361
-0.140597
0.0525329
-0.136875
0.0498166
-0.133191
0.0472085
-0.129558
0.0447023
-0.12597
0.042293
-0.122431
0.0399807
-0.11895
0.0377528
-0.115518
0.0356205
-0.112146
0.0335653
-0.108828
0.0315959
-0.105568
0.0297059
-0.102371
0.0278867
-0.0992318
0.026142
-0.0961454
0.0244658
-0.093127
0.0228596
-0.0901688
0.0213126
-0.0872639
0.0198296
-0.0844245
0.01841
-0.0816479
0.017044
-0.078927
0.0157364
-0.0762732
0.0144865
-0.0736741
0.0132845
-0.0711366
0.0121303
-0.0686576
0.0110284
-0.0662338
0.00996398
-0.0638671
0.0022395
-0.183176
0.0955679
-0.179414
0.0911988
-0.17573
0.0870414
-0.171966
0.0830466
-0.168205
0.0791624
-0.164436
0.0754463
-0.160669
0.0718774
-0.156909
0.068441
-0.153157
0.0651372
-0.149431
0.0619661
-0.145727
0.0589117
-0.142047
0.0559788
-0.1384
0.0531639
-0.134798
0.0504559
-0.131224
0.0478498
-0.127693
0.0453442
-0.124208
0.0429404
-0.120769
0.040631
-0.117379
0.03841
-0.114038
0.0362733
-0.110753
0.0342272
-0.107517
0.0322544
-0.104336
0.0303636
-0.101213
0.0285472
-0.0981441
0.026799
-0.0951305
0.0251271
-0.09218
0.0235187
-0.0892832
0.021974
-0.0864441
0.0204928
-0.083665
0.0190702
-0.0809437
0.0177058
-0.0782772
0.0163943
-0.0756726
0.0151358
-0.0731176
0.01393
-0.0706284
0.0127764
-0.0681925
0.0116652
-0.0658114
0.010606
-0.0634919
0.00958869
-0.0612206
0.00223728
-0.179083
0.0960055
-0.175549
0.0917036
-0.172045
0.0875141
-0.168459
0.0835342
-0.164846
0.0796873
-0.161256
0.0759824
-0.157641
0.0724183
-0.154029
0.0689967
-0.150422
0.0657062
-0.146833
0.0625386
-0.143258
0.0594974
-0.139703
0.0565679
-0.136176
0.0537551
-0.132688
0.051054
-0.12922
0.0484521
-0.125802
0.0459584
-0.122418
0.0435539
-0.119075
0.0412464
-0.115777
0.0390283
-0.11253
0.0369021
-0.109329
0.034849
-0.106173
0.032883
-0.103077
0.030995
-0.100026
0.0291765
-0.0970294
0.0274325
-0.0940894
0.0257579
-0.0912039
0.024151
-0.088368
0.0226036
-0.0855896
0.0211194
-0.0828707
0.0196984
-0.080204
0.0183305
-0.0775918
0.0170203
-0.0750411
0.0157628
-0.0725396
0.0145578
-0.0700936
0.0133952
-0.0677054
0.0122893
-0.0653668
0.0112206
-0.0630892
0.0102034
-0.0608597
0.00922779
-0.0586893
0.00224463
-0.175008
0.0964429
-0.171704
0.0921599
-0.168328
0.0879865
-0.164934
0.0839893
-0.16148
0.0801686
-0.158047
0.0764785
-0.154588
0.0729292
-0.151123
0.0695123
-0.147657
0.0662316
-0.144203
0.063076
-0.140758
0.0600382
-0.137331
0.0571257
-0.133928
0.0543198
-0.130552
0.0516194
-0.127197
0.0490307
-0.123881
0.0465314
-0.120598
0.0441388
-0.117357
0.0418356
-0.114153
0.0396229
-0.110997
0.0374947
-0.107879
0.0354521
-0.104812
0.0334875
-0.101787
0.0315939
-0.0988139
0.0297832
-0.0958961
0.0280432
-0.0930221
0.0263652
-0.0902029
0.0247569
-0.0874282
0.0232112
-0.0847149
0.0217289
-0.0820559
0.0203046
-0.0794438
0.0189382
-0.0768857
0.0176244
-0.0743837
0.0163629
-0.0719305
0.0151537
-0.0695323
0.0139965
-0.0671917
0.0128815
-0.0649002
0.0118227
-0.0626644
0.0107958
-0.0604714
0.00981514
-0.0583373
0.00887578
-0.0562489
0.00224232
-0.170903
0.0968317
-0.167777
0.0925164
-0.164577
0.088409
-0.161382
0.0844343
-0.158099
0.0806085
-0.154813
0.0769345
-0.151506
0.0733964
-0.148191
0.0699979
-0.144871
0.0667257
-0.141551
0.0635798
-0.138234
0.0605527
-0.134933
0.0576399
-0.131647
0.0548447
-0.128384
0.0521512
-0.125146
0.0495682
-0.121936
0.0470857
-0.118759
0.0446924
-0.115608
0.0423898
-0.112499
0.0401814
-0.109431
0.0380574
-0.106402
0.0360177
-0.103413
0.0340537
-0.100471
0.0321714
-0.0975799
0.03036
-0.0947296
0.0286166
-0.0919265
0.0269477
-0.0891733
0.0253356
-0.0864684
0.0237971
-0.0838154
0.0223117
-0.0812112
0.0208842
-0.0786581
0.019519
-0.0761539
0.0182064
-0.0737053
0.016946
-0.0713051
0.0157375
-0.0689546
0.014576
-0.0666564
0.0134612
-0.0644067
0.0123881
-0.0622078
0.0113661
-0.0600609
0.0103853
-0.0579628
0.00944071
-0.0559149
0.00854179
-0.0539138
0.00224458
-0.166811
0.0972216
-0.16387
0.0929238
-0.160866
0.0888054
-0.157805
0.084832
-0.154687
0.0810224
-0.151561
0.0773569
-0.148404
0.0738323
-0.145239
0.0704436
-0.142053
0.0671798
-0.138872
0.0640473
-0.135684
0.0610299
-0.132512
0.0581314
-0.129347
0.0553395
-0.126201
0.0526617
-0.123074
0.0500793
-0.119965
0.0475975
-0.116883
0.0452099
-0.113837
0.0429214
-0.110826
0.0407172
-0.107848
0.0385987
-0.104903
0.0365583
-0.101998
0.0346022
-0.0991367
0.0327191
-0.0963141
0.0309056
-0.0935397
0.02917
-0.0908062
0.0274963
-0.088119
0.0258933
-0.0854793
0.0243465
-0.0828865
0.0228682
-0.0803464
0.0214469
-0.0778473
0.0200733
-0.0753967
0.0187617
-0.0730012
0.0175023
-0.0706487
0.0162896
-0.0683457
0.0151286
-0.0660946
0.0140142
-0.0638916
0.0129461
-0.0617389
0.0119192
-0.0596283
0.0109334
-0.057566
0.00998849
-0.0555537
0.00907946
-0.0535876
0.00821563
-0.0516741
0.00224189
-0.16266
0.0974662
-0.159882
0.0932343
-0.157069
0.0891271
-0.154183
0.0851834
-0.15125
0.0813949
-0.148284
0.0777457
-0.145283
0.0742358
-0.142262
0.0708556
-0.139221
0.0676115
-0.136172
0.0644798
-0.133113
0.0614758
-0.130066
0.0585843
-0.12702
0.0558044
-0.12399
0.0531286
-0.120969
0.0505569
-0.11797
0.0480843
-0.114993
0.0457072
-0.112045
0.0434181
-0.109124
0.0412195
-0.106235
0.0391039
-0.103377
0.0370727
-0.100554
0.0351145
-0.0977702
0.0332357
-0.0950298
0.0314348
-0.0923299
0.0296959
-0.0896638
0.0280276
-0.0870462
0.0264235
-0.0844711
0.0248852
-0.0819425
0.0234025
-0.0794567
0.0219785
-0.0770114
0.0206111
-0.0746238
0.0193004
-0.0722764
0.0180369
-0.0699714
0.016825
-0.0677206
0.0156645
-0.0655162
0.0145502
-0.0633547
0.0134774
-0.0612385
0.0124457
-0.0591687
0.0114597
-0.057147
0.0105144
-0.0551748
0.00960962
-0.0532486
0.00874048
-0.0513601
0.0079016
-0.0495201
0.002244
-0.158506
0.0977589
-0.155922
0.0935062
-0.15327
0.089435
-0.150563
0.0855075
-0.147796
0.0817289
-0.144984
0.0780945
-0.142138
0.0746007
-0.13926
0.071234
-0.136362
0.067997
-0.133446
0.064885
-0.130525
0.0618916
-0.127599
0.0590086
-0.124675
0.0562394
-0.121759
0.0535742
-0.118849
0.0510081
-0.115956
0.0485425
-0.113082
0.0461733
-0.110229
0.0438911
-0.107403
0.0416969
-0.1046
0.0395842
-0.10183
0.0375572
-0.0990931
0.0356118
-0.0963915
0.0337358
-0.0937221
0.031928
-0.0910883
0.0301932
-0.0884968
0.0285288
-0.0859438
0.0269252
-0.0834347
0.0253871
-0.0809644
0.0239071
-0.0785428
0.0224886
-0.0761553
0.0211224
-0.0738207
0.019808
-0.0715259
0.01855
-0.0692732
0.0173386
-0.0670695
0.0161739
-0.0649068
0.0150551
-0.0627917
0.0139871
-0.0607213
0.0129601
-0.0586969
0.0119739
-0.0567107
0.0110234
-0.0547736
0.0101132
-0.0528822
0.00924322
-0.0510281
0.00840852
-0.0492225
0.00760397
-0.0474565
0.00224102
-0.154328
0.0979535
-0.151928
0.0937643
-0.149464
0.0897007
-0.146922
0.0857943
-0.144324
0.0820355
-0.141672
0.0784172
-0.138972
0.0749293
-0.136242
0.0715823
-0.133487
0.0683588
-0.130704
0.0652552
-0.127914
0.0622739
-0.12511
0.0594029
-0.122306
0.0566394
-0.1195
0.0539799
-0.1167
0.0514258
-0.113917
0.0489694
-0.111147
0.0466073
-0.108389
0.044333
-0.105659
0.0421466
-0.102947
0.0400444
-0.100266
0.0380203
-0.0976052
0.0360693
-0.094981
0.0342012
-0.0923911
0.0324048
-0.0898381
0.0306778
-0.0873161
0.0290126
-0.0848292
0.0274142
-0.0823834
0.0258739
-0.0799777
0.0244004
-0.0776086
0.0229729
-0.0752793
0.0216126
-0.0730024
0.020304
-0.07076
0.019042
-0.0685544
0.0178312
-0.0664023
0.0166715
-0.0642857
0.0155529
-0.062212
0.0144753
-0.0601824
0.0134482
-0.0581936
0.0124568
-0.0562524
0.0115156
-0.0543551
0.0106049
-0.0524984
0.00972935
-0.0506739
0.00888896
-0.0489022
0.00808818
-0.0471699
0.00731738
-0.0454782
0.00223789
-0.150163
0.0981983
-0.147954
0.0939801
-0.145638
0.0899377
-0.143269
0.0860475
-0.140834
0.0823049
-0.138336
0.0786987
-0.135792
0.0752369
-0.133211
0.0718984
-0.130591
0.0686869
-0.127944
0.0655991
-0.125285
0.0626262
-0.122602
0.0597659
-0.119919
0.0570157
-0.117234
0.0543732
-0.114544
0.0518234
-0.111863
0.0493714
-0.109191
0.0470135
-0.10653
0.0447485
-0.103893
0.0425677
-0.101271
0.0404699
-0.0986704
0.0384487
-0.0961003
0.0365154
-0.0935569
0.0346453
-0.0910429
0.0328531
-0.0885547
0.0311214
-0.0861024
0.029464
-0.083685
0.0278684
-0.0813074
0.0263382
-0.078965
0.0248612
-0.0766542
0.023446
-0.074388
0.0220816
-0.0721587
0.020769
-0.0699637
0.0195077
-0.0678148
0.0183024
-0.0657092
0.0171381
-0.0636389
0.0160246
-0.061611
0.0149519
-0.0596268
0.0139198
-0.0576783
0.0129329
-0.0557771
0.0119815
-0.0539097
0.0110702
-0.0520875
0.010194
-0.050302
0.00935743
-0.0485689
0.00855567
-0.0468653
0.00778361
-0.0452021
0.00704131
-0.0435803
0.00223938
-0.145964
0.0983343
-0.143916
0.0941601
-0.1418
0.0901424
-0.139597
0.0862657
-0.137325
0.0825379
-0.134987
0.0789565
-0.132593
0.0754996
-0.130153
0.0721795
-0.127674
0.0689815
-0.125164
0.065907
-0.122631
0.0629449
-0.120079
0.0601029
-0.117514
0.0573608
-0.114937
0.054719
-0.112356
0.0521848
-0.109783
0.0497434
-0.107216
0.0473962
-0.104653
0.0451368
-0.102108
0.0429626
-0.0995756
0.0408727
-0.0970662
0.0388656
-0.0945783
0.0369267
-0.0921059
0.0350644
-0.0896715
0.0332738
-0.0872578
0.0315562
-0.08488
0.029899
-0.082526
0.028305
-0.080213
0.0267741
-0.077929
0.0253022
-0.0756801
0.0238871
-0.0734668
0.0225248
-0.0712953
0.0212182
-0.069157
0.0199623
-0.0670595
0.0187525
-0.0649953
0.0175886
-0.062976
0.0164751
-0.0609887
0.0154023
-0.0590498
0.0143749
-0.0571415
0.013383
-0.0552751
0.0124309
-0.053452
0.0115238
-0.0516641
0.0106468
-0.0499174
0.0098094
-0.0482084
0.00899692
-0.0465334
0.0082238
-0.0449034
0.00748492
-0.0433143
0.00677536
-0.041753
0.00223603
-0.141754
0.0984684
-0.13989
0.0943087
-0.137943
0.0903036
-0.135914
0.0864593
-0.133809
0.0827499
-0.131623
0.0791734
-0.12938
0.0757435
-0.127089
0.0724356
-0.124752
0.0692573
-0.122378
0.0661949
-0.11997
0.0632463
-0.117541
0.0604073
-0.115091
0.0576799
-0.112629
0.0550524
-0.110161
0.0525239
-0.107691
0.0500932
-0.105226
0.0477539
-0.102759
0.0455024
-0.100306
0.0433352
-0.0978613
0.0412483
-0.0954377
0.0392442
-0.0930307
0.0373181
-0.0906415
0.0354623
-0.0882817
0.0336746
-0.0859439
0.0319599
-0.0836295
0.0303056
-0.08135
0.028723
-0.079099
0.0271909
-0.0768769
0.0257219
-0.0746877
0.0243097
-0.0725326
0.022953
-0.0704165
0.0216459
-0.0683299
0.020391
-0.0662789
0.0191817
-0.0642657
0.0180228
-0.062292
0.0169046
-0.0603502
0.0158366
-0.0584514
0.014804
-0.056583
0.0138164
-0.054761
0.0128689
-0.0529725
0.0119513
-0.0512186
0.0110783
-0.0495106
0.01024
-0.0478303
0.00943138
-0.0461935
0.00865697
-0.0445963
0.00791675
-0.0430304
0.00720105
-0.0414968
0.00651912
-0.0400107
0.00223713
-0.137513
0.0985677
-0.135842
0.0944201
-0.134082
0.0904473
-0.132218
0.0866079
-0.13027
0.0829197
-0.128244
0.0793716
-0.126157
0.0759503
-0.124008
0.0726621
-0.121805
0.0694883
-0.11956
0.0664394
-0.117286
0.0635113
-0.114981
0.0606858
-0.112651
0.0579677
-0.110301
0.0553523
-0.107946
0.0528381
-0.105584
0.0504167
-0.103211
0.0480781
-0.100846
0.0458409
-0.0984838
0.0436802
-0.0961299
0.0416039
-0.0937971
0.0396077
-0.0914697
0.0376832
-0.0891614
0.0358379
-0.0868761
0.0340568
-0.0846116
0.0323423
-0.0823655
0.0306959
-0.0801542
0.0291099
-0.0779629
0.027587
-0.0758041
0.0261182
-0.0736768
0.0247111
-0.071576
0.0233532
-0.0695133
0.0220498
-0.0674781
0.0207941
-0.0654827
0.0195948
-0.0635202
0.0184362
-0.0615921
0.017323
-0.0596955
0.01625
-0.0578367
0.0152219
-0.056013
0.014234
-0.0542304
0.0132858
-0.052476
0.0123724
-0.050761
0.0114937
-0.0490819
0.0106496
-0.0474397
0.0098494
-0.045836
0.00907384
-0.0442668
0.00832746
-0.0427239
0.00761023
-0.0412273
0.00693158
-0.0397638
0.00627219
-0.0383292
0.00223326
-0.133291
0.0986221
-0.131792
0.0945175
-0.130212
0.0905503
-0.12851
0.0867392
-0.126726
0.0830645
-0.124856
0.0795313
-0.122914
0.0761284
-0.12091
0.0728523
-0.118846
0.0697032
-0.116742
0.06667
-0.114595
0.0637478
-0.112404
0.0609343
-0.110197
0.0582319
-0.107959
0.0556258
-0.105711
0.0531174
-0.103453
0.0507066
-0.101185
0.0483908
-0.0989164
0.0461481
-0.0966459
0.044003
-0.0943878
0.0419381
-0.0921346
0.0399413
-0.0898867
0.0380247
-0.087658
0.0361798
-0.085446
0.0344078
-0.0832561
0.0327012
-0.0810845
0.0310613
-0.0789352
0.0294769
-0.0768122
0.0279591
-0.0747188
0.0265017
-0.0726485
0.0250899
-0.0706061
0.0237411
-0.0686002
0.0224401
-0.0666199
0.0211916
-0.0646712
0.0199825
-0.0627542
0.0188289
-0.0608715
0.0177156
-0.0590197
0.0166471
-0.0572058
0.015619
-0.0554214
0.0146303
-0.0536779
0.0136815
-0.0519626
0.0127723
-0.0502863
0.0118977
-0.0486406
0.0110524
-0.0470316
0.0102415
-0.0454561
0.00946956
-0.0439149
0.00872191
-0.0424092
0.00801275
-0.04094
0.0073229
-0.039494
0.00666179
-0.0380911
0.00603406
-0.0367227
0.00223392
-0.129045
0.0986565
-0.12774
0.0945703
-0.126319
0.0906245
-0.124793
0.0868333
-0.12317
0.0831834
-0.12146
0.0796686
-0.119666
0.0762841
-0.117807
0.0730251
-0.115882
0.0698882
-0.113905
0.0668671
-0.111883
0.0639583
-0.10982
0.0611641
-0.107729
0.0584662
-0.105604
0.0558771
-0.10347
0.0533843
-0.101317
0.0509815
-0.0991453
0.0486665
-0.0969685
0.0464429
-0.0947974
0.0442995
-0.0926237
0.042239
-0.0904502
0.0402537
-0.0882917
0.0383463
-0.0861425
0.0365093
-0.0840101
0.0347438
-0.0818884
0.0330402
-0.07979
0.0314068
-0.0777077
0.0298337
-0.0756515
0.0283162
-0.0736166
0.0268568
-0.0716033
0.0254564
-0.0696226
0.0241065
-0.0676662
0.0228071
-0.0657378
0.0215581
-0.063839
0.0203594
-0.0619726
0.0192009
-0.060135
0.0180924
-0.058328
0.0170239
-0.0565586
0.016
-0.0548183
0.0150159
-0.0531092
0.0140615
-0.0514325
0.0131515
-0.0497898
0.0122759
-0.0481822
0.0114394
-0.0466066
0.0106273
-0.0450637
0.00984911
-0.0435502
0.0091049
-0.0420768
0.00838952
-0.0406301
0.00770281
-0.0392158
0.00704471
-0.0378444
0.00641513
-0.0364931
0.00580445
-0.0351768
0.00222972
-0.1248
0.0986594
-0.123662
0.0945783
-0.12242
0.0906715
-0.12107
0.0869014
-0.119606
0.0832686
-0.11805
0.0797736
-0.116405
0.0764076
-0.114683
0.0731608
-0.112898
0.070041
-0.111059
0.0670419
-0.109163
0.0641475
-0.107222
0.0613604
-0.105244
0.0586795
-0.103238
0.0560998
-0.101208
0.053615
-0.0991553
0.0512229
-0.0970846
0.0489208
-0.0950135
0.0467115
-0.0929318
0.0445774
-0.0908441
0.0425199
-0.0887599
0.0405488
-0.0866874
0.0386493
-0.0846164
0.0368201
-0.0825571
0.0350563
-0.0805074
0.0333628
-0.0784759
0.0317261
-0.0764569
0.030156
-0.0744676
0.0286499
-0.0724946
0.0271943
-0.0705419
0.0257954
-0.0686169
0.0244507
-0.0667125
0.0231528
-0.0648397
0.0219089
-0.0629914
0.0207104
-0.0611707
0.0195575
-0.0593828
0.0184488
-0.0576204
0.0173848
-0.0558951
0.0163604
-0.0541941
0.0153757
-0.0525238
0.0144305
-0.0508906
0.0135196
-0.0492813
0.012643
-0.0477068
0.0118005
-0.0461641
0.0109968
-0.0446538
0.0102174
-0.0431729
0.00947181
-0.0417268
0.00875493
-0.0403072
0.00806667
-0.0389246
0.00741161
-0.0375751
0.00677541
-0.0362501
0.00617212
-0.03496
0.00558758
-0.0337009
0.00222989
-0.120544
0.0986239
-0.119596
0.0945929
-0.118533
0.0906913
-0.117338
0.0869396
-0.116032
0.0833279
-0.11463
0.0798487
-0.113133
0.0765011
-0.111555
0.0732791
-0.109912
0.070175
-0.1082
0.0671818
-0.106426
0.0643044
-0.104614
0.0615394
-0.102757
0.0588728
-0.100861
0.0563024
-0.0989362
0.0538284
-0.0969908
0.0514506
-0.0950209
0.0491592
-0.0930442
0.0469515
-0.0910471
0.0448267
-0.0890537
0.042787
-0.087059
0.0408189
-0.0850584
0.0389198
-0.0830656
0.0370986
-0.0810783
0.0353413
-0.079108
0.033657
-0.0771449
0.0320317
-0.0751977
0.0304668
-0.073269
0.0289574
-0.0713544
0.0275097
-0.0694636
0.026116
-0.0675991
0.0247777
-0.0657503
0.0234885
-0.0639317
0.0222448
-0.0621291
0.0210467