/*--------------------------------*- C++ -*----------------------------------*\
  =========                 |
  \\      /  F ield         | OpenFOAM: The Open Source CFD Toolbox
   \\    /   O peration     | Website:  https://openfoam.org
    \\  /    A nd           | Version:  7
     \\/     M anipulation  |
\*---------------------------------------------------------------------------*/
FoamFile
{
    version     2.0;
    format      ascii;
    class       volVectorField;
    location    "200";
    object      U;
}
// * * * * * * * * * * * * * * * * * * * * * * * * * * * * * * * * * * * * * //

dimensions      [0 1 -1 0 0 0 0];

internalField   nonuniform List<vector> 
23052
(
(49.5882 13.0309 -2.33083e-17)
(49.6161 13.048 0)
(49.6626 13.1741 9.35803e-18)
(49.6358 13.0663 0)
(49.6567 13.1707 3.73217e-17)
(49.6325 13.1713 4.97031e-18)
(49.6477 13.0848 9.82875e-18)
(49.6555 13.1715 4.83928e-19)
(49.6425 13.179 -5.25999e-18)
(49.643 13.1673 1.66959e-17)
(49.6559 13.1024 7.04101e-17)
(49.6577 13.1751 -5.79139e-17)
(49.649 13.1856 -1.03986e-17)
(49.6426 13.1714 1.11099e-17)
(49.6353 13.1718 5.91044e-18)
(49.631 13.1668 6.36207e-18)
(49.6613 13.1188 -1.69574e-18)
(49.6605 13.1803 0)
(49.6535 13.1919 -6.93892e-17)
(49.6435 13.1767 1.08319e-17)
(49.6367 13.177 1.76419e-17)
(49.6285 13.1719 1.88355e-17)
(49.6169 13.1636 -1.6266e-18)
(49.6056 13.1585 0)
(49.6653 13.134 1.30504e-17)
(49.6634 13.1864 9.42296e-17)
(49.657 13.1982 7.91771e-17)
(49.6452 13.1826 -4.41914e-17)
(49.6374 13.1822 -9.40365e-17)
(49.628 13.1775 -5.0336e-17)
(49.616 13.1697 6.6805e-18)
(49.6049 13.1616 -1.79673e-18)
(49.5889 13.1547 1.07303e-21)
(49.6682 13.1481 -9.61689e-17)
(49.6659 13.1929 -9.41575e-17)
(49.6598 13.2046 -3.99164e-17)
(49.6469 13.1889 3.30361e-17)
(49.6382 13.1877 -1.17374e-17)
(49.6277 13.1832 3.78412e-17)
(49.6155 13.1757 -6.84813e-18)
(49.6026 13.1678 0)
(49.5884 13.1582 0)
(49.5718 13.151 0)
(49.6705 13.1611 1.43748e-17)
(49.6681 13.1996 0)
(49.6622 13.211 1.95375e-17)
(49.6486 13.1954 2.11571e-17)
(49.6388 13.1933 -3.48879e-17)
(49.6277 13.1891 -3.75759e-17)
(49.6148 13.1818 -6.7055e-17)
(49.6015 13.1741 -1.44249e-17)
(49.5863 13.165 0)
(49.5711 13.1546 -1.67656e-17)
(49.5524 13.1467 -2.01408e-20)
(49.6723 13.173 -1.86695e-16)
(49.6698 13.2063 0)
(49.6641 13.2173 0)
(49.6501 13.2019 -8.68421e-17)
(49.6395 13.1991 1.04884e-16)
(49.6277 13.195 6.25121e-17)
(49.6143 13.1879 5.37045e-17)
(49.6003 13.1805 -2.87733e-17)
(49.585 13.1717 -7.64821e-18)
(49.5685 13.1618 2.52072e-17)
(49.5516 13.1505 -2.03255e-17)
(49.5317 13.1422 1.83206e-20)
(49.6739 13.184 1.50264e-16)
(49.6712 13.2129 0)
(49.6658 13.2236 -1.34067e-16)
(49.6515 13.2085 6.49439e-17)
(49.6401 13.2051 0)
(49.6278 13.201 8.68643e-17)
(49.6139 13.1941 -1.31752e-17)
(49.5993 13.1869 5.75267e-17)
(49.5836 13.1784 0)
(49.5669 13.1688 4.1787e-17)
(49.5489 13.1581 9.12451e-18)
(49.5308 13.1462 4.85658e-18)
(49.5095 13.1374 0)
(49.6754 13.1942 -2.8991e-17)
(49.6724 13.2193 4.03381e-17)
(49.6672 13.2297 -1.94033e-17)
(49.6526 13.2151 -2.08595e-17)
(49.6407 13.2111 2.28417e-17)
(49.6279 13.207 -3.10382e-19)
(49.6136 13.2003 1.06481e-16)
(49.5985 13.1933 -1.45532e-17)
(49.5824 13.1852 -6.16451e-17)
(49.5652 13.1759 -3.37472e-20)
(49.5472 13.1656 3.61099e-17)
(49.5279 13.1542 0)
(49.5085 13.1416 -2.57177e-18)
(49.486 13.1323 0)
(49.6767 13.2036 -1.83619e-16)
(49.6733 13.2254 0)
(49.6684 13.2357 1.3409e-16)
(49.6536 13.2215 2.0799e-17)
(49.6412 13.2171 0)
(49.6281 13.2131 -1.97386e-16)
(49.6133 13.2066 -1.06478e-16)
(49.5978 13.1997 1.45164e-17)
(49.5813 13.1919 7.67392e-17)
(49.5638 13.183 -5.0007e-17)
(49.5453 13.1731 -3.64537e-20)
(49.526 13.1621 -4.8046e-17)
(49.5055 13.1501 5.30014e-18)
(49.4849 13.1368 1.41329e-17)
(49.4612 13.127 -2.71712e-20)
(49.6779 13.2124 -3.5163e-17)
(49.6742 13.2314 -3.73077e-17)
(49.6694 13.2414 1.98764e-17)
(49.6545 13.2279 4.24825e-17)
(49.6417 13.2231 0)
(49.6282 13.2192 3.45284e-19)
(49.613 13.2128 0)
(49.5971 13.2061 -1.13912e-16)
(49.5803 13.1987 -6.083e-17)
(49.5624 13.1901 1.67995e-17)
(49.5437 13.1806 -9.83832e-17)
(49.524 13.17 8.66846e-17)
(49.5034 13.1584 3.09545e-17)
(49.4818 13.1457 -1.10374e-17)
(49.4601 13.1317 -6.08246e-18)
(49.4352 13.1215 3.01083e-20)
(49.6791 13.2206 1.8365e-16)
(49.6749 13.2371 1.54153e-16)
(49.6703 13.247 3.88678e-17)
(49.6553 13.2341 -2.07087e-17)
(49.6421 13.2291 -2.26478e-17)
(49.6283 13.2252 1.23347e-16)
(49.6128 13.2191 -2.68543e-17)
(49.5966 13.2126 3.35602e-19)
(49.5794 13.2054 7.68362e-17)
(49.5612 13.1972 4.96224e-17)
(49.5421 13.188 5.36386e-17)
(49.5222 13.1779 -2.89339e-17)
(49.5013 13.1667 -8.24854e-17)
(49.4796 13.1544 5.31575e-18)
(49.4569 13.1411 -5.9557e-18)
(49.434 13.1264 3.22439e-18)
(49.408 13.1157 -3.16753e-20)
(49.6803 13.2281 -1.52265e-16)
(49.6755 13.2425 -1.51987e-16)
(49.671 13.2523 7.85981e-17)
(49.656 13.2401 -2.16563e-17)
(49.6425 13.235 1.82929e-16)
(49.6284 13.2312 9.78332e-17)
(49.6127 13.2253 -1.58152e-16)
(49.5961 13.219 1.41692e-16)
(49.5786 13.2121 -1.21969e-16)
(49.5601 13.2042 -9.87866e-17)
(49.5407 13.1954 1.80274e-17)
(49.5205 13.1857 -5.6976e-17)
(49.4993 13.1749 5.18391e-17)
(49.4773 13.1631 -1.09808e-17)
(49.4545 13.1502 1.82319e-17)
(49.4307 13.1363 0)
(49.4067 13.121 1.05546e-17)
(49.3797 13.1098 3.51006e-20)
(49.6815 13.2352 1.89401e-16)
(49.6761 13.2478 0)
(49.6716 13.2575 3.96653e-17)
(49.6566 13.2459 -1.8977e-16)
(49.6428 13.2408 -1.84043e-16)
(49.6285 13.2371 -1.22896e-16)
(49.6125 13.2315 2.10632e-16)
(49.5956 13.2254 -8.47447e-19)
(49.5778 13.2188 3.88292e-19)
(49.5591 13.2113 0)
(49.5395 13.2028 1.74213e-17)
(49.5189 13.1935 5.76088e-17)
(49.4975 13.1832 -3.0756e-17)
(49.4752 13.1718 -4.4106e-17)
(49.4521 13.1594 0)
(49.4282 13.1459 -3.68405e-20)
(49.4033 13.1313 -6.9271e-18)
(49.3783 13.1153 3.90846e-18)
(49.3501 13.1037 -3.69958e-20)
(49.6826 13.2418 -2.35971e-16)
(49.6766 13.2528 1.12677e-16)
(49.6722 13.2624 0)
(49.6571 13.2516 2.99115e-16)
(49.6431 13.2465 -2.25421e-17)
(49.6286 13.243 4.89663e-17)
(49.6124 13.2376 2.54623e-17)
(49.5952 13.2318 0)
(49.5772 13.2254 1.51876e-16)
(49.5582 13.2182 -1.30814e-16)
(49.5383 13.2102 0)
(49.5175 13.2013 -7.6049e-17)
(49.4958 13.1914 0)
(49.4733 13.1805 6.66639e-17)
(49.4499 13.1686 2.39475e-17)
(49.4257 13.1556 -7.79228e-17)
(49.4007 13.1414 4.9126e-17)
(49.3748 13.1262 -1.51127e-17)
(49.3487 13.1095 -2.06153e-17)
(49.3194 13.0974 -1.45956e-21)
(49.6838 13.2479 3.34228e-16)
(49.6771 13.2576 -1.55536e-16)
(49.6727 13.2671 0)
(49.6576 13.2571 4.23615e-17)
(49.6434 13.2521 0)
(49.6287 13.2488 -2.47852e-17)
(49.6123 13.2437 -1.04427e-16)
(49.5949 13.2381 1.12688e-16)
(49.5766 13.2321 0)
(49.5574 13.2252 1.31009e-16)
(49.5372 13.2175 0)
(49.5162 13.209 5.67637e-17)
(49.4943 13.1995 -2.08656e-17)
(49.4715 13.1891 2.25471e-17)
(49.4479 13.1777 -1.07554e-16)
(49.4234 13.1652 1.28134e-17)
(49.3981 13.1516 -4.23599e-17)
(49.3721 13.1368 3.81229e-17)
(49.345 13.1209 -1.57177e-19)
(49.3179 13.1034 1.35143e-17)
(49.2875 13.0908 8.4948e-20)
(49.685 13.2536 -2.70283e-16)
(49.6777 13.2622 -3.44432e-16)
(49.6732 13.2716 -1.93314e-16)
(49.6581 13.2624 -8.51986e-19)
(49.6436 13.2576 -2.18952e-17)
(49.6288 13.2545 0)
(49.6122 13.2496 5.24549e-17)
(49.5946 13.2443 -1.40785e-16)
(49.5761 13.2386 0)
(49.5566 13.2321 0)
(49.5363 13.2248 -1.40416e-16)
(49.515 13.2167 1.92874e-17)
(49.4929 13.2077 -6.15892e-17)
(49.4698 13.1977 4.42411e-17)
(49.446 13.1867 2.43268e-17)
(49.4213 13.1747 6.48867e-17)
(49.3957 13.1616 0)
(49.3693 13.1474 -1.543e-17)
(49.3422 13.132 3.28444e-17)
(49.3141 13.1154 8.75565e-18)
(49.2859 13.0972 -9.50566e-18)
(49.2543 13.0841 4.60434e-21)
(49.6861 13.259 3.02594e-16)
(49.6782 13.2666 6.5369e-16)
(49.6736 13.2759 8.77304e-20)
(49.6586 13.2675 -1.70365e-16)
(49.6439 13.2629 2.05257e-16)
(49.6289 13.26 1.45604e-16)
(49.6122 13.2555 0)
(49.5944 13.2505 8.45923e-17)
(49.5757 13.2451 0)
(49.556 13.239 9.69351e-17)
(49.5354 13.2321 2.80833e-16)
(49.5139 13.2244 0)
(49.4916 13.2158 6.17102e-17)
(49.4683 13.2063 0)
(49.4442 13.1958 -1.18662e-16)
(49.4193 13.1842 0)
(49.3935 13.1717 -1.37154e-17)
(49.3669 13.158 0)
(49.3394 13.1431 -4.11239e-17)
(49.3112 13.1271 -9.05654e-18)
(49.282 13.1097 0)
(49.2527 13.0909 -5.34038e-18)
(49.22 13.0772 -4.87774e-20)
(49.6873 13.264 5.73519e-18)
(49.6788 13.2708 -6.17532e-16)
(49.674 13.2801 1.15852e-16)
(49.659 13.2725 4.14229e-17)
(49.6441 13.2681 -1.83032e-16)
(49.629 13.2655 -2.1937e-16)
(49.6121 13.2613 -1.82906e-16)
(49.5942 13.2567 -2.24961e-16)
(49.5753 13.2516 0)
(49.5554 13.2458 -1.30444e-16)
(49.5346 13.2393 -2.45879e-16)
(49.513 13.232 1.5086e-16)
(49.4904 13.2238 0)
(49.4669 13.2148 8.79043e-17)
(49.4426 13.2047 1.19493e-16)
(49.4174 13.1937 0)
(49.3914 13.1817 5.56089e-17)
(49.3645 13.1685 7.55896e-17)
(49.3368 13.1542 1.66488e-17)
(49.3083 13.1387 8.70037e-18)
(49.279 13.122 -3.59382e-19)
(49.2487 13.1039 0)
(49.2182 13.0843 -1.1549e-17)
(49.1844 13.07 -5.48446e-20)
(49.6884 13.2686 3.29588e-16)
(49.6793 13.2748 3.08341e-16)
(49.6744 13.2841 -1.94891e-16)
(49.6594 13.2773 0)
(49.6444 13.2732 4.61964e-17)
(49.6291 13.2709 2.47151e-17)
(49.6121 13.2671 2.09638e-16)
(49.594 13.2627 3.08229e-16)
(49.575 13.258 0)
(49.5549 13.2526 -1.29674e-16)
(49.534 13.2465 1.40311e-16)
(49.5121 13.2396 -1.98083e-17)
(49.4893 13.2318 0)
(49.4657 13.2232 -8.8039e-17)
(49.4411 13.2137 0)
(49.4157 13.2032 -2.52428e-17)
(49.3895 13.1916 -4.14648e-17)
(49.3624 13.179 -6.02049e-17)
(49.3344 13.1653 -1.60078e-17)
(49.3056 13.1503 -6.16473e-17)
(49.276 13.1342 0)
(49.2456 13.1167 1.02125e-17)
(49.2142 13.0979 1.12971e-17)
(49.1825 13.0775 1.22861e-17)
(49.1475 13.0626 -2.23567e-21)
(49.6896 13.273 3.36078e-17)
(49.6799 13.2786 0)
(49.6749 13.2879 3.8732e-16)
(49.6598 13.2819 4.15165e-17)
(49.6446 13.2782 0)
(49.6293 13.2761 1.2133e-16)
(49.6122 13.2727 -5.22833e-17)
(49.5939 13.2687 -2.25167e-16)
(49.5747 13.2643 2.97364e-17)
(49.5545 13.2593 2.59654e-16)
(49.5334 13.2536 0)
(49.5113 13.2471 -1.70203e-16)
(49.4884 13.2398 -1.42231e-16)
(49.4645 13.2316 0)
(49.4398 13.2226 -2.41331e-17)
(49.4142 13.2126 0)
(49.3877 13.2015 0)
(49.3604 13.1895 4.51866e-17)
(49.3322 13.1763 6.49316e-17)
(49.3031 13.1619 1.05649e-16)
(49.2732 13.1464 1.91228e-17)
(49.2424 13.1295 0)
(49.2109 13.1113 -1.14797e-17)
(49.1784 13.0918 -3.06826e-17)
(49.1455 13.0705 -6.52545e-18)
(49.1093 13.0551 -2.4287e-21)
(49.6908 13.2771 -5.92948e-16)
(49.6805 13.2823 -3.98364e-17)
(49.6753 13.2915 -1.40256e-18)
(49.6602 13.2863 2.54334e-16)
(49.6449 13.283 0)
(49.6294 13.2812 -1.70556e-16)
(49.6122 13.2782 2.3397e-16)
(49.5938 13.2746 2.5138e-16)
(49.5745 13.2706 0)
(49.5542 13.2659 -1.30041e-16)
(49.5329 13.2606 -1.74821e-16)
(49.5107 13.2546 3.82812e-17)
(49.4875 13.2477 1.82674e-16)
(49.4635 13.24 2.2299e-17)
(49.4386 13.2314 2.40942e-17)
(49.4128 13.2219 5.12038e-17)
(49.3861 13.2114 8.2299e-17)
(49.3585 13.1998 -1.64321e-16)
(49.3301 13.1872 -1.13192e-16)
(49.3008 13.1734 -1.51757e-19)
(49.2706 13.1585 0)
(49.2396 13.1423 3.11593e-17)
(49.2077 13.1247 -5.62928e-17)
(49.175 13.1058 3.63479e-17)
(49.1413 13.0855 -1.99736e-17)
(49.1073 13.0634 -1.08693e-17)
(49.0698 13.0472 1.36597e-19)
(49.6919 13.2809 3.0636e-18)
(49.6812 13.2858 2.71042e-16)
(49.6757 13.2951 -6.26019e-16)
(49.6607 13.2906 -1.70731e-16)
(49.6452 13.2876 1.37138e-16)
(49.6296 13.2862 0)
(49.6123 13.2836 -2.61643e-16)
(49.5938 13.2804 -1.36012e-18)
(49.5744 13.2768 0)
(49.5539 13.2725 0)
(49.5325 13.2676 1.75363e-16)
(49.5101 13.262 3.70088e-17)
(49.4868 13.2556 1.21858e-16)
(49.4626 13.2483 2.22691e-17)
(49.4375 13.2402 8.18503e-19)
(49.4115 13.2312 -2.5112e-17)
(49.3846 13.2212 -2.75306e-17)
(49.3568 13.2102 4.49785e-17)
(49.3282 13.1981 4.89166e-17)
(49.2986 13.1849 -8.74457e-17)
(49.2682 13.1705 -5.65658e-17)
(49.2369 13.1549 -4.12722e-17)
(49.2047 13.138 3.33726e-17)
(49.1716 13.1198 -3.66302e-17)
(49.1377 13.1001 2.64049e-17)
(49.1029 13.0789 7.17378e-18)
(49.0676 13.056 3.82783e-18)
(49.0289 13.0392 -1.47913e-19)
(49.6931 13.2845 2.99907e-16)
(49.6818 13.2892 -3.1337e-16)
(49.6761 13.2984 4.17183e-17)
(49.6611 13.2947 -4.32382e-17)
(49.6455 13.2922 -1.37166e-16)
(49.6298 13.2911 4.93932e-17)
(49.6125 13.2889 0)
(49.5939 13.2861 -3.92186e-16)
(49.5743 13.2829 0)
(49.5537 13.279 -9.61839e-17)
(49.5322 13.2745 -3.54367e-17)
(49.5096 13.2693 -3.697e-17)
(49.4862 13.2634 -3.44521e-16)
(49.4618 13.2566 0)
(49.4365 13.249 -2.32103e-17)
(49.4104 13.2405 -2.50767e-17)
(49.3833 13.231 -1.10507e-16)
(49.3553 13.2205 1.19556e-16)
(49.3264 13.209 -1.58731e-17)
(49.2966 13.1964 1.78396e-17)
(49.2659 13.1826 1.71069e-16)
(49.2344 13.1676 4.10035e-17)
(49.2019 13.1513 4.45897e-17)
(49.1685 13.1337 1.21146e-16)
(49.1343 13.1147 -3.91643e-17)
(49.0992 13.0942 0)
(49.0631 13.0722 0)
(49.0266 13.0484 -8.44686e-18)
(48.9866 13.0309 -8.22346e-20)
(49.6942 13.2879 2.59765e-16)
(49.6825 13.2924 0)
(49.6765 13.3017 3.15509e-16)
(49.6616 13.2987 -3.81425e-16)
(49.6458 13.2966 -1.17827e-18)
(49.63 13.2959 1.21024e-18)
(49.6126 13.2942 -7.79836e-17)
(49.5939 13.2917 2.99355e-17)
(49.5743 13.2889 -6.02195e-17)
(49.5536 13.2855 4.20623e-16)
(49.5319 13.2814 6.91547e-17)
(49.5093 13.2766 3.69366e-17)
(49.4857 13.2711 1.6223e-16)
(49.4612 13.2648 4.36933e-17)
(49.4357 13.2577 0)
(49.4094 13.2497 2.59415e-17)
(49.3821 13.2407 2.80573e-17)
(49.3539 13.2308 0)
(49.3248 13.2198 0)
(49.2948 13.2077 -8.75687e-17)
(49.2639 13.1946 -1.70027e-16)
(49.232 13.1802 -2.05277e-16)
(49.1993 13.1645 -1.11664e-16)
(49.1657 13.1476 -8.99687e-20)
(49.1311 13.1292 3.96284e-17)
(49.0956 13.1095 5.48188e-19)
(49.0593 13.0881 0)
(49.0219 13.0653 -1.67715e-19)
(48.9842 13.0405 0)
(48.9428 13.0223 -6.71605e-21)
(49.6953 13.291 2.87738e-17)
(49.6832 13.2955 -2.72737e-16)
(49.677 13.3048 4.0212e-17)
(49.662 13.3025 3.42365e-16)
(49.6462 13.3009 2.2862e-16)
(49.6303 13.3006 -9.65871e-17)
(49.6128 13.2993 -5.14952e-17)
(49.5941 13.2972 2.91749e-17)
(49.5743 13.2948 -6.01929e-17)
(49.5535 13.2918 -4.85371e-16)
(49.5317 13.2882 -7.05308e-17)
(49.509 13.2838 3.69084e-17)
(49.4853 13.2788 0)
(49.4606 13.273 2.21963e-17)
(49.435 13.2663 -2.11024e-16)
(49.4085 13.2588 -2.59124e-17)
(49.3811 13.2504 1.10757e-16)
(49.3527 13.241 -1.48017e-16)
(49.3234 13.2306 -1.61406e-16)
(49.2932 13.2191 6.98739e-17)
(49.262 13.2065 9.42589e-17)
(49.2299 13.1927 8.2046e-17)
(49.1969 13.1777 1.10789e-16)
(49.163 13.1614 -1.08711e-16)
(49.1281 13.1437 5.22828e-17)
(49.0923 13.1246 0)
(49.0556 13.1041 3.14454e-17)
(49.018 13.0819 -4.20915e-17)
(48.9794 13.0582 8.95201e-18)
(48.9403 13.0324 -9.91723e-18)
(48.8976 13.0134 1.84212e-19)
(49.6964 13.294 -2.99207e-16)
(49.6839 13.2985 3.15468e-16)
(49.6774 13.3077 -3.15246e-16)
(49.6625 13.3062 -8.52431e-17)
(49.6466 13.3051 -1.37522e-16)
(49.6306 13.3052 1.47455e-16)
(49.6131 13.3043 -5.15051e-17)
(49.5942 13.3027 1.63521e-18)
(49.5744 13.3007 2.39606e-16)
(49.5536 13.2981 5.48804e-16)
(49.5317 13.2949 -1.74908e-16)
(49.5088 13.291 -1.12469e-16)
(49.485 13.2864 0)
(49.4602 13.2811 -2.21774e-17)
(49.4344 13.2749 1.65532e-16)
(49.4078 13.2679 2.02782e-16)
(49.3802 13.26 -8.31367e-17)
(49.3516 13.2511 1.59374e-18)
(49.3221 13.2413 1.28907e-16)
(49.2917 13.2304 3.4218e-17)
(49.2603 13.2184 0)
(49.228 13.2052 1.02518e-16)
(49.1947 13.1908 0)
(49.1605 13.1752 4.81651e-17)
(49.1253 13.1582 2.60192e-17)
(49.0892 13.1398 5.66298e-17)
(49.0522 13.1199 -1.08022e-16)
(49.0142 13.0985 1.7051e-17)
(48.9753 13.0755 -3.5195e-19)
(48.9353 13.0508 1.99684e-17)
(48.8949 13.0241 -5.48395e-18)
(48.8508 13.0042 0)
(49.6975 13.2967 0)
(49.6846 13.3013 0)
(49.6779 13.3106 3.18144e-16)
(49.663 13.3098 0)
(49.647 13.3091 9.14982e-17)
(49.6309 13.3096 -4.82771e-17)
(49.6134 13.3092 -2.64834e-17)
(49.5945 13.308 1.70776e-18)
(49.5746 13.3064 -4.50259e-16)
(49.5536 13.3043 -1.85735e-18)
(49.5317 13.3015 3.53412e-17)
(49.5087 13.2981 3.78528e-17)
(49.4848 13.294 -1.609e-16)
(49.4598 13.2891 -2.21604e-17)
(49.434 13.2834 2.10591e-16)
(49.4072 13.2769 -4.06219e-16)
(49.3794 13.2695 -2.79651e-17)
(49.3507 13.2612 1.49271e-16)
(49.321 13.2519 1.17879e-18)
(49.2904 13.2416 -1.77319e-17)
(49.2588 13.2302 1.92106e-17)
(49.2262 13.2176 -8.18017e-17)
(49.1927 13.2039 8.40257e-19)
(49.1582 13.1889 -1.20391e-16)
(49.1227 13.1726 -5.21621e-17)
(49.0863 13.1549 -1.26978e-16)
(49.0489 13.1357 6.1463e-17)
(49.0106 13.115 1.63691e-17)
(48.9713 13.0928 9.24412e-18)
(48.9311 13.0688 4.90386e-17)
(48.8898 13.0432 -1.05113e-17)
(48.848 13.0154 5.71688e-18)
(48.8025 12.9947 0)
(49.6986 13.2993 3.32063e-16)
(49.6853 13.304 -3.87921e-17)
(49.6784 13.3134 -3.16688e-16)
(49.6635 13.3132 0)
(49.6474 13.3131 -4.63634e-17)
(49.6313 13.314 -4.83008e-17)
(49.6137 13.314 0)
(49.5948 13.3132 2.80837e-16)
(49.5748 13.3121 1.86113e-18)
(49.5538 13.3104 -5.48392e-16)
(49.5317 13.3081 0)
(49.5087 13.3051 1.13332e-16)
(49.4846 13.3015 1.20808e-16)
(49.4596 13.2971 0)
(49.4336 13.2919 -3.76551e-16)
(49.4067 13.2859 1.14623e-18)
(49.3788 13.2791 2.79417e-17)
(49.3499 13.2713 1.47488e-16)
(49.32 13.2625 -3.15359e-17)
(49.2892 13.2528 1.2891e-18)
(49.2574 13.242 -1.50934e-16)
(49.2246 13.23 -2.00245e-17)
(49.1908 13.2169 0)
(49.1561 13.2026 -2.32466e-17)
(49.1204 13.1869 -7.83365e-17)
(49.0837 13.1699 1.35278e-19)
(49.046 13.1515 0)
(49.0073 13.1315 -8.34436e-17)
(48.9676 13.11 0)
(48.9269 13.0868 -9.81891e-17)
(48.8854 13.0619 1.08886e-17)
(48.8427 13.0353 -3.50395e-17)
(48.7995 13.0065 6.4389e-18)
(48.7525 12.9848 2.43069e-19)
(49.6997 13.3018 -3.02799e-16)
(49.6861 13.3066 -7.87228e-17)
(49.6788 13.316 6.77678e-16)
(49.664 13.3166 -4.34405e-17)
(49.6479 13.3169 -4.63849e-17)
(49.6317 13.3182 2.4279e-16)
(49.6141 13.3187 -2.64872e-17)
(49.5951 13.3184 0)
(49.5751 13.3177 2.42176e-16)
(49.554 13.3164 2.59233e-16)
(49.5319 13.3146 0)
(49.5088 13.3121 -1.87082e-16)
(49.4846 13.3089 0)
(49.4595 13.305 4.27852e-17)
(49.4334 13.3003 1.88347e-16)
(49.4063 13.2948 2.28351e-16)
(49.3783 13.2885 0)
(49.3492 13.2813 -1.47972e-16)
(49.3192 13.2731 -1.27939e-16)
(49.2882 13.2639 -1.38524e-16)
(49.2562 13.2537 2.6381e-16)
(49.2232 13.2424 -7.69066e-19)
(49.1892 13.2299 0)
(49.1542 13.2162 1.20306e-16)
(49.1182 13.2012 1.03986e-16)
(49.0812 13.1849 5.64064e-17)
(49.0432 13.1672 1.55964e-17)
(49.0042 13.148 1.32758e-16)
(48.9641 13.1272 1.76916e-17)
(48.9231 13.1048 5.87357e-20)
(48.8811 13.0807 3.21526e-17)
(48.8381 13.0548 -1.13296e-17)
(48.794 13.0271 1.23432e-17)
(48.7494 12.9972 -6.71331e-18)
(48.7009 12.9746 -2.5322e-19)
(49.7007 13.304 -6.98431e-17)
(49.6869 13.309 3.93507e-16)
(49.6794 13.3186 -2.80208e-16)
(49.6646 13.3198 3.41214e-16)
(49.6484 13.3206 4.52877e-17)
(49.6321 13.3223 -1.47926e-16)
(49.6145 13.3233 -5.29862e-17)
(49.5955 13.3234 -7.99138e-19)
(49.5754 13.3232 0)
(49.5543 13.3224 -6.46091e-17)
(49.5321 13.321 3.53006e-17)
(49.5089 13.3189 3.37093e-16)
(49.4847 13.3162 3.96607e-17)
(49.4595 13.3128 0)
(49.4333 13.3087 0)
(49.4061 13.3037 0)
(49.3779 13.2979 0)
(49.3487 13.2912 0)
(49.3186 13.2836 2.56324e-16)
(49.2874 13.275 1.39069e-16)
(49.2552 13.2654 -1.5057e-16)
(49.222 13.2547 0)
(49.1877 13.2428 1.09671e-16)
(49.1525 13.2298 -9.54419e-17)
(49.1162 13.2154 -2.54503e-17)
(49.0789 13.1998 -2.86919e-17)
(49.0406 13.1828 1.55686e-17)
(49.0013 13.1643 -1.48755e-16)
(48.9609 13.1443 0)
(48.9195 13.1227 3.90975e-17)
(48.8771 13.0994 4.24078e-17)
(48.8336 13.0744 -5.7414e-17)
(48.7892 13.0474 1.27866e-17)
(48.7437 13.0186 6.95078e-18)
(48.6977 12.9876 0)
(48.6476 12.9639 -2.84866e-19)
(49.7018 13.3062 0)
(49.6876 13.3114 -2.78335e-16)
(49.6799 13.321 2.78146e-16)
(49.6652 13.3229 -3.44751e-16)
(49.6489 13.3242 -3.65825e-16)
(49.6326 13.3264 0)
(49.6149 13.3278 5.30079e-17)
(49.5959 13.3284 3.06634e-16)
(49.5758 13.3286 -2.09618e-16)
(49.5547 13.3283 0)
(49.5324 13.3273 -1.09774e-18)
(49.5092 13.3257 -1.8688e-16)
(49.4849 13.3235 1.34381e-18)
(49.4596 13.3206 1.2891e-16)
(49.4333 13.3169 0)
(49.406 13.3125 -1.76132e-16)
(49.3777 13.3072 2.18281e-16)
(49.3484 13.3011 1.18039e-16)
(49.318 13.294 -1.28439e-16)
(49.2867 13.286 0)
(49.2543 13.277 -3.82732e-17)
(49.2209 13.2669 -1.4151e-16)
(49.1865 13.2557 -6.58239e-17)
(49.151 13.2433 7.1335e-17)
(49.1145 13.2296 -7.69635e-17)
(49.0769 13.2147 0)
(49.0383 13.1984 -9.17928e-17)
(48.9986 13.1806 8.1375e-19)
(48.9579 13.1614 1.83152e-17)
(48.9161 13.1406 -7.78803e-17)
(48.8733 13.1181 -8.46703e-17)
(48.8294 13.0938 4.6025e-17)
(48.7845 13.0677 1.22645e-17)
(48.7387 13.0398 -6.76295e-17)
(48.6917 13.0098 -7.24671e-18)
(48.6442 12.9775 0)
(48.5926 12.9528 6.05011e-19)
(49.7028 13.3081 -3.33357e-17)
(49.6884 13.3136 0)
(49.6804 13.3234 -6.01034e-16)
(49.6658 13.3259 -3.41748e-16)
(49.6495 13.3277 3.6965e-16)
(49.6331 13.3303 0)
(49.6154 13.3322 0)
(49.5964 13.3333 -2.51899e-16)
(49.5763 13.3339 1.81264e-16)
(49.5551 13.334 3.27894e-17)
(49.5328 13.3336 0)
(49.5095 13.3325 3.34451e-16)
(49.4852 13.3307 0)
(49.4598 13.3283 -4.34378e-16)
(49.4334 13.3251 4.61103e-17)
(49.406 13.3212 -2.4387e-17)
(49.3776 13.3165 -2.83346e-17)
(49.3482 13.3109 -3.54635e-16)
(49.3177 13.3044 1.27643e-16)
(49.2862 13.297 1.02853e-16)
(49.2536 13.2886 -3.82511e-17)
(49.22 13.2791 3.64905e-16)
(49.1854 13.2685 -2.16128e-17)
(49.1497 13.2567 -4.77622e-17)
(49.1129 13.2438 2.57874e-17)
(49.0751 13.2295 -2.75376e-17)
(49.0361 13.2139 3.8659e-19)
(48.9962 13.1969 1.32076e-16)
(48.9551 13.1784 -1.75884e-17)
(48.913 13.1583 1.3653e-16)
(48.8698 13.1366 4.22875e-17)
(48.8255 13.1132 -4.58442e-17)
(48.7802 13.088 0)
(48.7338 13.0609 5.41904e-17)
(48.6865 13.0318 0)
(48.638 13.0006 0)
(48.5889 12.9671 0)
(48.5357 12.9412 -3.26273e-19)
(49.7037 13.31 -2.60958e-16)
(49.6892 13.3158 0)
(49.681 13.3257 3.63867e-16)
(49.6664 13.3288 3.03166e-16)
(49.6501 13.3311 -3.19735e-16)
(49.6337 13.3342 4.95823e-17)
(49.616 13.3365 2.08089e-16)
(49.5969 13.338 0)
(49.5768 13.3392 -2.96328e-17)
(49.5556 13.3397 3.18073e-17)
(49.5333 13.3397 2.06877e-16)
(49.5099 13.3391 -3.00137e-16)
(49.4856 13.3379 -1.60357e-16)
(49.4601 13.3359 -4.28214e-17)
(49.4337 13.3333 2.32837e-16)
(49.4062 13.3299 1.77414e-16)
(49.3777 13.3257 -1.92669e-16)
(49.3481 13.3207 2.37359e-16)
(49.3175 13.3148 -7.90092e-19)
(49.2858 13.3079 -1.38904e-16)
(49.2531 13.3001 3.68213e-17)
(49.2193 13.2912 -1.22954e-16)
(49.1845 13.2813 -1.75551e-16)
(49.1485 13.2702 7.08224e-17)
(49.1115 13.2579 -5.73542e-19)
(49.0734 13.2443 -1.11889e-16)
(49.0342 13.2294 9.07789e-17)
(48.9939 13.2131 6.56449e-17)
(48.9526 13.1954 -7.14724e-17)
(48.9101 13.1761 -7.77827e-17)
(48.8665 13.1552 0)
(48.8218 13.1326 9.15768e-17)
(48.7761 13.1082 -1.26855e-17)
(48.7293 13.0819 0)
(48.6814 13.0537 0)
(48.6325 13.0234 1.62681e-17)
(48.5825 12.991 -1.73283e-17)
(48.5318 12.9562 -4.80576e-18)
(48.477 12.9291 0)
(49.7047 13.3117 2.98546e-16)
(49.69 13.3179 0)
(49.6816 13.3279 -3.61502e-16)
(49.667 13.3316 -4.249e-17)
(49.6507 13.3345 7.36754e-16)
(49.6343 13.3379 -4.85007e-17)
(49.6165 13.3407 -4.70115e-16)
(49.5975 13.3427 2.22978e-16)
(49.5774 13.3443 2.39173e-16)
(49.5561 13.3454 -3.27866e-17)
(49.5338 13.3458 -3.14124e-16)
(49.5105 13.3457 -2.22697e-16)
(49.486 13.3449 2.02661e-16)
(49.4606 13.3435 1.30159e-16)
(49.434 13.3414 -3.28742e-16)
(49.4064 13.3385 0)
(49.3778 13.3348 2.68802e-17)
(49.3481 13.3304 0)
(49.3174 13.325 3.17787e-17)
(49.2856 13.3188 0)
(49.2527 13.3115 0)
(49.2188 13.3033 4.14007e-17)
(49.1837 13.294 1.9876e-16)
(49.1476 13.2835 -3.1e-16)
(49.1103 13.2719 1.02539e-16)
(49.072 13.259 1.11159e-16)
(49.0325 13.2449 3.09916e-17)
(48.9919 13.2293 -9.96669e-17)
(48.9502 13.2123 7.16008e-17)
(48.9074 13.1938 0)
(48.8635 13.1737 2.14823e-17)
(48.8184 13.1519 -1.37069e-16)
(48.7722 13.1283 -1.266e-17)
(48.7249 13.1029 8.08284e-17)
(48.6766 13.0756 -5.85065e-17)
(48.6271 13.0462 -4.80061e-17)
(48.5767 13.0147 9.13565e-18)
(48.5251 12.981 -9.57718e-18)
(48.4729 12.9448 1.02163e-17)
(48.4164 12.9164 0)
(49.7056 13.3134 0)
(49.6908 13.3199 -2.76691e-16)
(49.6821 13.33 3.2465e-16)
(49.6676 13.3343 -2.56394e-16)
(49.6513 13.3377 -3.70711e-16)
(49.6349 13.3416 -4.39644e-16)
(49.6172 13.3448 1.57344e-16)
(49.5981 13.3473 -2.25337e-16)
(49.578 13.3494 -2.41612e-16)
(49.5568 13.3509 0)
(49.5345 13.3518 3.41855e-17)
(49.5111 13.3522 6.34355e-16)
(49.4866 13.3519 -3.96165e-17)
(49.4611 13.351 -8.68982e-17)
(49.4345 13.3494 4.20853e-16)
(49.4068 13.347 2.57744e-17)
(49.3781 13.3439 0)
(49.3483 13.34 0)
(49.3175 13.3352 3.17334e-17)
(49.2855 13.3296 -1.71976e-16)
(49.2525 13.3229 1.49406e-16)
(49.2184 13.3153 -4.13905e-17)
(49.1832 13.3066 -4.31622e-17)
(49.1468 13.2968 1.67628e-16)
(49.1094 13.2859 2.53426e-17)
(49.0708 13.2737 -1.08651e-18)
(49.031 13.2602 2.97906e-17)
(48.9902 13.2454 -6.59066e-17)
(48.9481 13.2292 -1.82228e-17)
(48.905 13.2114 -7.73777e-17)
(48.8607 13.1921 0)
(48.8152 13.1711 1.11032e-18)
(48.7686 13.1484 2.52791e-17)
(48.7209 13.1239 1.31025e-17)
(48.6721 13.0974 4.41254e-17)
(48.6221 13.069 3.17428e-17)
(48.5711 13.0384 2.57023e-17)
(48.5191 13.0056 -4.66158e-17)
(48.4659 12.9705 2.21506e-20)
(48.4121 12.9329 -1.10649e-17)
(48.3538 12.9031 0)
(49.7065 13.3149 -2.5716e-16)
(49.6917 13.3217 6.36218e-16)
(49.6827 13.3321 -8.1863e-17)
(49.6683 13.3369 3.46851e-16)
(49.652 13.3408 -4.55343e-17)
(49.6355 13.3451 7.84775e-16)
(49.6178 13.3489 -1.56485e-16)
(49.5988 13.3518 2.68936e-17)
(49.5787 13.3544 -2.69672e-16)
(49.5575 13.3563 0)
(49.5351 13.3578 2.76174e-16)
(49.5117 13.3586 -3.00229e-16)
(49.4873 13.3588 0)
(49.4617 13.3584 0)
(49.4351 13.3573 -9.43942e-17)
(49.4073 13.3555 2.0153e-16)
(49.3785 13.3529 -2.44708e-16)
(49.3487 13.3496 3.01313e-17)
(49.3177 13.3454 -3.83246e-16)
(49.2857 13.3403 1.04887e-16)
(49.2525 13.3343 -9.55933e-19)
(49.2182 13.3273 0)
(49.1828 13.3192 1.96031e-16)
(49.1462 13.3101 0)
(49.1086 13.2998 0)
(49.0697 13.2883 2.85493e-17)
(49.0297 13.2756 1.5086e-16)
(48.9886 13.2615 0)
(48.9463 13.246 5.32341e-17)
(48.9028 13.229 1.92518e-17)
(48.8581 13.2105 8.38867e-17)
(48.8123 13.1903 1.82339e-16)
(48.7653 13.1684 -2.4279e-17)
(48.7171 13.1448 -1.27656e-17)
(48.6678 13.1192 0)
(48.6174 13.0916 -1.61487e-17)
(48.5659 13.062 -5.1895e-17)
(48.5132 13.0302 1.86675e-17)
(48.4595 12.996 3.06306e-17)
(48.4047 12.9595 -2.20555e-17)
(48.3492 12.9204 5.87879e-18)
(48.2893 12.8891 0)
(49.7074 13.3163 3.35639e-16)
(49.6925 13.3235 -3.60171e-16)
(49.6833 13.334 -2.81373e-16)
(49.6689 13.3394 -3.00416e-16)
(49.6527 13.3438 0)
(49.6362 13.3486 -3.94917e-16)
(49.6186 13.3528 2.10683e-16)
(49.5995 13.3563 -2.23028e-16)
(49.5794 13.3592 2.71443e-16)
(49.5582 13.3617 3.18202e-17)
(49.5359 13.3636 -2.87305e-18)
(49.5125 13.3649 0)
(49.488 13.3657 0)
(49.4624 13.3657 1.72787e-16)
(49.4357 13.3652 1.86527e-16)
(49.408 13.3639 -2.52979e-16)
(49.3791 13.3619 2.19591e-16)
(49.3491 13.3591 -3.01318e-17)
(49.3181 13.3555 2.25335e-16)
(49.2859 13.351 -1.7321e-16)
(49.2526 13.3456 -1.88557e-16)
(49.2182 13.3392 0)
(49.1826 13.3318 -2.34647e-17)
(49.1459 13.3233 2.3374e-17)
(49.108 13.3137 2.05884e-16)
(49.0689 13.3029 0)
(49.0287 13.2909 -1.20397e-16)
(48.9872 13.2775 0)
(48.9446 13.2628 0)
(48.9008 13.2466 3.87856e-17)
(48.8558 13.2288 -8.40833e-17)
(48.8096 13.2095 -1.14457e-16)
(48.7622 13.1884 1.23926e-16)
(48.7136 13.1656 -1.60842e-16)
(48.6639 13.1409 -1.4285e-17)
(48.613 13.1143 1.61204e-17)
(48.5609 13.0856 5.11672e-17)
(48.5077 13.0547 3.72862e-17)
(48.4533 13.0215 9.92938e-18)
(48.398 12.986 -1.0786e-17)
(48.3415 12.948 1.17186e-17)
(48.2844 12.9072 -6.4835e-18)
(48.2226 12.8745 0)
(49.7083 13.3176 -3.43034e-17)
(49.6933 13.3253 -3.95446e-16)
(49.6839 13.3359 3.26733e-16)
(49.6696 13.3419 2.61148e-16)
(49.6534 13.3468 0)
(49.6369 13.352 4.97066e-17)
(49.6193 13.3567 0)
(49.6003 13.3606 2.60439e-18)
(49.5802 13.3641 0)
(49.5591 13.367 0)
(49.5368 13.3694 -2.79084e-16)
(49.5133 13.3712 2.59249e-16)
(49.4888 13.3724 0)
(49.4632 13.373 -1.74441e-16)
(49.4365 13.373 -3.74736e-16)
(49.4087 13.3722 0)
(49.3798 13.3708 0)
(49.3498 13.3685 2.3552e-16)
(49.3186 13.3655 2.53631e-16)
(49.2863 13.3616 2.76842e-16)
(49.2529 13.3568 2.24338e-16)
(49.2183 13.351 -1.63304e-16)
(49.1826 13.3443 -1.76346e-16)
(49.1457 13.3365 2.13286e-16)
(49.1076 13.3275 -4.12849e-16)
(49.0683 13.3174 0)
(49.0278 13.3061 0)
(48.9861 13.2935 -1.63491e-16)
(48.9432 13.2795 -1.42333e-16)
(48.8991 13.2641 1.54395e-16)
(48.8538 13.2471 2.05848e-17)
(48.8072 13.2286 -2.32239e-17)
(48.7594 13.2084 -7.46634e-17)
(48.7104 13.1864 1.31684e-18)
(48.6602 13.1626 0)
(48.6088 13.1369 1.60973e-17)
(48.5562 13.1091 -1.68084e-17)
(48.5024 13.0792 -7.43065e-17)
(48.4475 13.047 -6.01585e-17)
(48.3915 13.0125 0)
(48.3344 12.9754 3.59307e-17)
(48.2762 12.9358 -1.30513e-17)
(48.2174 12.8934 0)
(48.1539 12.859 4.09415e-21)
(49.7091 13.3189 0)
(49.6941 13.3269 2.81458e-16)
(49.6846 13.3378 -2.82262e-16)
(49.6703 13.3442 0)
(49.6542 13.3497 4.12854e-16)
(49.6377 13.3553 -4.97315e-17)
(49.6201 13.3605 -7.84064e-17)
(49.6012 13.3649 1.973e-16)
(49.5811 13.3688 0)
(49.56 13.3722 -2.23966e-16)
(49.5377 13.3751 0)
(49.5143 13.3774 -3.0042e-16)
(49.4898 13.3791 3.96177e-17)
(49.4641 13.3802 0)
(49.4374 13.3807 1.88289e-16)
(49.4096 13.3805 0)
(49.3806 13.3796 0)
(49.3505 13.3779 -2.37512e-16)
(49.3193 13.3754 -2.07229e-18)
(49.2869 13.3721 -1.04984e-16)
(49.2533 13.3679 -2.99771e-16)
(49.2186 13.3628 1.23032e-16)
(49.1827 13.3567 8.8007e-17)
(49.1456 13.3496 -1.1773e-18)
(49.1074 13.3413 1.19959e-18)
(49.0679 13.3319 0)
(49.0271 13.3213 0)
(48.9852 13.3094 1.31827e-16)
(48.942 13.2962 1.06533e-16)
(48.8976 13.2815 -1.5497e-16)
(48.8519 13.2654 -8.37199e-17)
(48.805 13.2476 -2.3214e-17)
(48.7568 13.2283 1.22754e-16)
(48.7074 13.2072 1.07225e-16)
(48.6568 13.1842 -1.14902e-16)
(48.6049 13.1594 1.608e-17)
(48.5518 13.1325 -1.67847e-17)
(48.4975 13.1036 5.53574e-17)
(48.442 13.0724 4.03136e-17)
(48.3854 13.0388 4.37164e-17)
(48.3276 13.0029 2.37182e-17)
(48.2688 12.9643 -1.29091e-17)
(48.2089 12.923 6.87246e-18)
(48.1483 12.8789 7.75034e-18)
(48.0829 12.8427 0)
(49.7099 13.32 0)
(49.6949 13.3285 3.94764e-17)
(49.6852 13.3395 3.69183e-16)
(49.671 13.3465 0)
(49.6549 13.3525 -3.72242e-16)
(49.6385 13.3586 0)
(49.6209 13.3641 -1.56567e-16)
(49.602 13.369 5.61756e-17)
(49.582 13.3734 -8.55114e-19)
(49.5609 13.3773 3.58504e-17)
(49.5387 13.3807 1.08186e-18)
(49.5153 13.3835 0)