/*--------------------------------*- C++ -*----------------------------------*\
  =========                 |
  \\      /  F ield         | OpenFOAM: The Open Source CFD Toolbox
   \\    /   O peration     | Website:  https://openfoam.org
    \\  /    A nd           | Version:  7
     \\/     M anipulation  |
\*---------------------------------------------------------------------------*/
FoamFile
{
    version     2.0;
    format      ascii;
    class       volScalarField;
    location    "200";
    object      yPlus;
}
// * * * * * * * * * * * * * * * * * * * * * * * * * * * * * * * * * * * * * //

dimensions      [0 0 0 0 0 0 0];

internalField   uniform 0;

boundaryField
{
    inlet-l
    {
        type            calculated;
        value           uniform 0;
    }
    airfoil-l1
    {
        type            calculated;
        value           nonuniform List<scalar> 
107
(
26.3344
25.6171
24.6661
23.5458
22.3251
21.0605
19.7944
18.5538
17.3535
16.1977
15.0932
14.0543
13.1008
12.238
11.4352
10.6786
9.95761
9.27258
8.61574
7.97779
7.35499
6.73453
6.10857
5.46719
4.79431
4.06622
3.2306
2.15815
0.927672
2.4797
3.36059
4.03798
4.60207
5.09857
5.54495
5.95623
6.34035
6.70064
7.04378
7.3775
7.70093
8.01465
8.32447
8.63173
8.93776
9.24215
9.54626
9.85411
10.1627
10.4714
10.7778
11.0897
11.4064
11.7281
12.0622
12.4061
12.7584
13.1119
13.4589
13.7898
14.109
14.4161
14.7136
15.0021
15.2825
15.5585
15.8253
16.088
16.3455
16.593
16.8442
17.0874
17.3293
17.5642
17.8024
18.0331
18.2587
18.4828
18.7048
18.9229
19.135
19.3465
19.553
19.7547
19.9565
20.1559
20.3457
20.5337
20.7194
20.8986
21.077
21.249
21.4172
21.5779
21.733
21.8891
22.0352
22.1772
22.3142
22.4476
22.5713
22.6902
22.8035
22.9115
23.013
23.1022
23.1905
)
;
    }
    empty-1
    {
        type            empty;
    }
    empty-2
    {
        type            empty;
    }
    wall-l1
    {
        type            calculated;
        value           nonuniform 0();
    }
    airfoil-l2
    {
        type            calculated;
        value           uniform 23.3723;
    }
    empty-3
    {
        type            empty;
    }
    empty-4
    {
        type            empty;
    }
    wall-l2
    {
        type            calculated;
        value           nonuniform 0();
    }
    outlet-l
    {
        type            calculated;
        value           nonuniform 0();
    }
    empty-5
    {
        type            empty;
    }
    empty-6
    {
        type            empty;
    }
    outlet-h
    {
        type            calculated;
        value           nonuniform 0();
    }
    wall-h2
    {
        type            calculated;
        value           nonuniform 0();
    }
    empty-7
    {
        type            empty;
    }
    empty-8
    {
        type            empty;
    }
    airfoil-h2
    {
        type            calculated;
        value           nonuniform 0();
    }
    wall-h1
    {
        type            calculated;
        value           nonuniform 0();
    }
    empty-9
    {
        type            empty;
    }
    empty-10
    {
        type            empty;
    }
    inlet-h
    {
        type            calculated;
        value           uniform 0;
    }
    airfoil-h1
    {
        type            calculated;
        value           nonuniform List<scalar> 
16
(
26.8134
27.1189
27.2256
27.0804
26.723
26.2346
25.686
25.1216
24.5572
24.0039
23.4787
22.9805
22.5018
22.0458
21.61
21.1916
)
;
    }
    empty-11
    {
        type            empty;
    }
    empty-12
    {
        type            empty;
    }
    procBoundary0to1
    {
        type            processor;
        value           uniform 0;
    }
    procBoundary0to3
    {
        type            processor;
        value           uniform 0;
    }
}


// ************************************************************************* //
