/*--------------------------------*- C++ -*----------------------------------*\
  =========                 |
  \\      /  F ield         | OpenFOAM: The Open Source CFD Toolbox
   \\    /   O peration     | Website:  https://openfoam.org
    \\  /    A nd           | Version:  7
     \\/     M anipulation  |
\*---------------------------------------------------------------------------*/
FoamFile
{
    version     2.0;
    format      ascii;
    class       volScalarField;
    location    "800";
    object      nut;
}
// * * * * * * * * * * * * * * * * * * * * * * * * * * * * * * * * * * * * * //

dimensions      [0 2 -1 0 0 0 0];

internalField   nonuniform List<scalar> 
23117
(
5.2185e-06
5.21611e-06
5.22979e-06
5.21591e-06
5.22787e-06
5.23573e-06
5.21519e-06
5.22699e-06
5.23315e-06
5.23582e-06
5.21481e-06
5.22593e-06
5.23159e-06
5.23152e-06
5.22987e-06
5.21445e-06
5.22504e-06
5.2298e-06
5.22922e-06
5.22494e-06
5.22324e-06
5.21416e-06
5.22413e-06
5.22803e-06
5.22656e-06
5.22292e-06
5.22065e-06
5.22256e-06
5.21389e-06
5.22322e-06
5.22621e-06
5.22416e-06
5.22081e-06
5.22043e-06
5.22253e-06
5.22476e-06
5.21365e-06
5.22228e-06
5.22441e-06
5.22196e-06
5.21938e-06
5.2202e-06
5.22261e-06
5.22404e-06
5.22476e-06
5.21341e-06
5.22132e-06
5.22264e-06
5.22004e-06
5.21845e-06
5.22022e-06
5.22244e-06
5.22324e-06
5.22314e-06
5.22481e-06
5.21317e-06
5.22034e-06
5.22093e-06
5.21845e-06
5.218e-06
5.22028e-06
5.22208e-06
5.22234e-06
5.22268e-06
5.22496e-06
5.22849e-06
5.21293e-06
5.21933e-06
5.21933e-06
5.21721e-06
5.21791e-06
5.22029e-06
5.22151e-06
5.2215e-06
5.22248e-06
5.22569e-06
5.22993e-06
5.2333e-06
5.21268e-06
5.21831e-06
5.21786e-06
5.21632e-06
5.21791e-06
5.22018e-06
5.22083e-06
5.22086e-06
5.22277e-06
5.22642e-06
5.23041e-06
5.23361e-06
5.23545e-06
5.21241e-06
5.2173e-06
5.21656e-06
5.21577e-06
5.21797e-06
5.2199e-06
5.2201e-06
5.22051e-06
5.22319e-06
5.22709e-06
5.23064e-06
5.23275e-06
5.23329e-06
5.23364e-06
5.21213e-06
5.2163e-06
5.21545e-06
5.21553e-06
5.21804e-06
5.21949e-06
5.21943e-06
5.22048e-06
5.2237e-06
5.22752e-06
5.2304e-06
5.23162e-06
5.23118e-06
5.22946e-06
5.22911e-06
5.21184e-06
5.21534e-06
5.21454e-06
5.21553e-06
5.21804e-06
5.21899e-06
5.2189e-06
5.22069e-06
5.22418e-06
5.22765e-06
5.22974e-06
5.23003e-06
5.22888e-06
5.22689e-06
5.22428e-06
5.22394e-06
5.21153e-06
5.21442e-06
5.21384e-06
5.21558e-06
5.21796e-06
5.21843e-06
5.21856e-06
5.22096e-06
5.22454e-06
5.22747e-06
5.22871e-06
5.22821e-06
5.22649e-06
5.22423e-06
5.22203e-06
5.2197e-06
5.21967e-06
5.2112e-06
5.21357e-06
5.21335e-06
5.21567e-06
5.21776e-06
5.21787e-06
5.21844e-06
5.22128e-06
5.22469e-06
5.22697e-06
5.2274e-06
5.22624e-06
5.22417e-06
5.22185e-06
5.21973e-06
5.21814e-06
5.21662e-06
5.21687e-06
5.21087e-06
5.21279e-06
5.21305e-06
5.21577e-06
5.21748e-06
5.21737e-06
5.21851e-06
5.22156e-06
5.22463e-06
5.22619e-06
5.2259e-06
5.22425e-06
5.222e-06
5.21976e-06
5.21791e-06
5.21653e-06
5.21573e-06
5.21502e-06
5.21542e-06
5.21053e-06
5.2121e-06
5.21294e-06
5.21585e-06
5.21713e-06
5.21696e-06
5.21863e-06
5.22176e-06
5.22435e-06
5.2252e-06
5.2243e-06
5.22233e-06
5.22005e-06
5.218e-06
5.21644e-06
5.2154e-06
5.2148e-06
5.21462e-06
5.21452e-06
5.21497e-06
5.21018e-06
5.21151e-06
5.21298e-06
5.21589e-06
5.21673e-06
5.21668e-06
5.21878e-06
5.22182e-06
5.22386e-06
5.22405e-06
5.22267e-06
5.22053e-06
5.21835e-06
5.21656e-06
5.21531e-06
5.21457e-06
5.21425e-06
5.21423e-06
5.21446e-06
5.21479e-06
5.21525e-06
5.20984e-06
5.21102e-06
5.21311e-06
5.21587e-06
5.21631e-06
5.21653e-06
5.21892e-06
5.22173e-06
5.22319e-06
5.2228e-06
5.22109e-06
5.21891e-06
5.21691e-06
5.21541e-06
5.21447e-06
5.21401e-06
5.21392e-06
5.21412e-06
5.2145e-06
5.21504e-06
5.2157e-06
5.21613e-06
5.20949e-06
5.21064e-06
5.21325e-06
5.21579e-06
5.21591e-06
5.2165e-06
5.21903e-06
5.22151e-06
5.22238e-06
5.2215e-06
5.21959e-06
5.21748e-06
5.21572e-06
5.21452e-06
5.21387e-06
5.21367e-06
5.21381e-06
5.2142e-06
5.21479e-06
5.21551e-06
5.21631e-06
5.21725e-06
5.21763e-06
5.20916e-06
5.21036e-06
5.2134e-06
5.21565e-06
5.21554e-06
5.21651e-06
5.21908e-06
5.22114e-06
5.22147e-06
5.22022e-06
5.21822e-06
5.21625e-06
5.21476e-06
5.21386e-06
5.21348e-06
5.21352e-06
5.21387e-06
5.21448e-06
5.21528e-06
5.21622e-06
5.21723e-06
5.21823e-06
5.21931e-06
5.21958e-06
5.20884e-06
5.21019e-06
5.21355e-06
5.21545e-06
5.21522e-06
5.21654e-06
5.21903e-06
5.22066e-06
5.2205e-06
5.21898e-06
5.21698e-06
5.21522e-06
5.21401e-06
5.2134e-06
5.21327e-06
5.21353e-06
5.21411e-06
5.21495e-06
5.21599e-06
5.21715e-06
5.21833e-06
5.21948e-06
5.22055e-06
5.22162e-06
5.22177e-06
5.20854e-06
5.21011e-06
5.21369e-06
5.21522e-06
5.21497e-06
5.21656e-06
5.21891e-06
5.22007e-06
5.21951e-06
5.21782e-06
5.2159e-06
5.21438e-06
5.21345e-06
5.2131e-06
5.21321e-06
5.21371e-06
5.21453e-06
5.21562e-06
5.21687e-06
5.21819e-06
5.2195e-06
5.22075e-06
5.22192e-06
5.22295e-06
5.22396e-06
5.22399e-06
5.20826e-06
5.21014e-06
5.21381e-06
5.21496e-06
5.21479e-06
5.21657e-06
5.21869e-06
5.21942e-06
5.21852e-06
5.21675e-06
5.21498e-06
5.2137e-06
5.21305e-06
5.21295e-06
5.2133e-06
5.21403e-06
5.21511e-06
5.21641e-06
5.21783e-06
5.21926e-06
5.22066e-06
5.22198e-06
5.22319e-06
5.22428e-06
5.22523e-06
5.22616e-06
5.22612e-06
5.20801e-06
5.21025e-06
5.2139e-06
5.21469e-06
5.21469e-06
5.21656e-06
5.2184e-06
5.21872e-06
5.21756e-06
5.21579e-06
5.2142e-06
5.21319e-06
5.21279e-06
5.21293e-06
5.21351e-06
5.21449e-06
5.2158e-06
5.21727e-06
5.2188e-06
5.22031e-06
5.22176e-06
5.22311e-06
5.22435e-06
5.22547e-06
5.22647e-06
5.22733e-06
5.22818e-06
5.2281e-06
5.20778e-06
5.21044e-06
5.21396e-06
5.21442e-06
5.21464e-06
5.21651e-06
5.21804e-06
5.21799e-06
5.21665e-06
5.21494e-06
5.21356e-06
5.2128e-06
5.21265e-06
5.21302e-06
5.21384e-06
5.21508e-06
5.21655e-06
5.21814e-06
5.21975e-06
5.2213e-06
5.22277e-06
5.22413e-06
5.22539e-06
5.22654e-06
5.22757e-06
5.22849e-06
5.22927e-06
5.23005e-06
5.22995e-06
5.20759e-06
5.21066e-06
5.21399e-06
5.21415e-06
5.21459e-06
5.21641e-06
5.21762e-06
5.21725e-06
5.21581e-06
5.2142e-06
5.21305e-06
5.21254e-06
5.21262e-06
5.21322e-06
5.21429e-06
5.21572e-06
5.21733e-06
5.219e-06
5.22064e-06
5.2222e-06
5.22368e-06
5.22506e-06
5.22633e-06
5.22751e-06
5.22858e-06
5.22954e-06
5.23039e-06
5.23111e-06
5.23181e-06
5.2317e-06
5.20742e-06
5.21088e-06
5.21398e-06
5.2139e-06
5.21453e-06
5.21627e-06
5.21715e-06
5.21653e-06
5.21504e-06
5.21357e-06
5.21265e-06
5.21237e-06
5.21268e-06
5.21351e-06
5.21482e-06
5.2164e-06
5.2181e-06
5.21981e-06
5.22146e-06
5.22303e-06
5.2245e-06
5.22588e-06
5.22718e-06
5.22838e-06
5.22949e-06
5.2305e-06
5.23141e-06
5.2322e-06
5.23286e-06
5.23349e-06
5.23336e-06
5.2073e-06
5.2111e-06
5.21393e-06
5.21368e-06
5.21447e-06
5.21608e-06
5.21666e-06
5.21584e-06
5.21435e-06
5.21305e-06
5.21235e-06
5.2123e-06
5.21283e-06
5.2139e-06
5.21538e-06
5.21708e-06
5.21883e-06
5.22056e-06
5.22221e-06
5.22377e-06
5.22524e-06
5.22663e-06
5.22794e-06
5.22917e-06
5.23032e-06
5.23138e-06
5.23234e-06
5.2332e-06
5.23394e-06
5.23454e-06
5.23511e-06
5.23495e-06
5.2072e-06
5.21131e-06
5.21386e-06
5.21348e-06
5.2144e-06
5.21585e-06
5.21616e-06
5.21517e-06
5.21373e-06
5.21261e-06
5.21214e-06
5.21231e-06
5.21306e-06
5.21435e-06
5.21598e-06
5.21775e-06
5.21952e-06
5.22124e-06
5.22288e-06
5.22443e-06
5.2259e-06
5.2273e-06
5.22862e-06
5.22988e-06
5.23107e-06
5.23217e-06
5.23319e-06
5.23411e-06
5.23492e-06
5.23561e-06
5.23616e-06
5.23666e-06
5.23648e-06
5.20714e-06
5.21152e-06
5.21376e-06
5.21331e-06
5.21432e-06
5.21559e-06
5.21564e-06
5.21456e-06
5.2132e-06
5.21227e-06
5.212e-06
5.21238e-06
5.21336e-06
5.21484e-06
5.21657e-06
5.21838e-06
5.22016e-06
5.22187e-06
5.22348e-06
5.22502e-06
5.22649e-06
5.2279e-06
5.22924e-06
5.23053e-06
5.23175e-06
5.2329e-06
5.23397e-06
5.23495e-06
5.23582e-06
5.23659e-06
5.23722e-06
5.23772e-06
5.23815e-06
5.23794e-06
5.20711e-06
5.21172e-06
5.21364e-06
5.21318e-06
5.21423e-06
5.2153e-06
5.21514e-06
5.21399e-06
5.21274e-06
5.212e-06
5.21194e-06
5.21253e-06
5.21372e-06
5.21534e-06
5.21715e-06
5.21898e-06
5.22074e-06
5.22243e-06
5.22403e-06
5.22556e-06
5.22703e-06
5.22844e-06
5.2298e-06
5.23111e-06
5.23236e-06
5.23355e-06
5.23467e-06
5.2357e-06
5.23664e-06
5.23748e-06
5.23819e-06
5.23877e-06
5.23921e-06
5.23957e-06
5.23935e-06
5.20713e-06
5.21191e-06
5.21351e-06
5.21308e-06
5.21412e-06
5.21499e-06
5.21464e-06
5.21347e-06
5.21234e-06
5.21179e-06
5.21194e-06
5.21273e-06
5.21413e-06
5.21585e-06
5.2177e-06
5.21952e-06
5.22127e-06
5.22293e-06
5.22451e-06
5.22604e-06
5.22751e-06
5.22893e-06
5.2303e-06
5.23163e-06
5.23291e-06
5.23413e-06
5.23529e-06
5.23638e-06
5.23737e-06
5.23828e-06
5.23907e-06
5.23973e-06
5.24026e-06
5.24064e-06
5.24092e-06
5.24069e-06
5.20719e-06
5.2121e-06
5.21337e-06
5.213e-06
5.21399e-06
5.21467e-06
5.21417e-06
5.213e-06
5.21201e-06
5.21165e-06
5.21199e-06
5.21299e-06
5.21454e-06
5.21635e-06
5.21821e-06
5.22002e-06
5.22174e-06
5.22338e-06
5.22495e-06
5.22647e-06
5.22794e-06
5.22937e-06
5.23075e-06
5.2321e-06
5.2334e-06
5.23465e-06
5.23585e-06
5.23697e-06
5.23803e-06
5.23899e-06
5.23985e-06
5.2406e-06
5.24121e-06
5.24168e-06
5.242e-06
5.24221e-06
5.24197e-06
5.20729e-06
5.21227e-06
5.21322e-06
5.21292e-06
5.21385e-06
5.21434e-06
5.21372e-06
5.21259e-06
5.21174e-06
5.21157e-06
5.2121e-06
5.2133e-06
5.21497e-06
5.21683e-06
5.21869e-06
5.22047e-06
5.22217e-06
5.22379e-06
5.22534e-06
5.22685e-06
5.22833e-06
5.22976e-06
5.23116e-06
5.23252e-06
5.23384e-06
5.23511e-06
5.23633e-06
5.2375e-06
5.2386e-06
5.23962e-06
5.24054e-06
5.24137e-06
5.24207e-06
5.24263e-06
5.24304e-06
5.2433e-06
5.24343e-06
5.24318e-06
5.20743e-06
5.21242e-06
5.21307e-06
5.21282e-06
5.21368e-06
5.21401e-06
5.21329e-06
5.21222e-06
5.21153e-06
5.21153e-06
5.21225e-06
5.21363e-06
5.2154e-06
5.21728e-06
5.21912e-06
5.22088e-06
5.22255e-06
5.22415e-06
5.2257e-06
5.2272e-06
5.22867e-06
5.23011e-06
5.23151e-06
5.23288e-06
5.23422e-06
5.23551e-06
5.23676e-06
5.23795e-06
5.23909e-06
5.24016e-06
5.24115e-06
5.24204e-06
5.24282e-06
5.24348e-06
5.24399e-06
5.24434e-06
5.24453e-06
5.24459e-06
5.24434e-06
5.20763e-06
5.21256e-06
5.21291e-06
5.21272e-06
5.21351e-06
5.21368e-06
5.2129e-06
5.2119e-06
5.21136e-06
5.21154e-06
5.21244e-06
5.21398e-06
5.21582e-06
5.2177e-06
5.21952e-06
5.22125e-06
5.22289e-06
5.22448e-06
5.22602e-06
5.22752e-06
5.22899e-06
5.23042e-06
5.23183e-06
5.23321e-06
5.23455e-06
5.23585e-06
5.23712e-06
5.23834e-06
5.23952e-06
5.24063e-06
5.24167e-06
5.24263e-06
5.24349e-06
5.24423e-06
5.24483e-06
5.24529e-06
5.24558e-06
5.2457e-06
5.24567e-06
5.24544e-06
5.20794e-06
5.21267e-06
5.21276e-06
5.21262e-06
5.21332e-06
5.21335e-06
5.21254e-06
5.21162e-06
5.21123e-06
5.21158e-06
5.21267e-06
5.21434e-06
5.21621e-06
5.21809e-06
5.21988e-06
5.22158e-06
5.2232e-06
5.22477e-06
5.2263e-06
5.2278e-06
5.22926e-06
5.2307e-06
5.23211e-06
5.23348e-06
5.23483e-06
5.23615e-06
5.23743e-06
5.23868e-06
5.23988e-06
5.24103e-06
5.24212e-06
5.24313e-06
5.24406e-06
5.24488e-06
5.24557e-06
5.24613e-06
5.24653e-06
5.24675e-06
5.24681e-06
5.24669e-06
5.24647e-06
5.20826e-06
5.21276e-06
5.2126e-06
5.21251e-06
5.21313e-06
5.21304e-06
5.21221e-06
5.21139e-06
5.21115e-06
5.21167e-06
5.21294e-06
5.21469e-06
5.21658e-06
5.21844e-06
5.2202e-06
5.22187e-06
5.22348e-06
5.22504e-06
5.22656e-06
5.22805e-06
5.22951e-06
5.23094e-06
5.23235e-06
5.23372e-06
5.23507e-06
5.2364e-06
5.23769e-06
5.23895e-06
5.24018e-06
5.24136e-06
5.24248e-06
5.24355e-06
5.24454e-06
5.24543e-06
5.24622e-06
5.24687e-06
5.24737e-06
5.24771e-06
5.24786e-06
5.24785e-06
5.24764e-06
5.24744e-06
5.20856e-06
5.21283e-06
5.21246e-06
5.2124e-06
5.21293e-06
5.21274e-06
5.21191e-06
5.21119e-06
5.2111e-06
5.21178e-06
5.21321e-06
5.21503e-06
5.21693e-06
5.21876e-06
5.22049e-06
5.22214e-06
5.22373e-06
5.22528e-06
5.22679e-06
5.22827e-06
5.22972e-06
5.23115e-06
5.23255e-06
5.23393e-06
5.23528e-06
5.2366e-06
5.2379e-06
5.23918e-06
5.24042e-06
5.24162e-06
5.24278e-06
5.24389e-06
5.24493e-06
5.2459e-06
5.24676e-06
5.2475e-06
5.24811e-06
5.24855e-06
5.24883e-06
5.24891e-06
5.24883e-06
5.24852e-06
5.24835e-06
5.20876e-06
5.21286e-06
5.21232e-06
5.21229e-06
5.21273e-06
5.21246e-06
5.21164e-06
5.21102e-06
5.21108e-06
5.21193e-06
5.2135e-06
5.21536e-06
5.21724e-06
5.21904e-06
5.22075e-06
5.22238e-06
5.22395e-06
5.22549e-06
5.22699e-06
5.22846e-06
5.22991e-06
5.23133e-06
5.23272e-06
5.2341e-06
5.23544e-06
5.23677e-06
5.23807e-06
5.23936e-06
5.24061e-06
5.24183e-06
5.24302e-06
5.24416e-06
5.24525e-06
5.24627e-06
5.24721e-06
5.24804e-06
5.24874e-06
5.24929e-06
5.24968e-06
5.24988e-06
5.24989e-06
5.24973e-06
5.24933e-06
5.2492e-06
5.20896e-06
5.21287e-06
5.21219e-06
5.21218e-06
5.21253e-06
5.21219e-06
5.2114e-06
5.21089e-06
5.21109e-06
5.21211e-06
5.21378e-06
5.21566e-06
5.21753e-06
5.2193e-06
5.22098e-06
5.22259e-06
5.22415e-06
5.22568e-06
5.22717e-06
5.22863e-06
5.23007e-06
5.23148e-06
5.23287e-06
5.23423e-06
5.23558e-06
5.2369e-06
5.23821e-06
5.23949e-06
5.24075e-06
5.24199e-06
5.2432e-06
5.24437e-06
5.2455e-06
5.24656e-06
5.24756e-06
5.24847e-06
5.24926e-06
5.24992e-06
5.25042e-06
5.25075e-06
5.25088e-06
5.25081e-06
5.25057e-06
5.25007e-06
5.24999e-06
5.20914e-06
5.21287e-06
5.21207e-06
5.21206e-06
5.21234e-06
5.21194e-06
5.21119e-06
5.21079e-06
5.21113e-06
5.21231e-06
5.21405e-06
5.21595e-06
5.21779e-06
5.21954e-06
5.22119e-06
5.22278e-06
5.22433e-06
5.22585e-06
5.22733e-06
5.22878e-06
5.23021e-06
5.23161e-06
5.23299e-06
5.23434e-06
5.23568e-06
5.237e-06
5.2383e-06
5.23959e-06
5.24085e-06
5.2421e-06
5.24332e-06
5.24452e-06
5.24567e-06
5.24678e-06
5.24783e-06
5.24881e-06
5.24968e-06
5.25044e-06
5.25105e-06
5.2515e-06
5.25176e-06
5.25182e-06
5.25166e-06
5.25134e-06
5.25073e-06
5.25072e-06
5.20931e-06
5.21285e-06
5.21196e-06
5.21194e-06
5.21214e-06
5.21171e-06
5.211e-06
5.21071e-06
5.2112e-06
5.21253e-06
5.21432e-06
5.21621e-06
5.21803e-06
5.21975e-06
5.22138e-06
5.22296e-06
5.22449e-06
5.22599e-06
5.22746e-06
5.2289e-06
5.23032e-06
5.23171e-06
5.23308e-06
5.23443e-06
5.23576e-06
5.23707e-06
5.23837e-06
5.23965e-06
5.24092e-06
5.24217e-06
5.2434e-06
5.24461e-06
5.24579e-06
5.24693e-06
5.24802e-06
5.24905e-06
5.25e-06
5.25085e-06
5.25157e-06
5.25213e-06
5.25252e-06
5.25271e-06
5.25269e-06
5.25245e-06
5.25204e-06
5.25132e-06
5.25138e-06
5.20946e-06
5.21282e-06
5.21186e-06
5.21183e-06
5.21196e-06
5.21149e-06
5.21084e-06
5.21066e-06
5.21129e-06
5.21274e-06
5.21458e-06
5.21645e-06
5.21824e-06
5.21993e-06
5.22155e-06
5.22311e-06
5.22463e-06
5.22612e-06
5.22758e-06
5.22901e-06
5.23041e-06
5.23179e-06
5.23314e-06
5.23448e-06
5.2358e-06
5.23711e-06
5.2384e-06
5.23968e-06
5.24095e-06
5.2422e-06
5.24343e-06
5.24465e-06
5.24585e-06
5.24702e-06
5.24814e-06
5.24922e-06
5.25023e-06
5.25116e-06
5.25197e-06
5.25265e-06
5.25316e-06
5.25348e-06
5.2536e-06
5.25349e-06
5.25316e-06
5.25267e-06
5.25183e-06
5.25199e-06
5.20961e-06
5.21279e-06
5.21177e-06
5.21171e-06
5.21178e-06
5.2113e-06
5.2107e-06
5.21063e-06
5.2114e-06
5.21295e-06
5.21481e-06
5.21667e-06
5.21843e-06
5.2201e-06
5.2217e-06
5.22325e-06
5.22476e-06
5.22623e-06
5.22768e-06
5.22909e-06
5.23048e-06
5.23185e-06
5.23319e-06
5.23452e-06
5.23583e-06
5.23713e-06
5.23841e-06
5.23968e-06
5.24094e-06
5.24219e-06
5.24343e-06
5.24465e-06
5.24586e-06
5.24704e-06
5.2482e-06
5.24931e-06
5.25037e-06
5.25137e-06
5.25226e-06
5.25304e-06
5.25368e-06
5.25413e-06
5.25439e-06
5.25442e-06
5.25422e-06
5.2538e-06
5.25321e-06
5.25229e-06
5.25255e-06
5.20974e-06
5.21274e-06
5.21168e-06
5.21158e-06
5.21161e-06
5.21112e-06
5.21058e-06
5.21062e-06
5.21153e-06
5.21316e-06
5.21503e-06
5.21687e-06
5.21861e-06
5.22025e-06
5.22183e-06
5.22337e-06
5.22486e-06
5.22633e-06
5.22776e-06
5.22916e-06
5.23053e-06
5.23189e-06
5.23322e-06
5.23453e-06
5.23583e-06
5.23712e-06
5.23839e-06
5.23966e-06
5.24091e-06
5.24216e-06
5.24339e-06
5.24462e-06
5.24583e-06
5.24702e-06
5.24819e-06
5.24934e-06
5.25044e-06
5.25149e-06
5.25246e-06
5.25333e-06
5.25407e-06
5.25466e-06
5.25505e-06
5.25523e-06
5.25518e-06
5.25489e-06
5.25436e-06
5.25372e-06
5.25276e-06
5.2531e-06
5.20987e-06
5.21269e-06
5.21159e-06
5.21146e-06
5.21144e-06
5.21096e-06
5.21048e-06
5.21063e-06
5.21167e-06
5.21337e-06
5.21524e-06
5.21705e-06
5.21876e-06
5.22039e-06
5.22195e-06
5.22347e-06
5.22495e-06
5.2264e-06
5.22782e-06
5.22921e-06
5.23057e-06
5.23191e-06
5.23323e-06
5.23453e-06
5.23582e-06
5.23709e-06
5.23835e-06
5.23961e-06
5.24085e-06
5.24209e-06
5.24332e-06
5.24454e-06
5.24575e-06
5.24696e-06
5.24814e-06
5.2493e-06
5.25044e-06
5.25153e-06
5.25256e-06
5.25351e-06
5.25435e-06
5.25505e-06
5.25559e-06
5.25592e-06
5.25602e-06
5.25588e-06
5.25549e-06
5.25486e-06
5.25423e-06
5.25325e-06
5.25365e-06
5.20999e-06
5.21263e-06
5.2115e-06
5.21135e-06
5.21129e-06
5.21081e-06
5.2104e-06
5.21065e-06
5.21183e-06
5.21356e-06
5.21542e-06
5.21721e-06
5.2189e-06
5.2205e-06
5.22206e-06
5.22356e-06
5.22503e-06
5.22646e-06
5.22787e-06
5.22924e-06
5.23059e-06
5.23191e-06
5.23322e-06
5.23451e-06
5.23578e-06
5.23704e-06
5.2383e-06
5.23954e-06
5.24077e-06
5.242e-06
5.24322e-06
5.24444e-06
5.24565e-06
5.24685e-06
5.24804e-06
5.24922e-06
5.25037e-06
5.25149e-06
5.25257e-06
5.25359e-06
5.25451e-06
5.25532e-06
5.25599e-06
5.25647e-06
5.25673e-06
5.25675e-06
5.2565e-06
5.256e-06
5.25535e-06
5.25476e-06
5.25377e-06
5.25422e-06
5.2101e-06
5.21256e-06
5.2114e-06
5.21123e-06
5.21115e-06
5.21068e-06
5.21033e-06
5.2107e-06
5.21198e-06
5.21374e-06
5.21559e-06
5.21735e-06
5.21902e-06
5.22061e-06
5.22214e-06
5.22364e-06
5.22509e-06
5.22651e-06
5.2279e-06
5.22926e-06
5.23059e-06
5.2319e-06
5.2332e-06
5.23447e-06
5.23573e-06
5.23698e-06
5.23822e-06
5.23945e-06
5.24067e-06
5.24189e-06
5.2431e-06
5.24431e-06
5.24551e-06
5.24671e-06
5.2479e-06
5.24908e-06
5.25025e-06
5.2514e-06
5.25251e-06
5.25358e-06
5.25458e-06
5.25548e-06
5.25626e-06
5.25688e-06
5.2573e-06
5.25748e-06
5.25741e-06
5.25707e-06
5.25647e-06
5.25586e-06
5.25531e-06
5.25431e-06
5.25479e-06
5.2102e-06
5.21249e-06
5.21129e-06
5.21111e-06
5.21102e-06
5.21056e-06
5.21028e-06
5.21075e-06
5.21213e-06
5.21391e-06
5.21573e-06
5.21748e-06
5.21912e-06
5.2207e-06
5.22222e-06
5.2237e-06
5.22514e-06
5.22655e-06
5.22792e-06
5.22927e-06
5.23058e-06
5.23188e-06
5.23316e-06
5.23442e-06
5.23567e-06
5.2369e-06
5.23813e-06
5.23934e-06
5.24056e-06
5.24176e-06
5.24296e-06
5.24416e-06
5.24535e-06
5.24654e-06
5.24773e-06
5.24891e-06
5.25008e-06
5.25125e-06
5.25239e-06
5.25349e-06
5.25455e-06
5.25553e-06
5.25641e-06
5.25715e-06
5.25772e-06
5.25808e-06
5.25818e-06
5.25801e-06
5.25754e-06
5.25695e-06
5.25639e-06
5.25589e-06
5.25489e-06
5.25538e-06
5.21029e-06
5.21241e-06
5.21119e-06
5.211e-06
5.2109e-06
5.21046e-06
5.21024e-06
5.21082e-06
5.21227e-06
5.21406e-06
5.21587e-06
5.21759e-06
5.21922e-06
5.22078e-06
5.22229e-06
5.22375e-06
5.22518e-06
5.22657e-06
5.22793e-06
5.22926e-06
5.23056e-06
5.23185e-06
5.23311e-06
5.23436e-06
5.23559e-06
5.23681e-06
5.23802e-06
5.23922e-06
5.24042e-06
5.24161e-06
5.2428e-06
5.24398e-06
5.24516e-06
5.24635e-06
5.24753e-06
5.2487e-06
5.24988e-06
5.25105e-06
5.2522e-06
5.25334e-06
5.25444e-06
5.25548e-06
5.25645e-06
5.2573e-06
5.25801e-06
5.25852e-06
5.25881e-06
5.25882e-06
5.25855e-06
5.25798e-06
5.25745e-06
5.25695e-06
5.2565e-06
5.2555e-06
5.25599e-06
5.21038e-06
5.21233e-06
5.21108e-06
5.2109e-06
5.21079e-06
5.21037e-06
5.21022e-06
5.21091e-06
5.21241e-06
5.2142e-06
5.21599e-06
5.21769e-06
5.2193e-06
5.22085e-06
5.22234e-06
5.22379e-06
5.2252e-06
5.22658e-06
5.22792e-06
5.22924e-06
5.23053e-06
5.2318e-06
5.23305e-06
5.23428e-06
5.2355e-06
5.2367e-06
5.2379e-06
5.23909e-06
5.24027e-06
5.24145e-06
5.24262e-06
5.24379e-06
5.24496e-06
5.24613e-06
5.2473e-06
5.24847e-06
5.24964e-06
5.25081e-06
5.25197e-06
5.25313e-06
5.25426e-06
5.25535e-06
5.25638e-06
5.25733e-06
5.25815e-06
5.25882e-06
5.25928e-06
5.25949e-06
5.25941e-06
5.25901e-06
5.25843e-06
5.25797e-06
5.25753e-06
5.25714e-06
5.25613e-06
5.25662e-06
5.21046e-06
5.21225e-06
5.21098e-06
5.2108e-06
5.21069e-06
5.21029e-06
5.21021e-06
5.211e-06
5.21254e-06
5.21432e-06
5.21609e-06
5.21777e-06
5.21937e-06
5.2209e-06
5.22238e-06
5.22382e-06
5.22522e-06
5.22658e-06
5.22791e-06
5.22921e-06
5.23049e-06
5.23174e-06
5.23297e-06
5.23419e-06
5.23539e-06
5.23659e-06
5.23777e-06
5.23894e-06
5.24011e-06
5.24127e-06
5.24243e-06
5.24358e-06
5.24474e-06
5.24589e-06
5.24705e-06
5.24821e-06
5.24937e-06
5.25054e-06
5.2517e-06
5.25286e-06
5.25401e-06
5.25514e-06
5.25623e-06
5.25725e-06
5.25818e-06
5.25897e-06
5.25959e-06
5.25999e-06
5.26011e-06
5.25993e-06
5.25941e-06
5.2589e-06
5.25852e-06
5.25815e-06
5.25781e-06
5.2568e-06
5.25727e-06
5.21053e-06
5.21216e-06
5.21087e-06
5.2107e-06
5.2106e-06
5.21023e-06
5.21021e-06
5.21109e-06
5.21266e-06
5.21443e-06
5.21619e-06
5.21785e-06
5.21943e-06
5.22095e-06
5.22241e-06
5.22384e-06
5.22522e-06
5.22657e-06
5.22789e-06
5.22917e-06
5.23043e-06
5.23167e-06
5.23289e-06
5.23409e-06
5.23528e-06
5.23646e-06
5.23763e-06
5.23879e-06
5.23994e-06
5.24108e-06
5.24223e-06
5.24337e-06
5.2445e-06
5.24564e-06
5.24679e-06
5.24793e-06
5.24908e-06
5.25024e-06
5.2514e-06
5.25256e-06
5.25372e-06
5.25487e-06
5.25599e-06
5.25708e-06
5.25809e-06
5.25899e-06
5.25976e-06
5.26033e-06
5.26065e-06
5.26068e-06
5.26039e-06
5.25982e-06
5.2594e-06
5.2591e-06
5.25881e-06
5.25852e-06
5.2575e-06
5.25793e-06
5.21059e-06
5.21207e-06
5.21076e-06
5.21062e-06
5.21052e-06
5.21017e-06
5.21022e-06
5.21118e-06
5.21276e-06
5.21453e-06
5.21627e-06
5.21791e-06
5.21948e-06
5.22098e-06
5.22244e-06
5.22385e-06
5.22522e-06
5.22655e-06
5.22785e-06
5.22913e-06
5.23037e-06
5.2316e-06
5.2328e-06
5.23399e-06
5.23516e-06
5.23632e-06
5.23748e-06
5.23862e-06
5.23976e-06
5.24089e-06
5.24201e-06
5.24313e-06
5.24426e-06
5.24538e-06
5.24651e-06
5.24764e-06
5.24878e-06
5.24992e-06
5.25107e-06
5.25223e-06
5.25339e-06
5.25455e-06
5.2557e-06
5.25682e-06
5.2579e-06
5.25889e-06
5.25978e-06
5.2605e-06
5.26102e-06
5.26127e-06
5.26121e-06
5.26076e-06
5.26025e-06
5.25992e-06
5.25972e-06
5.2595e-06
5.25926e-06
5.25823e-06
5.25862e-06
5.21065e-06
5.21198e-06
5.21066e-06
5.21054e-06
5.21045e-06
5.21012e-06
5.21023e-06
5.21127e-06
5.21286e-06
5.21462e-06
5.21634e-06
5.21797e-06
5.21952e-06
5.22101e-06
5.22245e-06
5.22385e-06
5.2252e-06
5.22652e-06
5.22781e-06
5.22907e-06
5.2303e-06
5.23151e-06
5.2327e-06
5.23387e-06
5.23503e-06
5.23618e-06
5.23732e-06
5.23844e-06
5.23956e-06
5.24068e-06
5.24179e-06
5.2429e-06
5.244e-06
5.24511e-06
5.24622e-06
5.24733e-06
5.24845e-06
5.24958e-06
5.25072e-06
5.25187e-06
5.25303e-06
5.25419e-06
5.25535e-06
5.2565e-06
5.25762e-06
5.25869e-06
5.25967e-06
5.26053e-06
5.26122e-06
5.26168e-06
5.26184e-06
5.26167e-06
5.26113e-06
5.2607e-06
5.26048e-06
5.26038e-06
5.26024e-06
5.26005e-06
5.259e-06
5.25932e-06
5.21071e-06
5.21189e-06
5.21055e-06
5.21046e-06
5.21038e-06
5.21008e-06
5.21026e-06
5.21134e-06
5.21295e-06
5.21469e-06
5.2164e-06
5.21801e-06
5.21955e-06
5.22103e-06
5.22245e-06
5.22384e-06
5.22518e-06
5.22649e-06
5.22776e-06
5.22901e-06
5.23023e-06
5.23142e-06
5.2326e-06
5.23375e-06
5.2349e-06
5.23603e-06
5.23715e-06
5.23826e-06
5.23937e-06
5.24047e-06
5.24156e-06
5.24265e-06
5.24374e-06
5.24483e-06
5.24592e-06
5.24702e-06
5.24812e-06
5.24923e-06
5.25036e-06
5.25149e-06
5.25264e-06
5.25379e-06
5.25496e-06
5.25612e-06
5.25727e-06
5.25839e-06
5.25945e-06
5.26043e-06
5.26126e-06
5.2619e-06
5.26229e-06
5.26237e-06
5.26206e-06
5.26151e-06
5.26119e-06
5.26107e-06
5.26109e-06
5.26103e-06
5.26088e-06
5.2598e-06
5.26003e-06
5.21076e-06
5.21179e-06
5.21045e-06
5.21039e-06
5.21033e-06
5.21005e-06
5.21029e-06
5.21142e-06
5.21303e-06
5.21476e-06
5.21645e-06
5.21805e-06
5.21957e-06
5.22104e-06
5.22245e-06
5.22382e-06
5.22515e-06
5.22645e-06
5.22771e-06
5.22894e-06
5.23014e-06
5.23132e-06
5.23248e-06
5.23363e-06
5.23476e-06
5.23587e-06
5.23698e-06
5.23808e-06
5.23916e-06
5.24025e-06
5.24132e-06
5.2424e-06
5.24347e-06
5.24454e-06
5.24561e-06
5.24669e-06
5.24778e-06
5.24887e-06
5.24998e-06
5.2511e-06
5.25223e-06
5.25337e-06
5.25453e-06
5.2557e-06
5.25686e-06
5.25802e-06
5.25914e-06
5.2602e-06
5.26115e-06
5.26196e-06
5.26255e-06
5.26287e-06
5.26285e-06
5.26239e-06
5.26191e-06
5.2617e-06
5.26171e-06
5.26185e-06
5.26187e-06
5.26176e-06
5.26063e-06
5.26076e-06
5.2108e-06
5.21169e-06
5.21035e-06
5.21033e-06
5.21028e-06
5.21003e-06
5.21033e-06
5.21149e-06
5.21309e-06
5.21481e-06
5.21649e-06
5.21807e-06
5.21958e-06
5.22104e-06
5.22244e-06
5.2238e-06
5.22512e-06
5.2264e-06
5.22764e-06
5.22886e-06
5.23005e-06
5.23122e-06
5.23236e-06
5.23349e-06
5.23461e-06
5.23571e-06
5.2368e-06
5.23788e-06
5.23896e-06
5.24002e-06
5.24108e-06
5.24214e-06
5.24319e-06
5.24425e-06
5.2453e-06
5.24636e-06
5.24743e-06
5.2485e-06
5.24959e-06
5.25069e-06
5.2518e-06
5.25293e-06
5.25408e-06
5.25524e-06
5.25641e-06
5.25759e-06
5.25874e-06
5.25987e-06
5.26092e-06
5.26186e-06
5.26263e-06
5.26317e-06
5.2634e-06
5.26327e-06
5.26272e-06
5.26233e-06
5.26225e-06
5.2624e-06
5.26266e-06
5.26277e-06
5.26268e-06
5.2615e-06
5.2615e-06
5.21084e-06
5.21159e-06
5.21025e-06
5.21028e-06
5.21024e-06
5.21001e-06
5.21038e-06
5.21155e-06
5.21315e-06
5.21486e-06
5.21652e-06
5.21809e-06
5.21959e-06
5.22103e-06
5.22242e-06
5.22377e-06
5.22507e-06
5.22634e-06
5.22757e-06
5.22878e-06
5.22995e-06
5.23111e-06
5.23224e-06
5.23336e-06
5.23446e-06
5.23554e-06
5.23662e-06
5.23769e-06
5.23874e-06
5.23979e-06
5.24084e-06
5.24188e-06
5.24291e-06
5.24395e-06
5.24499e-06
5.24603e-06
5.24708e-06
5.24813e-06
5.2492e-06
5.25028e-06
5.25137e-06
5.25248e-06
5.25361e-06
5.25476e-06
5.25593e-06
5.25711e-06
5.25829e-06
5.25945e-06
5.26057e-06
5.26162e-06
5.26254e-06
5.26327e-06
5.26375e-06
5.2639e-06
5.26363e-06
5.26306e-06
5.26279e-06
5.26285e-06
5.26315e-06
5.26353e-06
5.26372e-06
5.26366e-06
5.2624e-06
5.26225e-06
5.21087e-06
5.21148e-06
5.21016e-06
5.21023e-06
5.21021e-06
5.21e-06
5.21041e-06
5.2116e-06
5.2132e-06
5.2149e-06
5.21654e-06
5.2181e-06
5.21959e-06
5.22102e-06
5.2224e-06
5.22373e-06
5.22502e-06
5.22628e-06
5.2275e-06
5.22869e-06
5.22985e-06
5.23099e-06
5.23211e-06
5.23321e-06
5.2343e-06
5.23537e-06
5.23644e-06
5.23749e-06
5.23853e-06
5.23956e-06
5.24059e-06
5.24161e-06
5.24263e-06
5.24365e-06
5.24467e-06
5.2457e-06
5.24672e-06
5.24776e-06
5.2488e-06
5.24986e-06
5.25093e-06
5.25202e-06
5.25313e-06
5.25427e-06
5.25542e-06
5.25659e-06
5.25778e-06
5.25897e-06
5.26014e-06
5.26126e-06
5.2623e-06
5.26319e-06
5.26389e-06
5.2643e-06
5.26435e-06
5.26392e-06
5.26342e-06
5.26328e-06
5.26349e-06
5.26395e-06
5.26446e-06
5.26473e-06
5.26469e-06
5.26334e-06
5.26301e-06
5.2109e-06
5.21137e-06
5.21007e-06
5.21019e-06
5.21018e-06
5.20999e-06
5.21045e-06
5.21164e-06
5.21324e-06
5.21493e-06
5.21656e-06
5.21811e-06
5.21958e-06
5.221e-06
5.22237e-06
5.22369e-06
5.22497e-06
5.22621e-06
5.22742e-06
5.2286e-06
5.22975e-06
5.23087e-06
5.23198e-06
5.23307e-06
5.23414e-06
5.2352e-06
5.23625e-06
5.23728e-06
5.23831e-06
5.23933e-06
5.24034e-06
5.24135e-06
5.24235e-06
5.24335e-06
5.24436e-06
5.24536e-06
5.24637e-06
5.24739e-06
5.24841e-06
5.24944e-06
5.25049e-06
5.25156e-06
5.25265e-06
5.25376e-06
5.25489e-06
5.25605e-06
5.25723e-06
5.25843e-06
5.25963e-06
5.2608e-06
5.26193e-06
5.26296e-06
5.26383e-06
5.26448e-06
5.26481e-06
5.26477e-06
5.26421e-06
5.26381e-06
5.26381e-06
5.26419e-06
5.26481e-06
5.26546e-06
5.26581e-06
5.26577e-06
5.26431e-06
5.26377e-06
5.21092e-06
5.21127e-06
5.20998e-06
5.21016e-06
5.21016e-06
5.20999e-06
5.21048e-06
5.21168e-06
5.21327e-06
5.21495e-06
5.21657e-06
5.2181e-06
5.21957e-06
5.22097e-06
5.22233e-06
5.22364e-06
5.22491e-06
5.22614e-06
5.22734e-06
5.2285e-06
5.22964e-06
5.23075e-06
5.23184e-06
5.23292e-06
5.23398e-06
5.23502e-06
5.23606e-06
5.23708e-06
5.23809e-06
5.23909e-06
5.24009e-06
5.24108e-06
5.24207e-06
5.24305e-06
5.24404e-06
5.24503e-06
5.24602e-06
5.24701e-06
5.24801e-06
5.24903e-06
5.25005e-06
5.2511e-06
5.25216e-06
5.25325e-06
5.25436e-06
5.2555e-06
5.25667e-06
5.25786e-06
5.25906e-06
5.26027e-06
5.26146e-06
5.26259e-06
5.2636e-06
5.26445e-06
5.26505e-06
5.2653e-06
5.26513e-06
5.26451e-06
5.26422e-06
5.26439e-06
5.26495e-06
5.26574e-06
5.26654e-06
5.26696e-06
5.2669e-06
5.26531e-06
5.26454e-06
5.21094e-06
5.21116e-06
5.2099e-06
5.21013e-06
5.21014e-06
5.20999e-06
5.2105e-06
5.21171e-06
5.2133e-06
5.21496e-06
5.21657e-06
5.2181e-06
5.21955e-06
5.22094e-06
5.22229e-06
5.22359e-06
5.22484e-06
5.22606e-06
5.22725e-06
5.2284e-06
5.22952e-06
5.23062e-06
5.2317e-06
5.23277e-06
5.23381e-06
5.23485e-06
5.23586e-06
5.23687e-06
5.23787e-06
5.23886e-06
5.23984e-06
5.24082e-06
5.24179e-06
5.24276e-06
5.24373e-06
5.24469e-06
5.24567e-06
5.24664e-06
5.24762e-06
5.24861e-06
5.24962e-06
5.25064e-06
5.25168e-06
5.25274e-06
5.25382e-06
5.25494e-06
5.25608e-06
5.25726e-06
5.25846e-06
5.25968e-06
5.2609e-06
5.2621e-06
5.26323e-06
5.26424e-06
5.26505e-06
5.26559e-06
5.26575e-06
5.26542e-06
5.26482e-06
5.26467e-06
5.26502e-06
5.26577e-06
5.26675e-06
5.26768e-06
5.26817e-06
5.26808e-06
5.26633e-06
5.26531e-06
5.21095e-06
5.21105e-06
5.20982e-06
5.21011e-06
5.21013e-06
5.20999e-06
5.21052e-06
5.21173e-06
5.21331e-06
5.21497e-06
5.21657e-06
5.21808e-06
5.21952e-06
5.22091e-06
5.22224e-06
5.22353e-06
5.22477e-06
5.22598e-06
5.22715e-06
5.22829e-06
5.22941e-06
5.2305e-06
5.23156e-06
5.23261e-06
5.23365e-06
5.23467e-06
5.23567e-06
5.23667e-06
5.23765e-06
5.23862e-06
5.23959e-06
5.24055e-06
5.24151e-06
5.24246e-06
5.24341e-06
5.24436e-06
5.24532e-06
5.24627e-06
5.24724e-06
5.24821e-06
5.24919e-06
5.25018e-06
5.25119e-06
5.25223e-06
5.25329e-06
5.25437e-06
5.25549e-06
5.25665e-06
5.25784e-06
5.25905e-06
5.26029e-06
5.26152e-06
5.26273e-06
5.26386e-06
5.26485e-06
5.26563e-06
5.2661e-06
5.26618e-06
5.26566e-06
5.26515e-06
5.26516e-06
5.2657e-06
5.26666e-06
5.26783e-06
5.26891e-06
5.26945e-06
5.26932e-06
5.26738e-06
5.26609e-06
5.21096e-06
5.21093e-06
5.20974e-06
5.2101e-06
5.21012e-06
5.21e-06
5.21054e-06
5.21174e-06
5.21332e-06
5.21497e-06
5.21656e-06
5.21806e-06
5.21949e-06
5.22087e-06
5.22219e-06
5.22347e-06
5.2247e-06
5.2259e-06
5.22706e-06
5.22819e-06
5.22929e-06
5.23036e-06
5.23142e-06
5.23246e-06
5.23348e-06
5.23448e-06
5.23548e-06
5.23646e-06
5.23743e-06
5.23839e-06
5.23934e-06
5.24029e-06
5.24123e-06
5.24217e-06
5.2431e-06
5.24404e-06
5.24497e-06
5.24591e-06
5.24685e-06
5.2478e-06
5.24876e-06
5.24973e-06
5.25072e-06
5.25173e-06
5.25276e-06
5.25381e-06
5.25491e-06
5.25603e-06
5.2572e-06
5.2584e-06
5.25963e-06
5.26088e-06