/*--------------------------------*- C++ -*----------------------------------*\
  =========                 |
  \\      /  F ield         | OpenFOAM: The Open Source CFD Toolbox
   \\    /   O peration     | Website:  https://openfoam.org
    \\  /    A nd           | Version:  7
     \\/     M anipulation  |
\*---------------------------------------------------------------------------*/
FoamFile
{
    version     2.0;
    format      ascii;
    class       volScalarField;
    location    "800";
    object      nuTilda;
}
// * * * * * * * * * * * * * * * * * * * * * * * * * * * * * * * * * * * * * //

dimensions      [0 2 -1 0 0 0 0];

internalField   nonuniform List<scalar> 
23117
(
3.43432e-05
3.43388e-05
3.43642e-05
3.43384e-05
3.43606e-05
3.43751e-05
3.4337e-05
3.4359e-05
3.43703e-05
3.43753e-05
3.43363e-05
3.4357e-05
3.43674e-05
3.43673e-05
3.43642e-05
3.43357e-05
3.43553e-05
3.43641e-05
3.43631e-05
3.43551e-05
3.43518e-05
3.43351e-05
3.43536e-05
3.43608e-05
3.43581e-05
3.43513e-05
3.43469e-05
3.43502e-05
3.43346e-05
3.43519e-05
3.43575e-05
3.43537e-05
3.43474e-05
3.43464e-05
3.435e-05
3.4354e-05
3.43342e-05
3.43502e-05
3.43542e-05
3.43496e-05
3.43447e-05
3.43459e-05
3.43502e-05
3.43527e-05
3.43541e-05
3.43337e-05
3.43484e-05
3.43509e-05
3.4346e-05
3.43429e-05
3.43459e-05
3.43499e-05
3.43513e-05
3.43512e-05
3.43543e-05
3.43333e-05
3.43466e-05
3.43477e-05
3.4343e-05
3.4342e-05
3.4346e-05
3.43492e-05
3.43497e-05
3.43504e-05
3.43547e-05
3.43613e-05
3.43328e-05
3.43447e-05
3.43447e-05
3.43407e-05
3.43418e-05
3.4346e-05
3.43482e-05
3.43482e-05
3.43501e-05
3.43561e-05
3.43639e-05
3.43701e-05
3.43324e-05
3.43428e-05
3.4342e-05
3.4339e-05
3.43417e-05
3.43458e-05
3.4347e-05
3.43471e-05
3.43507e-05
3.43575e-05
3.43648e-05
3.43707e-05
3.43741e-05
3.43319e-05
3.4341e-05
3.43396e-05
3.4338e-05
3.43418e-05
3.43453e-05
3.43457e-05
3.43465e-05
3.43515e-05
3.43587e-05
3.43652e-05
3.43691e-05
3.437e-05
3.43707e-05
3.43313e-05
3.43391e-05
3.43375e-05
3.43375e-05
3.4342e-05
3.43446e-05
3.43445e-05
3.43465e-05
3.43524e-05
3.43595e-05
3.43647e-05
3.4367e-05
3.43661e-05
3.4363e-05
3.43623e-05
3.43308e-05
3.43373e-05
3.43358e-05
3.43375e-05
3.4342e-05
3.43437e-05
3.43436e-05
3.43469e-05
3.43533e-05
3.43597e-05
3.43635e-05
3.4364e-05
3.43619e-05
3.43582e-05
3.43534e-05
3.43528e-05
3.43302e-05
3.43356e-05
3.43345e-05
3.43375e-05
3.43418e-05
3.43427e-05
3.4343e-05
3.43474e-05
3.4354e-05
3.43594e-05
3.43616e-05
3.43607e-05
3.43575e-05
3.43534e-05
3.43493e-05
3.4345e-05
3.4345e-05
3.43296e-05
3.4334e-05
3.43335e-05
3.43377e-05
3.43415e-05
3.43417e-05
3.43428e-05
3.4348e-05
3.43543e-05
3.43584e-05
3.43592e-05
3.43571e-05
3.43532e-05
3.4349e-05
3.43451e-05
3.43422e-05
3.43394e-05
3.43399e-05
3.4329e-05
3.43326e-05
3.4333e-05
3.43379e-05
3.4341e-05
3.43408e-05
3.43429e-05
3.43485e-05
3.43542e-05
3.4357e-05
3.43564e-05
3.43534e-05
3.43493e-05
3.43452e-05
3.43417e-05
3.43392e-05
3.43378e-05
3.43365e-05
3.43372e-05
3.43284e-05
3.43313e-05
3.43327e-05
3.4338e-05
3.43404e-05
3.43401e-05
3.43431e-05
3.43489e-05
3.43536e-05
3.43552e-05
3.43535e-05
3.43499e-05
3.43457e-05
3.43419e-05
3.43391e-05
3.43372e-05
3.43361e-05
3.43358e-05
3.43356e-05
3.43365e-05
3.43277e-05
3.43302e-05
3.43328e-05
3.43381e-05
3.43397e-05
3.43396e-05
3.43434e-05
3.4349e-05
3.43527e-05
3.43531e-05
3.43505e-05
3.43466e-05
3.43426e-05
3.43393e-05
3.4337e-05
3.43357e-05
3.43351e-05
3.43351e-05
3.43356e-05
3.43362e-05
3.43371e-05
3.43271e-05
3.43293e-05
3.4333e-05
3.43381e-05
3.43389e-05
3.43393e-05
3.43437e-05
3.43488e-05
3.43515e-05
3.43508e-05
3.43476e-05
3.43436e-05
3.43399e-05
3.43372e-05
3.43355e-05
3.43347e-05
3.43345e-05
3.4335e-05
3.43357e-05
3.43368e-05
3.43381e-05
3.43389e-05
3.43265e-05
3.43286e-05
3.43333e-05
3.4338e-05
3.43382e-05
3.43393e-05
3.43439e-05
3.43484e-05
3.435e-05
3.43484e-05
3.43449e-05
3.4341e-05
3.43378e-05
3.43356e-05
3.43344e-05
3.43341e-05
3.43344e-05
3.43352e-05
3.43363e-05
3.43378e-05
3.43393e-05
3.43411e-05
3.43418e-05
3.43259e-05
3.4328e-05
3.43336e-05
3.43377e-05
3.43375e-05
3.43393e-05
3.4344e-05
3.43478e-05
3.43483e-05
3.4346e-05
3.43424e-05
3.43387e-05
3.4336e-05
3.43344e-05
3.43337e-05
3.43339e-05
3.43346e-05
3.43358e-05
3.43374e-05
3.43392e-05
3.43411e-05
3.4343e-05
3.4345e-05
3.43455e-05
3.43253e-05
3.43277e-05
3.43338e-05
3.43374e-05
3.4337e-05
3.43393e-05
3.43439e-05
3.43469e-05
3.43466e-05
3.43438e-05
3.43401e-05
3.43369e-05
3.43347e-05
3.43336e-05
3.43334e-05
3.43339e-05
3.43351e-05
3.43368e-05
3.43388e-05
3.4341e-05
3.43432e-05
3.43454e-05
3.43474e-05
3.43494e-05
3.43497e-05
3.43247e-05
3.43276e-05
3.43341e-05
3.4337e-05
3.43365e-05
3.43394e-05
3.43437e-05
3.43458e-05
3.43448e-05
3.43416e-05
3.43381e-05
3.43353e-05
3.43337e-05
3.43331e-05
3.43333e-05
3.43343e-05
3.4336e-05
3.43381e-05
3.43405e-05
3.4343e-05
3.43455e-05
3.43478e-05
3.435e-05
3.43519e-05
3.43538e-05
3.43538e-05
3.43242e-05
3.43276e-05
3.43343e-05
3.43365e-05
3.43362e-05
3.43394e-05
3.43433e-05
3.43446e-05
3.43429e-05
3.43397e-05
3.43364e-05
3.43341e-05
3.43329e-05
3.43328e-05
3.43335e-05
3.4335e-05
3.43371e-05
3.43396e-05
3.43423e-05
3.4345e-05
3.43476e-05
3.43501e-05
3.43523e-05
3.43544e-05
3.43562e-05
3.43579e-05
3.43578e-05
3.43237e-05
3.43278e-05
3.43345e-05
3.4336e-05
3.4336e-05
3.43394e-05
3.43427e-05
3.43433e-05
3.43412e-05
3.43379e-05
3.4335e-05
3.43332e-05
3.43325e-05
3.43328e-05
3.4334e-05
3.43359e-05
3.43385e-05
3.43412e-05
3.43441e-05
3.4347e-05
3.43497e-05
3.43522e-05
3.43545e-05
3.43566e-05
3.43584e-05
3.43601e-05
3.43617e-05
3.43615e-05
3.43233e-05
3.43281e-05
3.43347e-05
3.43356e-05
3.43359e-05
3.43393e-05
3.43421e-05
3.4342e-05
3.43395e-05
3.43364e-05
3.43339e-05
3.43325e-05
3.43323e-05
3.4333e-05
3.43347e-05
3.43371e-05
3.43399e-05
3.43429e-05
3.43459e-05
3.43488e-05
3.43515e-05
3.43541e-05
3.43564e-05
3.43586e-05
3.43605e-05
3.43622e-05
3.43637e-05
3.43651e-05
3.43649e-05
3.43229e-05
3.43285e-05
3.43347e-05
3.43351e-05
3.43358e-05
3.43391e-05
3.43413e-05
3.43407e-05
3.4338e-05
3.4335e-05
3.43329e-05
3.4332e-05
3.43322e-05
3.43334e-05
3.43356e-05
3.43383e-05
3.43414e-05
3.43445e-05
3.43475e-05
3.43505e-05
3.43532e-05
3.43558e-05
3.43581e-05
3.43603e-05
3.43623e-05
3.43641e-05
3.43657e-05
3.43671e-05
3.43684e-05
3.43682e-05
3.43226e-05
3.43289e-05
3.43347e-05
3.43346e-05
3.43357e-05
3.43389e-05
3.43405e-05
3.43393e-05
3.43366e-05
3.43339e-05
3.43322e-05
3.43317e-05
3.43324e-05
3.4334e-05
3.43366e-05
3.43396e-05
3.43428e-05
3.4346e-05
3.43491e-05
3.4352e-05
3.43547e-05
3.43573e-05
3.43597e-05
3.43619e-05
3.4364e-05
3.43659e-05
3.43676e-05
3.43691e-05
3.43703e-05
3.43715e-05
3.43713e-05
3.43224e-05
3.43294e-05
3.43347e-05
3.43342e-05
3.43356e-05
3.43385e-05
3.43396e-05
3.43381e-05
3.43353e-05
3.43329e-05
3.43317e-05
3.43316e-05
3.43327e-05
3.43348e-05
3.43377e-05
3.43409e-05
3.43441e-05
3.43474e-05
3.43504e-05
3.43533e-05
3.43561e-05
3.43586e-05
3.43611e-05
3.43634e-05
3.43655e-05
3.43675e-05
3.43693e-05
3.43709e-05
3.43723e-05
3.43735e-05
3.43746e-05
3.43743e-05
3.43222e-05
3.43298e-05
3.43345e-05
3.43339e-05
3.43355e-05
3.43381e-05
3.43387e-05
3.43369e-05
3.43342e-05
3.43322e-05
3.43313e-05
3.43317e-05
3.43332e-05
3.43357e-05
3.43388e-05
3.43421e-05
3.43454e-05
3.43486e-05
3.43517e-05
3.43545e-05
3.43573e-05
3.43599e-05
3.43623e-05
3.43647e-05
3.43669e-05
3.4369e-05
3.43709e-05
3.43726e-05
3.43741e-05
3.43754e-05
3.43765e-05
3.43774e-05
3.43771e-05
3.43221e-05
3.43301e-05
3.43344e-05
3.43335e-05
3.43353e-05
3.43376e-05
3.43377e-05
3.43357e-05
3.43332e-05
3.43315e-05
3.43311e-05
3.43318e-05
3.43338e-05
3.43366e-05
3.43399e-05
3.43433e-05
3.43466e-05
3.43498e-05
3.43528e-05
3.43556e-05
3.43583e-05
3.4361e-05
3.43635e-05
3.43659e-05
3.43681e-05
3.43703e-05
3.43723e-05
3.43741e-05
3.43758e-05
3.43772e-05
3.43784e-05
3.43794e-05
3.43802e-05
3.43798e-05
3.4322e-05
3.43305e-05
3.43342e-05
3.43333e-05
3.43352e-05
3.43371e-05
3.43368e-05
3.43347e-05
3.43324e-05
3.4331e-05
3.4331e-05
3.43321e-05
3.43345e-05
3.43376e-05
3.4341e-05
3.43444e-05
3.43476e-05
3.43508e-05
3.43537e-05
3.43566e-05
3.43593e-05
3.43619e-05
3.43645e-05
3.43669e-05
3.43693e-05
3.43715e-05
3.43736e-05
3.43755e-05
3.43773e-05
3.43789e-05
3.43802e-05
3.43813e-05
3.43822e-05
3.43829e-05
3.43825e-05
3.4322e-05
3.43309e-05
3.4334e-05
3.43331e-05
3.4335e-05
3.43366e-05
3.43359e-05
3.43337e-05
3.43317e-05
3.43307e-05
3.4331e-05
3.43326e-05
3.43352e-05
3.43385e-05
3.4342e-05
3.43454e-05
3.43486e-05
3.43517e-05
3.43546e-05
3.43574e-05
3.43602e-05
3.43628e-05
3.43654e-05
3.43679e-05
3.43702e-05
3.43725e-05
3.43747e-05
3.43767e-05
3.43786e-05
3.43803e-05
3.43818e-05
3.43831e-05
3.43841e-05
3.43848e-05
3.43854e-05
3.4385e-05
3.43221e-05
3.43313e-05
3.43337e-05
3.4333e-05
3.43347e-05
3.4336e-05
3.4335e-05
3.43329e-05
3.43311e-05
3.43304e-05
3.43311e-05
3.43331e-05
3.4336e-05
3.43395e-05
3.43429e-05
3.43463e-05
3.43495e-05
3.43525e-05
3.43554e-05
3.43582e-05
3.4361e-05
3.43636e-05
3.43662e-05
3.43687e-05
3.43711e-05
3.43735e-05
3.43757e-05
3.43778e-05
3.43798e-05
3.43816e-05
3.43832e-05
3.43846e-05
3.43858e-05
3.43867e-05
3.43874e-05
3.43878e-05
3.43873e-05
3.43223e-05
3.43316e-05
3.43334e-05
3.43328e-05
3.43345e-05
3.43354e-05
3.43342e-05
3.43321e-05
3.43306e-05
3.43303e-05
3.43313e-05
3.43337e-05
3.43368e-05
3.43403e-05
3.43438e-05
3.43471e-05
3.43502e-05
3.43532e-05
3.43561e-05
3.43589e-05
3.43617e-05
3.43643e-05
3.43669e-05
3.43695e-05
3.43719e-05
3.43743e-05
3.43766e-05
3.43788e-05
3.43808e-05
3.43827e-05
3.43845e-05
3.4386e-05
3.43874e-05
3.43884e-05
3.43893e-05
3.43898e-05
3.43901e-05
3.43896e-05
3.43226e-05
3.43319e-05
3.43332e-05
3.43326e-05
3.43342e-05
3.43348e-05
3.43334e-05
3.43315e-05
3.43302e-05
3.43302e-05
3.43316e-05
3.43343e-05
3.43376e-05
3.43412e-05
3.43446e-05
3.43478e-05
3.43509e-05
3.43539e-05
3.43568e-05
3.43596e-05
3.43623e-05
3.4365e-05
3.43676e-05
3.43701e-05
3.43726e-05
3.4375e-05
3.43773e-05
3.43796e-05
3.43817e-05
3.43837e-05
3.43856e-05
3.43873e-05
3.43887e-05
3.439e-05
3.4391e-05
3.43917e-05
3.43921e-05
3.43922e-05
3.43918e-05
3.43229e-05
3.43321e-05
3.43329e-05
3.43325e-05
3.43339e-05
3.43342e-05
3.43327e-05
3.43309e-05
3.43299e-05
3.43302e-05
3.4332e-05
3.4335e-05
3.43384e-05
3.43419e-05
3.43453e-05
3.43485e-05
3.43515e-05
3.43545e-05
3.43573e-05
3.43601e-05
3.43629e-05
3.43655e-05
3.43681e-05
3.43707e-05
3.43732e-05
3.43756e-05
3.4378e-05
3.43803e-05
3.43825e-05
3.43845e-05
3.43865e-05
3.43883e-05
3.43899e-05
3.43913e-05
3.43925e-05
3.43934e-05
3.4394e-05
3.43942e-05
3.43942e-05
3.43938e-05
3.43235e-05
3.43324e-05
3.43326e-05
3.43323e-05
3.43335e-05
3.43336e-05
3.43321e-05
3.43304e-05
3.43297e-05
3.43303e-05
3.43325e-05
3.43356e-05
3.43391e-05
3.43426e-05
3.43459e-05
3.43491e-05
3.43521e-05
3.4355e-05
3.43579e-05
3.43606e-05
3.43634e-05
3.4366e-05
3.43686e-05
3.43712e-05
3.43737e-05
3.43761e-05
3.43785e-05
3.43809e-05
3.43831e-05
3.43852e-05
3.43873e-05
3.43892e-05
3.43909e-05
3.43925e-05
3.43938e-05
3.43949e-05
3.43957e-05
3.43961e-05
3.43963e-05
3.43961e-05
3.43957e-05
3.43241e-05
3.43326e-05
3.43323e-05
3.43321e-05
3.43332e-05
3.4333e-05
3.43315e-05
3.43299e-05
3.43295e-05
3.43305e-05
3.4333e-05
3.43363e-05
3.43398e-05
3.43433e-05
3.43465e-05
3.43496e-05
3.43526e-05
3.43555e-05
3.43583e-05
3.43611e-05
3.43638e-05
3.43664e-05
3.43691e-05
3.43716e-05
3.43741e-05
3.43766e-05
3.4379e-05
3.43813e-05
3.43836e-05
3.43858e-05
3.43879e-05
3.43899e-05
3.43918e-05
3.43935e-05
3.4395e-05
3.43962e-05
3.43972e-05
3.43979e-05
3.43982e-05
3.43982e-05
3.43979e-05
3.43975e-05
3.43247e-05
3.43327e-05
3.4332e-05
3.43319e-05
3.43328e-05
3.43325e-05
3.43309e-05
3.43296e-05
3.43294e-05
3.43307e-05
3.43335e-05
3.43369e-05
3.43404e-05
3.43438e-05
3.4347e-05
3.43501e-05
3.43531e-05
3.43559e-05
3.43587e-05
3.43615e-05
3.43642e-05
3.43668e-05
3.43694e-05
3.4372e-05
3.43745e-05
3.43769e-05
3.43794e-05
3.43817e-05
3.4384e-05
3.43863e-05
3.43885e-05
3.43905e-05
3.43925e-05
3.43943e-05
3.43959e-05
3.43974e-05
3.43985e-05
3.43994e-05
3.44e-05
3.44002e-05
3.44001e-05
3.43995e-05
3.43992e-05
3.4325e-05
3.43328e-05
3.43318e-05
3.43317e-05
3.43325e-05
3.43319e-05
3.43304e-05
3.43293e-05
3.43294e-05
3.4331e-05
3.4334e-05
3.43375e-05
3.4341e-05
3.43444e-05
3.43475e-05
3.43505e-05
3.43535e-05
3.43563e-05
3.43591e-05
3.43618e-05
3.43645e-05
3.43671e-05
3.43697e-05
3.43723e-05
3.43748e-05
3.43772e-05
3.43797e-05
3.4382e-05
3.43844e-05
3.43866e-05
3.43889e-05
3.4391e-05
3.4393e-05
3.4395e-05
3.43967e-05
3.43983e-05
3.43996e-05
3.44007e-05
3.44015e-05
3.44019e-05
3.4402e-05
3.44017e-05
3.4401e-05
3.44008e-05
3.43254e-05
3.43328e-05
3.43315e-05
3.43315e-05
3.43321e-05
3.43315e-05
3.433e-05
3.4329e-05
3.43294e-05
3.43314e-05
3.43345e-05
3.43381e-05
3.43415e-05
3.43448e-05
3.43479e-05
3.43509e-05
3.43538e-05
3.43566e-05
3.43594e-05
3.43621e-05
3.43648e-05
3.43674e-05
3.437e-05
3.43725e-05
3.4375e-05
3.43775e-05
3.43799e-05
3.43823e-05
3.43846e-05
3.43869e-05
3.43892e-05
3.43913e-05
3.43935e-05
3.43955e-05
3.43973e-05
3.43991e-05
3.44006e-05
3.44018e-05
3.44028e-05
3.44035e-05
3.44038e-05
3.44037e-05
3.44033e-05
3.44024e-05
3.44023e-05
3.43258e-05
3.43328e-05
3.43313e-05
3.43312e-05
3.43317e-05
3.4331e-05
3.43296e-05
3.43288e-05
3.43295e-05
3.43318e-05
3.43351e-05
3.43386e-05
3.4342e-05
3.43452e-05
3.43483e-05
3.43513e-05
3.43541e-05
3.43569e-05
3.43597e-05
3.43624e-05
3.4365e-05
3.43676e-05
3.43702e-05
3.43727e-05
3.43752e-05
3.43776e-05
3.438e-05
3.43824e-05
3.43848e-05
3.43871e-05
3.43894e-05
3.43916e-05
3.43937e-05
3.43958e-05
3.43978e-05
3.43996e-05
3.44013e-05
3.44028e-05
3.44039e-05
3.44048e-05
3.44054e-05
3.44055e-05
3.44053e-05
3.44047e-05
3.44037e-05
3.44036e-05
3.43261e-05
3.43328e-05
3.43311e-05
3.4331e-05
3.43314e-05
3.43306e-05
3.43292e-05
3.43287e-05
3.43296e-05
3.43322e-05
3.43356e-05
3.43391e-05
3.43424e-05
3.43456e-05
3.43487e-05
3.43516e-05
3.43544e-05
3.43572e-05
3.43599e-05
3.43626e-05
3.43652e-05
3.43678e-05
3.43703e-05
3.43728e-05
3.43753e-05
3.43777e-05
3.43801e-05
3.43825e-05
3.43849e-05
3.43872e-05
3.43895e-05
3.43917e-05
3.43939e-05
3.43961e-05
3.43981e-05
3.44001e-05
3.44018e-05
3.44035e-05
3.44048e-05
3.44059e-05
3.44067e-05
3.44071e-05
3.44071e-05
3.44068e-05
3.44061e-05
3.44048e-05
3.44049e-05
3.43264e-05
3.43327e-05
3.43309e-05
3.43308e-05
3.4331e-05
3.43302e-05
3.43289e-05
3.43286e-05
3.43298e-05
3.43326e-05
3.4336e-05
3.43395e-05
3.43428e-05
3.4346e-05
3.4349e-05
3.43519e-05
3.43547e-05
3.43574e-05
3.43601e-05
3.43628e-05
3.43654e-05
3.43679e-05
3.43704e-05
3.43729e-05
3.43754e-05
3.43778e-05
3.43802e-05
3.43825e-05
3.43849e-05
3.43872e-05
3.43895e-05
3.43918e-05
3.4394e-05
3.43962e-05
3.43983e-05
3.44003e-05
3.44022e-05
3.4404e-05
3.44055e-05
3.44068e-05
3.44078e-05
3.44085e-05
3.44088e-05
3.44086e-05
3.44081e-05
3.44072e-05
3.44057e-05
3.4406e-05
3.43267e-05
3.43327e-05
3.43307e-05
3.43306e-05
3.43307e-05
3.43298e-05
3.43287e-05
3.43286e-05
3.433e-05
3.4333e-05
3.43364e-05
3.43399e-05
3.43432e-05
3.43463e-05
3.43492e-05
3.43521e-05
3.43549e-05
3.43576e-05
3.43603e-05
3.43629e-05
3.43655e-05
3.4368e-05
3.43705e-05
3.4373e-05
3.43754e-05
3.43778e-05
3.43802e-05
3.43825e-05
3.43849e-05
3.43872e-05
3.43895e-05
3.43918e-05
3.4394e-05
3.43962e-05
3.43984e-05
3.44005e-05
3.44024e-05
3.44043e-05
3.4406e-05
3.44075e-05
3.44087e-05
3.44097e-05
3.44102e-05
3.44103e-05
3.441e-05
3.44093e-05
3.44082e-05
3.44066e-05
3.44071e-05
3.43269e-05
3.43326e-05
3.43306e-05
3.43304e-05
3.43304e-05
3.43295e-05
3.43285e-05
3.43285e-05
3.43303e-05
3.43334e-05
3.43368e-05
3.43403e-05
3.43435e-05
3.43465e-05
3.43495e-05
3.43523e-05
3.43551e-05
3.43578e-05
3.43604e-05
3.4363e-05
3.43656e-05
3.43681e-05
3.43705e-05
3.4373e-05
3.43754e-05
3.43778e-05
3.43801e-05
3.43825e-05
3.43848e-05
3.43871e-05
3.43894e-05
3.43917e-05
3.43939e-05
3.43961e-05
3.43983e-05
3.44005e-05
3.44025e-05
3.44045e-05
3.44063e-05
3.4408e-05
3.44094e-05
3.44106e-05
3.44114e-05
3.44118e-05
3.44117e-05
3.44113e-05
3.44104e-05
3.44092e-05
3.44074e-05
3.44081e-05
3.43271e-05
3.43325e-05
3.43304e-05
3.43302e-05
3.43301e-05
3.43292e-05
3.43283e-05
3.43286e-05
3.43306e-05
3.43337e-05
3.43372e-05
3.43406e-05
3.43437e-05
3.43468e-05
3.43497e-05
3.43525e-05
3.43552e-05
3.43579e-05
3.43605e-05
3.43631e-05
3.43656e-05
3.43681e-05
3.43705e-05
3.4373e-05
3.43753e-05
3.43777e-05
3.438e-05
3.43824e-05
3.43847e-05
3.4387e-05
3.43892e-05
3.43915e-05
3.43938e-05
3.4396e-05
3.43982e-05
3.44004e-05
3.44025e-05
3.44045e-05
3.44065e-05
3.44083e-05
3.44099e-05
3.44112e-05
3.44123e-05
3.4413e-05
3.44132e-05
3.4413e-05
3.44124e-05
3.44113e-05
3.44101e-05
3.44084e-05
3.44091e-05
3.43274e-05
3.43324e-05
3.43302e-05
3.43299e-05
3.43298e-05
3.43289e-05
3.43281e-05
3.43286e-05
3.43308e-05
3.43341e-05
3.43375e-05
3.43409e-05
3.4344e-05
3.4347e-05
3.43499e-05
3.43526e-05
3.43554e-05
3.4358e-05
3.43606e-05
3.43632e-05
3.43657e-05
3.43681e-05
3.43705e-05
3.43729e-05
3.43753e-05
3.43776e-05
3.43799e-05
3.43822e-05
3.43845e-05
3.43868e-05
3.4389e-05
3.43913e-05
3.43935e-05
3.43958e-05
3.4398e-05
3.44002e-05
3.44023e-05
3.44044e-05
3.44065e-05
3.44084e-05
3.44101e-05
3.44117e-05
3.4413e-05
3.44139e-05
3.44145e-05
3.44146e-05
3.44142e-05
3.44134e-05
3.44122e-05
3.44111e-05
3.44093e-05
3.44102e-05
3.43276e-05
3.43323e-05
3.43301e-05
3.43297e-05
3.43296e-05
3.43287e-05
3.4328e-05
3.43287e-05
3.43311e-05
3.43344e-05
3.43378e-05
3.43411e-05
3.43442e-05
3.43472e-05
3.435e-05
3.43528e-05
3.43555e-05
3.43581e-05
3.43607e-05
3.43632e-05
3.43656e-05
3.43681e-05
3.43705e-05
3.43728e-05
3.43752e-05
3.43775e-05
3.43798e-05
3.4382e-05
3.43843e-05
3.43865e-05
3.43888e-05
3.4391e-05
3.43933e-05
3.43955e-05
3.43977e-05
3.43999e-05
3.44021e-05
3.44042e-05
3.44063e-05
3.44083e-05
3.44102e-05
3.44119e-05
3.44134e-05
3.44146e-05
3.44155e-05
3.44159e-05
3.44158e-05
3.44153e-05
3.44142e-05
3.44131e-05
3.44121e-05
3.44104e-05
3.44113e-05
3.43278e-05
3.43321e-05
3.43299e-05
3.43295e-05
3.43293e-05
3.43285e-05
3.43279e-05
3.43288e-05
3.43314e-05
3.43347e-05
3.43381e-05
3.43413e-05
3.43444e-05
3.43473e-05
3.43501e-05
3.43529e-05
3.43555e-05
3.43581e-05
3.43607e-05
3.43632e-05
3.43656e-05
3.4368e-05
3.43704e-05
3.43727e-05
3.4375e-05
3.43773e-05
3.43796e-05
3.43818e-05
3.43841e-05
3.43863e-05
3.43885e-05
3.43907e-05
3.43929e-05
3.43951e-05
3.43973e-05
3.43995e-05
3.44017e-05
3.44039e-05
3.4406e-05
3.44081e-05
3.44101e-05
3.4412e-05
3.44136e-05
3.44151e-05
3.44162e-05
3.44169e-05
3.44172e-05
3.4417e-05
3.44162e-05
3.44151e-05
3.44141e-05
3.44132e-05
3.44114e-05
3.44124e-05
3.4328e-05
3.4332e-05
3.43297e-05
3.43293e-05
3.43291e-05
3.43283e-05
3.43279e-05
3.4329e-05
3.43317e-05
3.4335e-05
3.43383e-05
3.43415e-05
3.43446e-05
3.43475e-05
3.43502e-05
3.4353e-05
3.43556e-05
3.43582e-05
3.43607e-05
3.43632e-05
3.43656e-05
3.43679e-05
3.43703e-05
3.43726e-05
3.43749e-05
3.43771e-05
3.43794e-05
3.43816e-05
3.43838e-05
3.4386e-05
3.43882e-05
3.43904e-05
3.43926e-05
3.43948e-05
3.43969e-05
3.43991e-05
3.44013e-05
3.44035e-05
3.44057e-05
3.44078e-05
3.44098e-05
3.44118e-05
3.44137e-05
3.44153e-05
3.44167e-05
3.44177e-05
3.44183e-05
3.44184e-05
3.4418e-05
3.4417e-05
3.4416e-05
3.44151e-05
3.44143e-05
3.44126e-05
3.44135e-05
3.43281e-05
3.43318e-05
3.43295e-05
3.43291e-05
3.43289e-05
3.43281e-05
3.43278e-05
3.43291e-05
3.43319e-05
3.43352e-05
3.43386e-05
3.43417e-05
3.43447e-05
3.43476e-05
3.43503e-05
3.4353e-05
3.43556e-05
3.43582e-05
3.43607e-05
3.43631e-05
3.43655e-05
3.43678e-05
3.43701e-05
3.43724e-05
3.43747e-05
3.43769e-05
3.43791e-05
3.43813e-05
3.43835e-05
3.43857e-05
3.43878e-05
3.439e-05
3.43922e-05
3.43943e-05
3.43965e-05
3.43987e-05
3.44009e-05
3.4403e-05
3.44052e-05
3.44074e-05
3.44095e-05
3.44115e-05
3.44135e-05
3.44153e-05
3.44169e-05
3.44182e-05
3.44191e-05
3.44196e-05
3.44195e-05
3.44189e-05
3.44178e-05
3.4417e-05
3.44162e-05
3.44155e-05
3.44138e-05
3.44147e-05
3.43283e-05
3.43317e-05
3.43293e-05
3.43289e-05
3.43287e-05
3.4328e-05
3.43278e-05
3.43293e-05
3.43321e-05
3.43355e-05
3.43387e-05
3.43419e-05
3.43448e-05
3.43477e-05
3.43504e-05
3.43531e-05
3.43557e-05
3.43582e-05
3.43606e-05
3.4363e-05
3.43654e-05
3.43677e-05
3.437e-05
3.43723e-05
3.43745e-05
3.43767e-05
3.43789e-05
3.4381e-05
3.43832e-05
3.43853e-05
3.43875e-05
3.43896e-05
3.43917e-05
3.43939e-05
3.4396e-05
3.43982e-05
3.44003e-05
3.44025e-05
3.44047e-05
3.44068e-05
3.4409e-05
3.44111e-05
3.44131e-05
3.44151e-05
3.44169e-05
3.44184e-05
3.44196e-05
3.44204e-05
3.44208e-05
3.44205e-05
3.44196e-05
3.44187e-05
3.4418e-05
3.44173e-05
3.44168e-05
3.4415e-05
3.44159e-05
3.43284e-05
3.43315e-05
3.43291e-05
3.43288e-05
3.43286e-05
3.43278e-05
3.43278e-05
3.43295e-05
3.43324e-05
3.43356e-05
3.43389e-05
3.4342e-05
3.43449e-05
3.43477e-05
3.43505e-05
3.43531e-05
3.43557e-05
3.43582e-05
3.43606e-05
3.4363e-05
3.43653e-05
3.43676e-05
3.43698e-05
3.43721e-05
3.43743e-05
3.43764e-05
3.43786e-05
3.43807e-05
3.43829e-05
3.4385e-05
3.43871e-05
3.43892e-05
3.43913e-05
3.43934e-05
3.43955e-05
3.43976e-05
3.43998e-05
3.44019e-05
3.44041e-05
3.44062e-05
3.44084e-05
3.44106e-05
3.44127e-05
3.44147e-05
3.44166e-05
3.44184e-05
3.44198e-05
3.4421e-05
3.44217e-05
3.44218e-05
3.44214e-05
3.44204e-05
3.44196e-05
3.4419e-05
3.44185e-05
3.44181e-05
3.44164e-05
3.44172e-05
3.43285e-05
3.43313e-05
3.43289e-05
3.43286e-05
3.43284e-05
3.43277e-05
3.43278e-05
3.43296e-05
3.43325e-05
3.43358e-05
3.4339e-05
3.43421e-05
3.4345e-05
3.43478e-05
3.43505e-05
3.43531e-05
3.43556e-05
3.43581e-05
3.43605e-05
3.43629e-05
3.43652e-05
3.43674e-05
3.43697e-05
3.43719e-05
3.4374e-05
3.43762e-05
3.43783e-05
3.43804e-05
3.43825e-05
3.43846e-05
3.43867e-05
3.43887e-05
3.43908e-05
3.43929e-05
3.4395e-05
3.43971e-05
3.43992e-05
3.44013e-05
3.44034e-05
3.44056e-05
3.44078e-05
3.44099e-05
3.44121e-05
3.44142e-05
3.44162e-05
3.44181e-05
3.44198e-05
3.44212e-05
3.44223e-05
3.44228e-05
3.44228e-05
3.44221e-05
3.44212e-05
3.44205e-05
3.44202e-05
3.44198e-05
3.44195e-05
3.44177e-05
3.44185e-05
3.43286e-05
3.43312e-05
3.43287e-05
3.43284e-05
3.43283e-05
3.43276e-05
3.43278e-05
3.43298e-05
3.43327e-05
3.4336e-05
3.43392e-05
3.43422e-05
3.43451e-05
3.43478e-05
3.43505e-05
3.43531e-05
3.43556e-05
3.4358e-05
3.43604e-05
3.43628e-05
3.4365e-05
3.43673e-05
3.43695e-05
3.43716e-05
3.43738e-05
3.43759e-05
3.4378e-05
3.43801e-05
3.43821e-05
3.43842e-05
3.43862e-05
3.43883e-05
3.43903e-05
3.43924e-05
3.43944e-05
3.43965e-05
3.43986e-05
3.44007e-05
3.44028e-05
3.44049e-05
3.44071e-05
3.44092e-05
3.44114e-05
3.44136e-05
3.44157e-05
3.44177e-05
3.44196e-05
3.44212e-05
3.44226e-05
3.44235e-05
3.44239e-05
3.44237e-05
3.44228e-05
3.4422e-05
3.44215e-05
3.44214e-05
3.44212e-05
3.4421e-05
3.44192e-05
3.44198e-05
3.43287e-05
3.4331e-05
3.43285e-05
3.43283e-05
3.43282e-05
3.43276e-05
3.43279e-05
3.43299e-05
3.43329e-05
3.43361e-05
3.43393e-05
3.43423e-05
3.43451e-05
3.43479e-05
3.43505e-05
3.43531e-05
3.43556e-05
3.4358e-05
3.43603e-05
3.43626e-05
3.43649e-05
3.43671e-05
3.43693e-05
3.43714e-05
3.43735e-05
3.43756e-05
3.43777e-05
3.43797e-05
3.43818e-05
3.43838e-05
3.43858e-05
3.43878e-05
3.43898e-05
3.43918e-05
3.43939e-05
3.43959e-05
3.43979e-05
3.44e-05
3.44021e-05
3.44042e-05
3.44063e-05
3.44085e-05
3.44106e-05
3.44128e-05
3.4415e-05
3.44171e-05
3.44191e-05
3.4421e-05
3.44226e-05
3.44239e-05
3.44247e-05
3.44249e-05
3.44245e-05
3.44235e-05
3.44228e-05
3.44226e-05
3.44227e-05
3.44227e-05
3.44225e-05
3.44207e-05
3.44212e-05
3.43288e-05
3.43308e-05
3.43283e-05
3.43282e-05
3.43281e-05
3.43275e-05
3.4328e-05
3.433e-05
3.4333e-05
3.43362e-05
3.43393e-05
3.43423e-05
3.43452e-05
3.43479e-05
3.43505e-05
3.4353e-05
3.43555e-05
3.43579e-05
3.43602e-05
3.43625e-05
3.43647e-05
3.43669e-05
3.4369e-05
3.43712e-05
3.43732e-05
3.43753e-05
3.43773e-05
3.43794e-05
3.43814e-05
3.43834e-05
3.43854e-05
3.43873e-05
3.43893e-05
3.43913e-05
3.43933e-05
3.43953e-05
3.43973e-05
3.43993e-05
3.44014e-05
3.44034e-05
3.44055e-05
3.44077e-05
3.44098e-05
3.4412e-05
3.44142e-05
3.44164e-05
3.44185e-05
3.44205e-05
3.44223e-05
3.44239e-05
3.44251e-05
3.44258e-05
3.44258e-05
3.44251e-05
3.44242e-05
3.44238e-05
3.44238e-05
3.44241e-05
3.44242e-05
3.44242e-05
3.44223e-05
3.44226e-05
3.43289e-05
3.43306e-05
3.43281e-05
3.43281e-05
3.4328e-05
3.43275e-05
3.4328e-05
3.43301e-05
3.43331e-05
3.43363e-05
3.43394e-05
3.43424e-05
3.43452e-05
3.43479e-05
3.43505e-05
3.4353e-05
3.43554e-05
3.43578e-05
3.43601e-05
3.43623e-05
3.43645e-05
3.43667e-05
3.43688e-05
3.43709e-05
3.4373e-05
3.4375e-05
3.4377e-05
3.4379e-05
3.4381e-05
3.4383e-05
3.43849e-05
3.43869e-05
3.43888e-05
3.43908e-05
3.43927e-05
3.43947e-05
3.43966e-05
3.43986e-05
3.44006e-05
3.44027e-05
3.44047e-05
3.44068e-05
3.4409e-05
3.44111e-05
3.44133e-05
3.44155e-05
3.44177e-05
3.44198e-05
3.44218e-05
3.44236e-05
3.44251e-05
3.44262e-05
3.44268e-05
3.44267e-05
3.44257e-05
3.4425e-05
3.44248e-05
3.44251e-05
3.44256e-05
3.44259e-05
3.44259e-05
3.4424e-05
3.4424e-05
3.4329e-05
3.43304e-05
3.43279e-05
3.4328e-05
3.43279e-05
3.43274e-05
3.43281e-05
3.43302e-05
3.43332e-05
3.43364e-05
3.43395e-05
3.43424e-05
3.43452e-05
3.43478e-05
3.43504e-05
3.43529e-05
3.43553e-05
3.43577e-05
3.436e-05
3.43622e-05
3.43644e-05
3.43665e-05
3.43686e-05
3.43706e-05
3.43727e-05
3.43747e-05
3.43767e-05
3.43786e-05
3.43806e-05
3.43825e-05
3.43844e-05
3.43864e-05
3.43883e-05
3.43902e-05
3.43921e-05
3.4394e-05
3.4396e-05
3.43979e-05
3.43999e-05
3.44019e-05
3.44039e-05
3.4406e-05
3.44081e-05
3.44102e-05
3.44124e-05
3.44146e-05
3.44168e-05
3.4419e-05
3.44211e-05
3.44231e-05
3.44249e-05
3.44264e-05
3.44273e-05
3.44277e-05
3.44274e-05
3.44263e-05
3.44258e-05
3.44259e-05
3.44264e-05
3.44272e-05
3.44277e-05
3.44277e-05
3.44257e-05
3.44255e-05
3.4329e-05
3.43302e-05
3.43277e-05
3.43279e-05
3.43278e-05
3.43274e-05
3.43282e-05
3.43303e-05
3.43333e-05
3.43364e-05
3.43395e-05
3.43424e-05
3.43452e-05
3.43478e-05
3.43504e-05
3.43528e-05
3.43552e-05
3.43576e-05
3.43598e-05
3.4362e-05
3.43642e-05
3.43663e-05
3.43683e-05
3.43704e-05
3.43724e-05
3.43744e-05
3.43763e-05
3.43783e-05
3.43802e-05
3.43821e-05
3.4384e-05
3.43859e-05
3.43878e-05
3.43896e-05
3.43915e-05
3.43934e-05
3.43953e-05
3.43972e-05
3.43992e-05
3.44011e-05
3.44031e-05
3.44051e-05
3.44072e-05
3.44093e-05
3.44114e-05
3.44136e-05
3.44158e-05
3.44181e-05
3.44203e-05
3.44224e-05
3.44244e-05
3.44261e-05
3.44275e-05
3.44284e-05
3.44286e-05
3.4428e-05
3.4427e-05
3.44267e-05
3.4427e-05
3.44279e-05
3.44289e-05
3.44295e-05
3.44297e-05
3.44275e-05
3.44269e-05
3.43291e-05
3.433e-05
3.43276e-05
3.43278e-05
3.43278e-05
3.43274e-05
3.43282e-05
3.43304e-05
3.43334e-05
3.43365e-05
3.43395e-05
3.43424e-05
3.43451e-05
3.43478e-05
3.43503e-05
3.43528e-05
3.43551e-05
3.43574e-05
3.43597e-05
3.43618e-05
3.4364e-05
3.4366e-05
3.43681e-05
3.43701e-05
3.43721e-05
3.4374e-05
3.4376e-05
3.43779e-05
3.43798e-05
3.43816e-05
3.43835e-05
3.43854e-05
3.43872e-05
3.43891e-05
3.43909e-05
3.43928e-05
3.43946e-05
3.43965e-05
3.43984e-05
3.44003e-05
3.44023e-05
3.44042e-05
3.44063e-05
3.44083e-05
3.44104e-05
3.44126e-05
3.44148e-05
3.4417e-05
3.44193e-05
3.44215e-05
3.44237e-05
3.44256e-05
3.44273e-05
3.44286e-05
3.44294e-05
3.44294e-05
3.44285e-05
3.44277e-05
3.44276e-05
3.44283e-05
3.44294e-05
3.44307e-05
3.44316e-05
3.44317e-05
3.44293e-05
3.44284e-05
3.43291e-05
3.43298e-05
3.43274e-05
3.43278e-05
3.43277e-05
3.43274e-05
3.43283e-05
3.43305e-05
3.43334e-05
3.43365e-05
3.43395e-05
3.43424e-05
3.43451e-05
3.43477e-05
3.43502e-05
3.43527e-05
3.4355e-05
3.43573e-05
3.43595e-05
3.43616e-05
3.43637e-05
3.43658e-05
3.43678e-05
3.43698e-05
3.43718e-05
3.43737e-05
3.43756e-05
3.43775e-05
3.43794e-05
3.43812e-05
3.4383e-05
3.43849e-05
3.43867e-05
3.43885e-05
3.43903e-05
3.43922e-05
3.4394e-05
3.43958e-05
3.43977e-05
3.43995e-05
3.44014e-05
3.44034e-05
3.44053e-05
3.44074e-05
3.44094e-05
3.44115e-05
3.44137e-05
3.44159e-05
3.44182e-05
3.44205e-05
3.44227e-05
3.44249e-05
3.44268e-05
3.44285e-05
3.44297e-05
3.44303e-05
3.44302e-05
3.4429e-05
3.44284e-05
3.44287e-05
3.44297e-05
3.44311e-05
3.44327e-05
3.44337e-05
3.44338e-05
3.44313e-05
3.44299e-05
3.43292e-05
3.43296e-05
3.43273e-05
3.43277e-05
3.43277e-05
3.43274e-05
3.43283e-05
3.43305e-05
3.43335e-05
3.43365e-05
3.43395e-05
3.43424e-05
3.43451e-05
3.43477e-05
3.43501e-05
3.43525e-05
3.43549e-05
3.43571e-05
3.43593e-05
3.43615e-05
3.43635e-05
3.43656e-05
3.43676e-05
3.43695e-05
3.43715e-05
3.43734e-05
3.43752e-05
3.43771e-05
3.43789e-05
3.43808e-05
3.43826e-05
3.43844e-05
3.43862e-05
3.4388e-05
3.43897e-05
3.43915e-05
3.43933e-05
3.43951e-05
3.43969e-05
3.43988e-05
3.44006e-05
3.44025e-05
3.44044e-05
3.44064e-05
3.44084e-05
3.44105e-05
3.44126e-05
3.44148e-05
3.44171e-05
3.44194e-05
3.44217e-05
3.44239e-05
3.44261e-05
3.4428e-05
3.44296e-05
3.44307e-05
3.44312e-05
3.44308e-05
3.44296e-05
3.44292e-05
3.44298e-05
3.44311e-05
3.4433e-05
3.44348e-05
3.4436e-05
3.44361e-05
3.44332e-05
3.44314e-05
3.43292e-05
3.43294e-05
3.43271e-05
3.43277e-05
3.43277e-05
3.43274e-05
3.43283e-05
3.43305e-05
3.43335e-05
3.43366e-05
3.43395e-05
3.43423e-05
3.4345e-05
3.43476e-05
3.435e-05
3.43524e-05
3.43547e-05
3.4357e-05
3.43591e-05
3.43612e-05
3.43633e-05
3.43653e-05
3.43673e-05
3.43692e-05
3.43711e-05
3.4373e-05
3.43749e-05
3.43767e-05
3.43785e-05
3.43803e-05
3.43821e-05
3.43839e-05
3.43856e-05
3.43874e-05
3.43892e-05
3.43909e-05
3.43927e-05
3.43944e-05
3.43962e-05
3.4398e-05
3.43998e-05
3.44017e-05
3.44035e-05
3.44055e-05
3.44074e-05
3.44094e-05
3.44115e-05
3.44137e-05
3.44159e-05
3.44182e-05
3.44205e-05
3.44228e-05
3.44251e-05
3.44273e-05
3.44292e-05
3.44307e-05
3.44317e-05
3.4432e-05
3.44313e-05
3.44302e-05
3.44301e-05
3.4431e-05
3.44328e-05
3.4435e-05
3.44371e-05
3.44384e-05
3.44384e-05
3.44353e-05
3.44329e-05
3.43292e-05
3.43292e-05
3.4327e-05
3.43276e-05
3.43277e-05
3.43274e-05
3.43284e-05
3.43306e-05
3.43335e-05
3.43366e-05
3.43395e-05
3.43423e-05
3.43449e-05
3.43475e-05
3.43499e-05
3.43523e-05
3.43546e-05
3.43568e-05
3.4359e-05
3.4361e-05
3.43631e-05
3.43651e-05
3.4367e-05
3.43689e-05
3.43708e-05
3.43727e-05
3.43745e-05
3.43763e-05
3.43781e-05
3.43799e-05
3.43816e-05
3.43834e-05
3.43851e-05
3.43869e-05
3.43886e-05
3.43903e-05
3.4392e-05
3.43938e-05
3.43955e-05
3.43973e-05
3.4399e-05
3.44008e-05
3.44027e-05
3.44045e-05
3.44064e-05
3.44084e-05
3.44104e-05
3.44125e-05
3.44147e-05
3.44169e-05
3.44192e-05