/*--------------------------------*- C++ -*----------------------------------*\
  =========                 |
  \\      /  F ield         | OpenFOAM: The Open Source CFD Toolbox
   \\    /   O peration     | Website:  https://openfoam.org
    \\  /    A nd           | Version:  7
     \\/     M anipulation  |
\*---------------------------------------------------------------------------*/
FoamFile
{
    version     2.0;
    format      ascii;
    class       volScalarField;
    location    "800";
    object      p;
}
// * * * * * * * * * * * * * * * * * * * * * * * * * * * * * * * * * * * * * //

dimensions      [0 2 -2 0 0 0 0];

internalField   nonuniform List<scalar> 
23117
(
2.24109
6.34201
0.566245
9.6632
2.14246
0.644282
12.1762
4.26994
2.16334
0.767517
14.2661
6.06847
4.04461
2.40998
0.679415
16.0536
7.66254
5.71458
4.36413
2.09772
0.68535
17.629
9.03257
7.28329
6.06681
3.97821
2.00615
0.712652
19.0397
10.2324
8.70471
7.66307
5.63185
3.85583
1.98382
0.721977
20.3184
11.289
10.0053
9.11754
7.20678
5.48356
3.83664
1.95256
0.723886
21.4856
12.2276
11.195
10.4562
8.65396
7.05798
5.4547
3.80673
1.95084
0.717825
22.5581
13.0666
12.2892
11.686
9.99779
8.51823
7.03277
5.42134
3.80425
1.97027
0.707702
23.5475
13.82
13.2995
12.8188
11.242
9.88715
8.50303
7.00676
5.42289
3.82314
1.99549
0.702122
24.463
14.4992
14.2364
13.8641
12.3966
11.1647
9.88956
8.4894
7.01978
5.45246
3.85117
2.02093
0.705776
25.3126
15.1133
15.1083
14.8305
13.4691
12.3586
11.1899
9.89446
8.51893
7.0634
5.49645
3.88645
2.04362
0.718319
26.1018
15.6694
15.9223
15.7257
14.4672
13.4745
12.4108
11.2179
9.94533
8.58135
7.12436
5.5512
3.92726
2.06301
0.736505
26.8375
16.174
16.6846
16.5561
15.3975
14.5187
13.5564
12.4656
11.2938
10.0301
8.66354
7.1991
5.61325
3.97136
2.08045
0.756488
27.5236
16.6316
17.4002
17.3276
16.2659
15.4964
14.632
13.6408
12.5693
11.4037
10.1361
8.76169
7.28377
5.67927
4.01708
2.09731
0.775448
28.1645
17.0472
18.0737
18.0452
17.078
16.413
15.6423
14.7481
13.7745
12.7066
11.5358
10.2596
8.87143
7.37456
5.74704
4.06288
2.11406
0.792072
28.7636
17.4245
18.7086
18.7133
17.8384
17.273
16.5919
15.7914
14.913
13.9406
12.8663
11.6864
10.396
8.98865
7.46865
5.81482
4.10719
2.13028
0.806126
29.3244
17.767
19.3082
19.3356
18.5514
18.0807
17.4851
16.7749
15.9885
15.1089
14.1289
13.0449
11.8507
10.5413
9.1104
7.56376
5.88096
4.14853
2.14497
0.817823
29.8498
18.0775
19.8755
19.9156
19.2208
18.8401
18.326
17.7025
17.0046
16.2146
15.3263
14.3361
13.2379
12.025
10.6923
9.23426
7.65782
5.94385
4.18546
2.15695
0.827361
30.3423
18.3589
20.413
20.4565
19.8499
19.5545
19.1181
18.5781
17.965
17.2611
16.4613
15.5623
14.5578
13.4414
12.2062
10.8469
9.35816
7.74893
6.0018
4.21657
2.16507
0.83472
30.8046
18.6136
20.923
20.9609
20.442
20.227
19.8648
19.4049
18.8732
18.2519
17.5371
16.7257
15.8123
14.7903
13.6528
12.3921
11.0029
9.48022
7.83528
6.05311
4.24041
2.16824
0.839663
31.2388
18.8438
21.4076
21.4314
20.9996
20.8605
20.5693
20.1862
19.7325
19.1903
18.5568
17.8295
17.0035
16.0731
15.0313
13.87
12.581
11.1586
9.59868
7.91508
6.09603
4.25553
2.16546
0.841811
31.6471
19.0512
21.8685
21.8702
21.5254
21.4576
21.2343
20.925
20.5459
20.0795
19.5238
18.8767
18.1343
17.2916
16.3425
15.2789
14.0916
12.7713
11.3125
9.71186
7.98654
6.12882
4.26044
2.15578
0.840697
32.0312
19.2379
22.3074
22.2794
22.0216
22.0206
21.8624
21.624
21.3164
20.9226
20.4414
19.8707
19.2076
18.4485
17.5879
16.6189
15.5318
14.3162
12.9618
11.463
9.81812
8.04791
6.14972
4.25361
2.13822
0.835815
32.3931
19.4054
22.7259
22.6608
22.4903
22.5516
22.456
22.2857
22.0466
21.7225
21.3124
20.8147
20.2269
19.5466
18.7701
17.891
16.901
15.7889
14.5428
13.1512
11.6088
9.91586
8.09743
6.15697
4.23349
2.1118
0.826636
32.7342
19.5552
23.1252
23.0162
22.9332
23.0526
23.0173
22.9124
22.7392
22.4819
22.14
21.7118
21.1955
20.5897
19.8919
19.0977
18.1999
17.1883
16.0498
14.7707
13.3387
11.7487
10.0035
8.13336
6.14883
4.19851
2.07555
0.812599
33.0562
19.6889
23.5067
23.3471
23.3522
23.5253
23.5482
23.5061
23.3962
23.2034
22.9269
22.5651
22.1167
21.5811
20.957
20.2419
19.4305
18.514
17.4802
16.3139
14.9993
13.5233
11.8814
10.0796
8.15397
6.12355
4.1471
2.02847
0.793114
33.3604
19.8075
23.8715
23.6551
23.7487
23.9712
24.0505
24.0688
24.0199
23.8892
23.6757
23.3777
22.9939
22.5244
21.9693
21.3275
20.5959
19.768
18.8331
17.7767
16.581
15.2283
13.7042
12.0058
10.1426
8.15755
6.07942
4.07773
1.9696
0.767545
33.6481
19.9123
24.2205
23.9415
24.1241
24.3919
24.5258
24.6022
24.6121
24.5414
24.3888
24.152
23.83
23.4232
22.9325
22.3586
21.7001
20.9534
20.1101
19.1575
18.078
16.8512
15.4571
13.8809
12.1208
10.191
8.14245
6.01479
3.98886
1.89798
0.735227
33.9207
20.0045
24.5549
24.2076
24.4799
24.7886
24.9755
25.1078
25.1745
25.1619
25.0682
24.8907
24.628
24.2808
23.8506
23.3394
22.7479
22.0746
21.3144
20.4573
19.4875
18.3845
17.1246
15.6858
14.0525
12.2252
10.2235
8.10708
5.92805
3.87901
1.8127
0.695433
34.1791
20.085
24.8753
24.4547
24.8171
25.1627
25.4012
25.587
25.7086
25.7523
25.716
25.5959
25.3905
25.1004
24.7274
24.2743
23.7437
23.1366
22.4507
21.6793
20.81
19.8237
18.6965
17.4014
15.914
14.2185
12.3181
10.2388
8.04991
5.81768
3.7468
1.71291
0.647396
34.4246
20.1548
25.1828
24.6837
25.1369
25.5152
25.804
26.0412
26.2159
26.3143
26.3337
26.2696
26.1199
25.8848
25.5662
25.1676
24.6928
24.1448
23.5246
22.8288
22.0488
21.1691
20.1671
19.0149
17.6819
16.1416
14.3784
12.3986
10.2355
7.96952
5.6823
3.5909
1.5978
0.590293
34.658
20.2148
25.478
24.8959
25.4403
25.8473
26.1852
26.4714
26.6975
26.8491
26.9229
26.9135
26.8182
26.6365
26.3703
26.0231
25.5997
25.1049
24.5423
23.9121
23.2096
22.4237
21.5356
20.5185
19.3402
17.9665
16.3687
14.5316
12.4657
10.2126
7.86463
5.52063
3.41007
1.46663
0.52326
34.8803
20.2658
25.7615
25.0922
25.7282
26.16
26.5457
26.8789
27.1548
27.3581
27.4849
27.5291
27.4871
27.3578
27.1423
26.8442
26.4689
26.0223
25.5102
24.9361
24.2996
23.594
22.8053
21.9107
20.879
19.6733
18.2555
16.595
14.6776
12.5186
10.1689
7.73407
5.33155
3.20319
1.31876
0.44538
35.0923
20.3088
26.0341
25.2736
26.0015
26.4541
26.8867
27.2646
27.5887
27.8422
28.0209
28.1178
28.1283
28.0504
27.8847
27.6343
27.3044
26.9021
26.4346
25.9083
25.3266
24.6878
23.983
23.1947
22.2957
21.2497
20.0149
18.5494
16.8207
14.8162
12.5567
10.1037
7.57685
5.1141
2.96929
1.15366
0.355673
35.295
20.3444
26.2962
25.441
26.2611
26.7307
27.209
27.6295
28.0002
28.3025
28.532
28.6806
28.743
28.7161
28.5995
28.3957
28.1097
27.7487
27.3213
26.836
26.2994
25.7145
25.0779
24.378
23.5934
22.6918
21.6316
20.3658
18.8485
17.0457
14.9468
12.5792
10.016
7.39212
4.86752
2.70754
0.970864
0.253121
35.4889
20.3732
26.5485
25.5952
26.5075
26.9905
27.5136
27.9744
28.3903
28.74
29.0191
29.2186
29.3323
29.3561
29.2884
29.1309
28.8878
28.5664
28.1757
27.7259
27.2263
26.6838
26.1004
25.4709
24.7803
24.0027
23.1004
22.026
20.7269
19.1533
17.27
15.0691
12.5856
9.90533
7.17926
4.59125
2.41722
0.770026
0.13667
35.6748
20.396
26.7915
25.7371
26.7416
27.2344
27.8013
28.3003
28.7598
29.1554
29.4831
29.7327
29.8972
29.9714
29.9527
29.8414
29.6411
29.3584
29.0024
28.5842
28.1152
27.6056
27.0621
26.4856
25.8683
25.1915
24.4242
23.5229
22.4338
21.0987
19.4639
17.4935
15.183
12.5755
9.77118
6.93783
4.28489
2.09781
0.550939
0.00522288
35.8534
20.4133
27.0254
25.8675
26.964
27.463
28.0729
28.6079
29.1095
29.5497
29.9248
30.2236
30.4385
30.5631
30.5935
30.5289
30.3716
30.1274
29.8051
29.4161
28.9731
28.4889
27.9741
27.4351
26.871
26.2713
25.6129
24.8593
23.9605
22.8561
21.482
19.7808
17.7162
15.288
12.5486
9.61327
6.66755
3.94831
1.74897
0.3135
-0.142342
36.0254
20.4258
27.2508
25.9871
27.1753
27.6773
28.3292
28.898
29.4404
29.9235
30.3448
30.6921
30.9569
31.1317
31.2116
31.1942
31.0807
30.8757
30.5871
30.2262
29.8064
29.3421
28.8471
28.3325
27.8037
27.258
26.6814
26.046
25.3094
24.4144
23.2937
21.8773
20.1042
17.9382
15.3841
12.5047
9.43146
6.3684
3.58158
1.37051
0.0577228
-0.307129
36.1911
20.4339
27.468
26.0966
27.376
27.8779
28.5709
29.1713
29.7529
30.2776
30.744
31.1387
31.4529
31.6779
31.8076
31.8383
31.7696
31.6048
31.3508
31.0181
30.6201
30.1722
29.6907
29.1901
28.6813
28.169
27.6478
27.1
26.4925
25.7758
24.8857
23.7474
22.285
20.4341
18.1593
15.4712
12.4437
9.22579
6.04057
3.18497
0.96242
-0.216224
-0.490263
36.3511
20.4383
27.6774
26.1967
27.5666
28.0654
28.7987
29.4285
30.0481
30.6127
31.1228
31.5641
31.9271
32.2022
32.382
32.4616
32.439
32.3159
32.0979
31.7943
31.4183
30.9854
30.5131
30.0189
29.5181
29.0214
28.532
28.0418
27.5287
26.9535
26.2598
25.3755
24.2181
22.7057
20.7708
18.3795
15.5491
12.3656
8.99651
5.68441
2.75898
0.524941
-0.508105
-0.692852
36.506
20.4393
27.8792
26.288
27.7477
28.2405
29.0132
29.6704
30.3264
30.9294
31.4821
31.9689
32.38
32.7049
32.9352
33.0645
33.0893
33.0097
32.8296
32.5571
32.2041
31.7862
31.3212
30.8285
30.3267
29.8317
29.3537
28.8939
28.4412
27.9686
27.4304
26.7625
25.8845
24.7061
23.1394
21.1143
18.5987
15.6178
12.2706
8.74399
5.3005
2.30435
0.0584151
-0.817584
-0.915895
36.6563
20.4374
28.0737
26.3713
27.9196
28.404
29.2151
29.8976
30.5886
31.2285
31.8223
32.3535
32.812
33.1864
33.4674
33.6471
33.7207
33.6865
33.5466
33.3075
32.9799
32.5783
32.1206
31.6269
31.1183
30.6145
30.1317
29.6791
29.2559
28.8474
28.421
27.9243
27.2848
26.4134
25.2119
23.5863
21.4645
18.817
15.6774
12.1589
8.46878
4.88965
1.82195
-0.436634
-1.14416
-1.16031
36.8023
20.433
28.2612
26.4469
28.0829
28.5562
29.4049
30.1108
30.8355
31.5105
32.1442
32.7186
33.2235
33.6471
33.9788
34.2097
34.3333
34.3464
34.2492
34.0464
33.7469
33.3641
32.9151
32.4204
31.902
31.3826
30.8828
30.4187
29.9986
29.6191
29.2614
28.8871
28.4362
27.8276
26.9628
25.7356
24.0464
21.8213
19.0341
15.7279
12.0309
8.1716
4.45279
1.31283
-0.959409
-1.48727
-1.42697
36.9445
20.4265
28.4418
26.5156
28.2377
28.698
29.5833
30.3105
31.0675
31.7761
32.4483
33.0646
33.6151
34.0872
34.4695
34.7521
34.927
34.9893
34.9374
34.7739
34.506
34.1453
33.7079
33.2135
32.685
32.1463
31.6215
31.1319
30.6935
30.3131
29.9845
29.6843
29.3679
28.9671
28.3913
27.533
26.2775
24.5197
22.1845
19.2499
15.7695
11.887
7.85329
3.99099
0.778284
-1.50897
-1.8463
-1.71655
37.0832
20.4183
28.6157
26.5779
28.3846
28.8298
29.7507
30.4975
31.2854
32.0259
32.7352
33.3921
33.9872
34.507
34.9398
35.2744
35.5016
35.6149
35.6107
35.4898
35.2571
34.9225
34.5005
34.0097
33.4725
32.9139
32.3599
31.8355
31.3627
30.9569
30.6235
30.3531
30.1172
29.8643
29.5174
28.9766
28.1242
26.8374
25.0059
22.5538
19.4644
15.8023
11.7279
7.51477
3.50558
0.219751
-2.08425
-2.22057
-2.02952
37.2187
20.4086
28.7832
26.6342
28.5238
28.9521
29.9078
30.6722
31.4897
32.2607
33.0055
33.7016
34.3401
34.9069
35.3897
35.7765
36.0569
36.2227
36.2687
36.1935
36
35.6959
35.2937
34.8107
34.2683
33.6914
33.107
32.5428
32.0249
31.5756
31.2097
30.9307
30.7258
30.5608
30.3769
30.0879
29.5835
28.7363
27.415
25.5045
22.9289
19.6773
15.8266
11.554
7.15719
2.998
-0.361278
-2.68398
-2.60928
-2.36626
37.3515
20.3979
28.9443
26.685
28.6556
29.0655
30.055
30.8353
31.6811
32.4808
33.2598
33.9938
34.6744
35.2872
35.8194
36.2584
36.5926
36.8124
36.9108
36.8844
36.734
36.4649
36.0876
35.6175
35.0746
34.483
33.8699
33.2644
32.6954
32.1902
31.7713
31.4527
31.2356
31.1033
31.0159
30.9062
30.6787
30.2123
29.3691
28.01
26.0152
23.3095
19.8886
15.8425
11.3663
6.78174
2.46974
-0.963132
-3.30666
-3.01171
-2.7269
37.4816
20.3863
29.0992
26.7308
28.7803
29.1706
30.1927
30.9874
31.8602
32.6871
33.4988
34.2691
34.9905
35.6482
36.2293
36.7202
37.1085
37.3834
37.5362
37.5616
37.458
37.2286
36.8815
36.4299
35.8922
35.2911
34.6532
34.0079
33.3861
32.8182
32.3322
31.9506
31.6866
31.5388
31.4863
31.4828
31.4528
31.2901
30.8626
30.0223
28.6217
26.5373
23.695
20.0981
15.8504
11.1655
6.38965
1.92246
-1.58398
-3.95081
-3.42705
-3.11126
37.6096
20.3742
29.2479
26.7721
28.8982
29.2677
30.3215
31.1289
32.0275
32.88
33.7229
34.5281
35.289
35.9904
36.6193
37.1617
37.6044
37.9353
38.1442
38.2239
38.1708
37.9857
37.6742
37.2473
36.7211
36.1167
35.4596
34.7787
34.1056
33.4726
32.9117
32.4514
32.1142
31.912
31.8409
31.8754
31.9622
32.0167
31.9219
31.5343
30.6953
29.2496
27.0702
24.085
20.3056
15.8505
10.9523
5.98228
1.35797
-2.22209
-4.61469
-3.85444
-3.51901
37.7356
20.3617
29.3907
26.8092
29.0096
29.3573
30.4418
31.2605
32.1836
33.0602
33.9329
34.7714
35.5703
36.3142
36.99
37.5832
38.0801
38.4676
38.734
38.8704
38.8712
38.7347
38.4642
38.0681
37.5602
36.9596
36.29
35.5796
34.8595
34.1632
33.5245
32.9765
32.5484
32.2625
32.1295
32.1425
32.2709
32.4542
32.598
32.5739
32.2267
31.3873
29.8928
27.613
24.4789
20.511
15.8432
10.7277
5.5611
0.777968
-2.87553
-5.29642
-4.29308
-3.94953
37.8599
20.3491
29.5275
26.8426
29.1146
29.44
30.554
31.3826
32.329
33.2283
34.1293
34.9996
35.8351
36.62
37.3415
37.9848
38.5356
38.9799
39.3049
39.5001
39.5578
39.4741
39.2497
38.8906
38.408
37.8187
37.1444
36.4118
35.6513
34.8961
34.1813
33.5424
33.0133
32.6239
32.3963
32.3396
32.4439
32.6732
32.959
33.1965
33.2457
32.9392
32.0975
30.5503
28.165
24.8761
20.714
15.8289
10.4927
5.12747
0.184356
-3.54233
-5.99408
-4.74219
-4.40203
37.9825
20.3366
29.6585
26.8725
29.2135
29.5161
30.6585
31.4957
32.4643
33.3847
34.3126
35.2132
36.0838
36.9083
37.6742
38.3666
38.9707
39.4719
39.8563
40.1119
40.2291
40.202
40.0288
39.7127
39.2624
38.692
38.0214
37.275
36.482
35.6749
34.8888
34.1606
33.527
33.0228
32.6786
32.516
32.5428
32.7455
33.0823
33.4763
33.8119
33.9367
33.671
32.8249
31.2211
28.7252
25.276
20.9146
15.8079
10.2482
4.68289
-0.420927
-4.22054
-6.70566
-5.20099
-4.87531
38.1038
20.3243
29.7837
26.8994
29.3065
29.586
30.7557
31.6004
32.5899
33.5302
34.4836
35.4129
36.317
37.1796
37.9885
38.7288
39.3855
39.9433
40.3876
40.7049
40.884
40.9168
40.7993
40.5319
40.1208
39.5773
38.9188
38.1676
37.3512
36.5007
35.6509
34.8386
34.102
33.4791
33.0058
32.713
32.6222
32.7394
33.0475
33.4984
34.0062
34.4437
34.6461
34.4211
33.5683
31.904
29.2926
25.6779
21.1125
15.7807
9.99513
4.2289
-1.03598
-4.90824
-7.42913
-5.6686
-5.36807
38.2239
20.3125
29.903
26.9235
29.3938
29.6502
30.846
31.697
32.7065
33.6652
34.6426
35.5992
36.5352
37.4344
38.2849
39.0718
39.7801
40.3941
40.8983
41.2782
41.5211
41.6168
41.5591
41.3459
40.9805
40.4717
39.8339
39.0873
38.2571
37.3731
36.4687
35.5804
34.7464
34.0065
33.3997
32.963
32.7278
32.7153
32.9297
33.3499
33.9213
34.5481
35.0914
35.3731
35.1883
34.3264
32.5977
29.8662
26.0811
21.3075
15.7475
9.73457
3.76698
-1.65892
-5.6035
-8.16219
-6.14434
-5.87884
38.343
20.3011
30.0167
26.9452
29.4755
29.7089
30.9297
31.7861
32.8144
33.7902
34.7904
35.7727
36.7392
37.6733
38.5639
39.396
40.1547
40.824
41.388
41.8311
42.1392
42.3004
42.3063
42.1522
41.8388
41.372
40.7635
40.0309
39.1971
38.29
37.3414
36.3868
35.4642
34.6134
33.875
33.2897
32.8951
32.7235
32.7957
33.1139
33.653
34.3508
35.1017
35.7543
36.1167
35.9714
35.0979
33.3011
30.4448
26.485
21.4996
15.7089
9.46749
3.29859
-2.28785
-6.30427
-8.90277
-6.62746
-6.40581
38.4612
20.2904
30.1247
26.9647
29.5519
29.7627
31.0072
31.8681
32.9141
33.9058
34.9275
35.934
36.9293
37.8968
38.8258
39.7017
40.5095
41.2332
41.8565
42.3629
42.7373
42.9661
43.0387
42.9483
42.6926
42.275
41.7041
40.9949
40.1677
39.2483
38.2667
37.2571
36.2563
35.3038
34.4407
33.7089
33.1499
32.8029
32.7006
32.8636
33.2922
33.9564
34.7867
35.6665
36.4313
36.8755
36.7689
35.8814
34.0126
31.0275
26.8889
21.6885
15.6652
9.19488
2.82517
-2.9208
-7.00874
-9.64871
-7.11718
-6.94712
38.5786
20.2805
30.2271
26.9823
29.6232
29.8116
31.0788
31.9434
33.0062
34.0125
35.0544
36.0837
37.1064
38.1056
39.0714
39.9893
40.8448
41.6218
42.3035
42.8732
43.3145
43.6124
43.7546
43.7318
43.5393
43.1774
42.6521
41.9754
41.165
40.2442
39.2412
38.1883
37.1213
36.0785
35.1006
34.2298
33.5091
32.9815
32.6871
32.6597
32.9195
33.4645
34.2601
35.2285
36.2417
37.1216
37.6485
37.5795
36.6752
34.7309
31.613
27.2921
21.874
15.6169
8.91771
2.34827
-3.55598
-7.71509
-10.3977
-7.61281
-7.50074
38.6955
20.2713
30.3239
26.9983
29.6894
29.8563
31.1447
32.0123
33.0909
34.1108
35.1716
36.2223
37.2708
38.3001
39.301
40.2594
41.161
41.9899
42.7292
43.3616
43.87
44.2383
44.4522
44.5004
44.3759
44.0759
43.6037
42.9683
42.1846
41.2733
40.2606
39.1767
38.056
36.9357
35.8552
34.8563
33.9821
33.2771
32.7853
32.5485
32.6012
32.9634
33.631
34.564
35.6758
36.8265
37.824
38.4341
38.4015
37.4778
35.4546
32.2002
27.6938
22.0561
15.5644
8.63701
1.86922
-4.19164
-8.42142
-11.1477
-8.11361
-8.06453
38.8118
20.2632
30.4151
27.0128
29.7507
29.8968
31.2054
32.0754
33.1687
34.2011
35.2797
36.3505
37.4233
38.4811
39.5154
40.5125
41.4586
42.3378
43.1334
43.8278
44.4032
44.8425
45.1298
45.2521
45.1997
44.9673
44.5552
43.9694
43.2221
42.3311
41.3202
40.2177
39.0562
37.8716
36.702
35.5882
34.5726
33.6993
33.014
32.5624
32.3877
32.5255
32.9957
33.7917
34.8678
36.1281
37.4202
38.5373
39.231
39.2334
38.2877
36.1822
32.788
28.0935
22.2345
15.5081
8.3537
1.38937
-4.82594
-9.12606
-11.8966
-8.6189
-8.63643
38.9274
20.256
30.5008
27.0261
29.8073
29.9335
31.261
32.1328
33.24
34.284
35.3792
36.4686
37.5644
38.649
39.7151
40.7491
41.7379
42.6658
43.5163
44.2717
44.9136
45.4241
45.7862
45.9848
46.0082
45.8484
45.503
44.9747
44.2728
43.4125
42.4149
41.3061
40.1168
38.8814
37.6368
36.4225
35.2796
34.2513
33.3829
32.7212
32.3137
32.2053
32.433
33.0164
33.9463
35.171
36.5846
38.0217
39.2604
40.0376
40.0735
39.1031
36.9122
33.3753
28.4905
22.4093
15.4484
8.06868
0.910099
-5.45729
-9.82731
-12.6423
-9.12803
-9.2141
39.0427
20.2499
30.5811
27.0384
29.8594
29.9666
31.3119
32.1851
33.3053
34.3598
35.4705
36.5774
37.6946
38.8046
39.9007
40.9699
41.9995
42.9744
43.8782
44.6933
45.401
45.9826
46.4201
46.6969
46.799
46.7164
46.4433
45.98
45.3324
44.5127
43.5394
42.4363
41.2321
39.9595
38.6542
37.3541
36.0993
34.9315
33.8945
33.0345
32.4
32.0402
32.0022
32.3242
33.0258
34.095
35.4734
37.0449
38.63
39.9918
40.8524
40.92
39.9224
37.6432
33.961
28.8841
22.5802
15.3858
7.7829
0.432632
-6.08406
-10.5236
-13.3829
-9.64022
-9.7952
39.1583
20.2446
30.6558
27.0498
29.9071
29.9965
31.3583
32.2324
33.3648
34.4289
35.5541
36.6772
37.8146
38.9483
40.0728
41.1754
42.244
43.264
44.2194
45.0926
45.8649
46.5172
47.0304
47.3866
47.5701
47.5683
47.373
46.9812
46.396
45.6265
44.6883
43.6026
42.3962
41.0999
39.7479
38.377
37.0259
35.7349
34.5461
33.504
32.6559
32.0517
31.743
31.7789
32.1993
33.0239
34.2374
35.7746
37.5081
39.2442
40.7302
41.6737
41.7713
40.7439
38.3737
34.5441
29.2738
22.7472
15.3207
7.49719
-0.0418044
-6.70475
-11.2135
-14.1165
-10.1546
-10.3776
39.2736
20.2401
30.7251
27.0605
29.9506
30.0233
31.4005
32.2752
33.4189
34.4918
35.6304
36.7686
37.9248
39.0808
40.232
41.3662
42.472
43.5352
44.5402
45.4699
46.3055
47.0276
47.6163
48.0527
48.3194
48.4016
48.2887
47.9746
47.4594
46.7491
45.8562
44.7994
43.603
42.2961
40.9113
39.4842
38.0524
36.6547
35.3317
34.1258
33.0821
32.2487
31.6777
31.4229
31.536
32.0589
33.0109
34.3736
36.0741
37.9735
39.8631
41.4742
42.4999
42.6256
41.566
39.1024
35.1234
29.6589
22.9102
15.2534
7.2124
-0.512076
-7.31803
-11.8954
-14.8412
-10.6706
-10.9591
39.3868
20.2373
30.7892
27.0706
29.99
30.0473
31.4386
32.3137
33.4679
34.5489
35.7
36.8521
38.0258
39.2027
40.379
41.543
42.684
43.7884
44.8412
45.8255
46.7228
47.5135
48.1772
48.6941
49.0452
49.214
49.1873
48.9565
48.5182
47.8755
47.0378
46.0208
44.8465
43.5417
42.1377
40.6688
39.1712
37.6831
36.2434
34.8926
33.6731
32.6306
31.8147
31.2793
31.081
31.2744
31.9033
32.9869
34.5033
36.3716
38.4403
40.4855
42.2223
43.3293
43.4812
42.3869
39.8278
35.698
30.0389
23.0691
15.1844
6.9293
-0.977185
-7.92248
-12.5679
-15.5553
-11.1875
-11.5377
39.4982
20.2369
30.848
27.0802
30.0254
30.0688
31.473
32.3482
33.5122
34.6005
35.7632
36.9282
38.1182
39.3145
40.5143
41.7064
42.8807
44.0244
45.1229
46.1598
47.117
47.9748
48.7126
49.3098
49.7462
50.0035
50.0663
49.9233
49.5683
49.0011
48.2277
47.2611
46.1204
44.8303
43.4203
41.9234
40.3749
38.8118
37.2722
35.7949
34.4201
33.1903
32.1518
31.3555
30.8577
30.7181
30.9945
31.7327
32.952
34.6264
36.6664
38.9077
41.1104
42.9731
44.1603
44.3363
43.2052
40.5486
36.2669
30.4133
23.2239
15.114
6.64859
-1.43602
-8.51674
-13.2299
-16.2573
-11.7044
-12.1113
39.6153
20.2376
30.9011
27.0898
30.0569
30.0877
31.5039
32.379
33.552
34.6469
35.8203
36.9972
38.2023
39.4167
40.6385
41.857
43.0628
44.2437
45.3858
46.4733
47.4884
48.4116
49.2222
49.8991
50.4209
50.7681
50.9231
50.872
50.6059
50.1212
49.4209
48.5147
47.4188
46.1555
44.7523
43.2409
41.6556
40.0325
38.4091
36.8228
35.3122
33.9171
32.6799
31.6475
30.8727
30.4143
30.3354
30.6971
31.5477
32.9064
34.7427
36.9583
39.375
41.7365
43.7252
44.9911
45.1893
44.0194
41.2636
36.8292
30.7816
23.3745
15.0426
6.37105
-1.88755
-9.09977
-13.8801
-16.9458
-12.2206
-12.6779
39.7418
20.2341
30.9484
27.0996
30.085
30.1044
31.5314
32.4064
33.5878
34.6886
35.8718
37.0596
38.2788
39.5099
40.7523
41.9954
43.2308
44.4469
45.6306
46.7665
47.8373
48.824
49.7059
50.4614
51.0685
51.5063
51.7554
51.7997
51.6273
51.2317
50.6124
49.776
48.7356
47.5109
46.1271
44.6143
43.0059
41.3372
39.645
37.9663
36.3381
34.7984
33.3863
32.1442
31.12
30.3682
29.9504
29.9336
30.3828
31.3487
32.8501
34.8521
37.2466
39.8412
42.3627
44.4768
45.8202
46.0386
44.8277
41.9714
37.384
31.1434
23.5209
14.9705
6.09737
-2.33099
-9.67055
-14.5174
-17.6194
-12.7353
-13.2359
39.855
20.226
30.9922
27.1093
30.1095
30.1191
31.5557
32.4304
33.6196
34.7258
35.9181
37.1159
38.348
39.5947
40.8561
42.1223
43.3855
44.6348
45.8578
47.0399
48.1643
49.2124
50.1637
50.9964
51.6881
52.2167
52.5613
52.7036
52.6291
52.3283
51.7975
51.0397
50.065
48.8902
47.538
46.0368
44.4185
42.718
40.9715
39.2156
37.4868
35.8215
34.2565
32.8304
31.5858
30.5712
29.8434
29.4673
29.5139
30.0522
31.1359
32.7833
34.9545
37.531
40.3055
42.9878
45.2268
46.646
46.8825
45.6289
42.671
37.9306
31.4982
23.6631
14.8981
5.82813
-2.76553
-10.2281
-15.1408
-18.2768
-13.2476
-13.7835
39.9226
20.2332
31.0338
27.117
30.1305
30.1322
31.5771
32.4514
33.6478
34.7589
35.9595
37.1664
38.4104
39.6715
40.9506
42.2383
43.5275
44.808
46.0682
47.2942
48.4699
49.5771
50.5957
51.504
52.2791
52.8982
53.339
53.5814
53.6083
53.4073
52.9715
52.3007
51.4014
50.2872
48.9786
47.5014
45.8864
44.1675
42.3804
40.5618
38.7478
36.9742
35.2762
33.6895
32.2523
31.0069
30.0032
29.3
28.9662
29.0771
29.7062
30.9099
32.7063
35.0497
37.811
40.7672
43.6105
45.9737
47.4669
47.7195
46.4215
43.3612
38.4683
31.8458
23.8012
14.8258
5.56388
-3.1904
-10.7715
-15.7492
-18.917
-13.7567
-14.3193
40.0026
20.2784
31.0667
27.123
30.1482
30.1436
31.596
32.4697
33.6725
34.788
35.9963
37.2115
38.4665
39.7407
41.0363
42.3439
43.6574
44.9672
46.2625
47.5301
48.7547
49.9187
51.0024
51.9842
52.8413
53.5501
54.0872
54.431
54.562
54.4652
54.1304
53.554
52.7391
51.6961
50.4424
49.0015
47.4026
45.6784
43.8642
41.9965
40.1116
38.2452
36.4318
34.7054
33.1006
31.6546
30.4099
29.4178
28.7397
28.4485
28.6242
29.3453
30.6712
32.619
35.1376
38.086
41.2253
44.2299
46.7159
48.2813
48.548
47.2042
44.0411
38.9962
32.1857
23.935
14.7538
5.30518
-3.60487
-11.2999
-16.342
-19.539
-14.2618
-14.8419
40.1544
20.3077
31.0804
27.1345
30.163
30.1523
31.6123
32.4858
33.6941
34.8135
36.0289
37.2517
38.5166
39.803
41.1136
42.4398
43.7759
45.1131
46.4414
47.7483
49.0193
50.2376
51.384
52.4372
53.3744
54.1716
54.8048
55.2506
55.4878
55.4986
55.2701
54.7949
54.0729
53.1109
51.9232
50.5306
48.9603
47.2437
45.4154
43.5118
41.5696
39.6246
37.7114
35.8632
34.1125
32.4925
31.0398
29.7971
28.8169
28.1639
27.9152
28.1562
28.9703
30.42
32.5219
35.2181
38.3557
41.6791
44.8447
47.4522
49.0878
49.3668
47.9759
44.7095
39.5137
32.5176
24.0646
14.6824
5.05255
-4.00832
-11.8127
-16.9182
-20.1419
-14.7621
-15.35
40.2011
20.2281
31.0929
27.1587
30.1751
30.1585
31.6256
32.4996
33.7131
34.8355
36.0572
37.2871
38.5613
39.8586
41.1832
42.5264
43.8836
45.2464
46.6056
47.9495
49.2646
50.5346
51.741
52.8632
53.8784
54.7625
55.4907
56.0387
56.3834
56.5047
56.3867
56.019
55.3976
54.5259
53.4147
52.0822
50.5529
48.8566
47.0272
45.1006
43.1139
41.1035
39.1045
37.1501
35.2719
33.5006
31.8683
30.4105
29.1706
28.2025
27.5742
27.3677
27.6741
28.5819
30.1571
32.415
35.2912
38.6196
42.1278
45.4537
48.1812
49.885
50.1744
48.7353
45.3656
40.0203
32.8414
24.1902
14.6119
4.80643
-4.4002
-12.3093
-17.4771
-20.7249
-15.2567
-15.8427
40.2501
20.1991
31.1314
27.1766
30.1836
30.1658
31.6358
32.5103
33.7296
34.8549
36.0819
37.318
38.6007
39.9083
41.2455
42.6044
43.9811
45.3677
46.7557
48.1345
49.4911
50.8102
52.0742
53.2627
54.3535
55.3225
56.1445
56.7941
57.247
57.4809
57.4771
57.2221
56.7083
55.9356
54.9111
53.6499
52.1737
50.5103
48.6925
46.7558
44.7372
42.674
40.602
38.555
36.5648
34.6612
32.8729
31.2306
29.7693
28.5324
27.5762
26.9721
26.8073
27.1788
28.1808
29.8828
32.2986
35.3567
38.8774
42.5706
46.0561
48.9017
50.6716
50.9696
49.4812
46.0086
40.5153
33.1567
24.3117
14.5427
4.56722
-4.77997
-12.789
-18.0182
-21.2875
-15.7448
-16.3189
40.2991
20.1697
31.1413
27.1529
30.1891
30.1781
31.6452
32.5175
33.7427
34.8718
36.1037
37.3449
38.6351
39.9521
41.3011
42.6744
44.0689
45.4776
46.8926
48.304
49.6998
51.0654
52.3841
53.6362
54.8
55.8516
56.7656
57.516
58.0771
58.4248
58.5381
58.4003
58.0005
57.3348
56.4066
55.2274
53.8161
52.1982
50.4047
48.4705
46.4326
44.3288
42.1958
40.0687
37.9799
35.9592
34.0343
32.2324
30.5823
29.1184
27.8848
26.9398
26.3591
26.2351
26.6712
27.7679
29.5977
32.1731
35.4145
39.1285
43.0068
46.6506
49.6126
51.4463
51.751
50.2126
46.6377
40.9985
33.4634
24.4291
14.4748
4.33533
-5.14718
-13.2514
-18.5408
-21.829
-16.2256
-16.778
40.3485
20.1405
31.1517
27.1429
30.1924
30.1862
31.6562
32.5248
33.7519
34.8849
36.1226
37.3684
38.665
39.9904
41.3502
42.7368
44.1478
45.5768
47.0169
48.4588
49.8913
51.3009
52.6715
53.9844
55.2184
56.35
57.3539
58.2035
58.8723
59.3345
59.567
59.5501
59.2698
58.7183
57.8953
56.8086
55.4737
53.9136
52.1572
50.2382
48.1935
46.0611
43.8789
41.6831
39.5074
37.3827
35.3366
33.3946
31.5819
29.9258
28.46
27.2295
26.2951
25.7365
25.6522
26.1525
27.3439
29.3023
32.0386
35.4648
39.3726
43.4356
47.2364
50.3125
52.2077
52.5177
50.9288
47.2522
41.4692
33.7613
24.5426
14.4087
4.11109
-5.50143
-13.6962
-19.0444
-22.3491
-16.6983
-17.2192
40.3983
20.1118
31.1614
27.133
30.1913
30.1742
31.6639
32.5361
33.7607
34.8938
36.1375
37.3889
38.6913
40.0236
41.3932
42.7921
44.2183
45.666
47.1292
48.5995
50.0665
51.5174
52.9372
54.308
55.6093
56.8181
57.9094
58.8563
59.6317
60.2084
60.5614
60.6684
60.5122
60.0814
59.3719
58.3875
57.1402
55.6499
53.9432
52.0523
50.0133
47.8646
45.6448
43.3914
41.1397
38.922
36.7671
34.7003
32.745
30.9241
29.2635
27.7964
26.5686
25.6435
25.1058
25.06
25.6236
26.9095
28.9972
31.8955
35.5074
39.6094
43.8564
47.8124
51.0002
52.9549
53.2685
51.6288
47.8515
41.9272
34.0503
24.6522
14.3445
3.89479
-5.84237
-14.123
-19.5287
-22.8473
-17.1621
-17.6421
40.4479
20.0833
31.1707
27.1231
30.1903
30.1683
31.6595
32.5438
33.7731
34.9022
36.1477
37.405
38.7141
40.0528
41.4306
42.8406
44.2809
45.7459
47.2304
48.727
50.2261
51.7158
53.182
54.6077
55.9733
57.2563
58.4322
59.4742
60.3545
61.0452
61.5192
61.7523
61.724
61.4196
60.831
59.9582
58.8093
57.4006
55.7561
53.9062
51.8857
49.733
47.4872
45.1872
42.87
40.5694
38.316
36.1364
34.0536
32.0884
30.2617
28.5978
27.1295
25.9036
24.9867
24.4682
24.4595
25.0854
26.4656
28.683
31.7441
35.5423
39.8386
44.2685
48.3777
51.6749
53.6868
54.0027
52.3118
48.4351
42.3722
34.3302
24.7581
14.2823
3.68671
-6.16968
-14.5315
-19.9933
-23.3234
-17.6163
-18.0462
40.4967
20.0551
31.1799
27.1132
30.1891
30.1624
31.656
32.5343
33.7819
34.9152
36.1572
37.416
38.7323
40.0782
41.4635
42.8828
44.3358
45.8168
47.3211
48.842
50.3709
51.8969
53.4068
54.8845
56.3112
57.6653
58.9228
60.0572
61.0404
61.8438
62.4389
62.7993
62.9019
62.7287
62.2679
61.5151
60.4747
59.1592
57.5894
55.7931
53.8042
51.6601
49.4003
47.0649
44.6923
42.3186
39.976
37.693
35.494
33.3993
31.4275
29.5971
27.9309
26.4612
25.2363
24.3261
23.8252
23.8518
24.5389
26.013
28.3603
31.5846
35.5696
40.0598
44.6712
48.9315
52.3355
54.4025
54.7192
52.9771
49.0023
42.8037
34.6011
24.8602
14.2225
3.4871
-6.48313
-14.9215
-20.4378
-23.7772
-18.0601
-18.4313
40.5468
20.0265
31.1889
27.104
30.1879
30.1565
31.6526
32.5291
33.7742
34.9243
36.1712
37.4262
38.7448
40.0985
41.492
42.9199
44.3837
45.8793
47.4019
48.9453
50.5018
52.0616
53.6124
55.1391
56.6237
58.0458
59.3817
60.6055
61.6891
62.6034
63.3188
63.8072
64.043
64.005
63.6777
63.0528
62.1304
60.9192
59.4362
57.7067
55.7622
53.6396
51.3782
49.0187
46.6013
44.1639
41.7409
39.363
37.0564
34.8429
32.7405
30.765
28.9326
27.2647
25.7933
24.5683
23.6631
23.1778
23.2382
23.9852
25.5524
28.0296
31.4176
35.5893
40.2726
45.0639
49.473
52.9813
55.1009
55.4172
53.6241
49.5529
43.2217
34.8629
24.9587
14.1652
3.29615
-6.7825
-15.2928
-20.8621
-24.2085
-18.4929
-18.7972
40.5975
19.9988
31.1973
27.0951
30.1865
30.1508
31.6491
32.5241
33.7695
34.9149
36.1812
37.4412
38.7562
40.1127
41.515
42.9521
44.4258
45.934
47.4732
49.0375
50.6197
52.2108
53.7998
55.3725
56.912
58.3986
59.8096
61.1196
62.3007
63.3237
64.1581
64.7744
65.1447
65.2449
65.0562
64.5661
63.7707
62.6742
61.29
59.6399
57.7532
55.6651
53.4148
51.0433
48.5919
46.1004
43.6057
41.1407
38.734
36.4094
34.1862
32.0798
30.1032
28.2703
26.601
25.1275
23.9011
22.9991
22.5275
22.6198
23.4252
25.0848
27.6916
31.2432
35.6014
40.4768
45.4462
50.0014
53.6112
55.7813
56.0962
54.2522
50.0865
43.6259
35.1155
25.0537
14.1106
3.11404
-7.06761
-15.6454
-21.2659
-24.6174
-18.914
-19.1439
40.6481
19.9718
31.2055
27.086
30.1851
30.1449
31.6456
32.5188
33.765
34.9095
36.1723
37.4518
38.7724
40.1254
41.5314
42.9782
44.4625
45.982
47.5358
49.1191
50.725
52.3454
53.9698
55.5856
57.1767
58.7245
60.2071
61.5999
62.8755
64.0044
64.9559
65.6992
66.2046
66.4454
66.3993
66.0503
65.3898
64.418
63.144
61.5861
59.7705
57.7303
55.504
53.1327
50.6587
48.1234
45.5658
43.0214
40.5215
38.0921
35.755
33.5266
31.4196
29.4442
27.6121
25.9418
24.4653
23.236
22.3353
21.8754
21.9975
22.8598
24.6109
27.3469
31.0618
35.6059
40.6721
45.8175
50.516
54.2245
56.443
56.7553
54.861
50.6026
44.0163
35.3589
25.1453
14.0588
2.94093
-7.33834
-15.9792
-21.6491
-25.0038
-19.3228
-19.4713
40.6991
19.945
31.2133
27.0773
30.1834
30.1391
31.6419
32.5137
33.7603
34.9044
36.167
37.4423
38.784
40.1429
41.5459
42.9972
44.4924
46.0238
47.5908
49.1908
50.8186
52.466
54.1235
55.7794
57.419