/*--------------------------------*- C++ -*----------------------------------*\
  =========                 |
  \\      /  F ield         | OpenFOAM: The Open Source CFD Toolbox
   \\    /   O peration     | Website:  https://openfoam.org
    \\  /    A nd           | Version:  7
     \\/     M anipulation  |
\*---------------------------------------------------------------------------*/
FoamFile
{
    version     2.0;
    format      ascii;
    class       surfaceScalarField;
    location    "800";
    object      phi;
}
// * * * * * * * * * * * * * * * * * * * * * * * * * * * * * * * * * * * * * //

dimensions      [0 3 -1 0 0 0 0];

internalField   nonuniform List<scalar> 
45906
(
-0.301665
0.067892
-0.301435
0.0657195
-0.290053
0.0677279
-0.301306
0.0636111
-0.289897
0.0655635
-0.278679
0.067583
-0.301221
0.0615534
-0.289755
0.0634685
-0.278544
0.0654286
-0.267764
0.0674225
-0.301161
0.0595595
-0.289638
0.0614366
-0.278417
0.0633413
-0.267619
0.0652838
-0.25723
0.0672699
-0.301115
0.057631
-0.289542
0.0594632
-0.278302
0.0613221
-0.267485
0.0632078
-0.257082
0.0651357
-0.246949
0.0671101
-0.301077
0.0557938
-0.289461
0.0575497
-0.278199
0.0593604
-0.267362
0.0611985
-0.256937
0.0630635
-0.246791
0.0649775
-0.237043
0.0669403
-0.301046
0.0540202
-0.28939
0.0557234
-0.278107
0.0574572
-0.267246
0.0592448
-0.256799
0.0610603
-0.246636
0.0629085
-0.236877
0.0648112
-0.227495
0.0667707
-0.301018
0.0522957
-0.289328
0.0539578
-0.278023
0.0556392
-0.267137
0.0573486
-0.256667
0.0591124
-0.246486
0.0609101
-0.236716
0.0627482
-0.227333
0.0646487
-0.21835
0.0666118
-0.300994
0.0506448
-0.289271
0.0522392
-0.277945
0.05388
-0.267034
0.0555361
-0.25654
0.0572216
-0.246341
0.0589678
-0.236563
0.0607565
-0.227179
0.0625942
-0.218202
0.0645006
-0.20955
0.06647
-0.300972
0.0490401
-0.289219
0.0505928
-0.277872
0.0521664
-0.266936
0.0537816
-0.256418
0.0554142
-0.246203
0.0570832
-0.236417
0.0588218
-0.227033
0.060611
-0.218063
0.0624552
-0.209421
0.0643711
-0.201185
0.0663456
-0.300952
0.0474937
-0.289171
0.0489916
-0.277803
0.0505238
-0.266842
0.0520718
-0.256301
0.0536645
-0.246071
0.0552822
-0.236279
0.0569453
-0.226897
0.0586857
-0.217933
0.0604811
-0.209298
0.062333
-0.201071
0.0642571
-0.19316
0.0662334
-0.300934
0.0460045
-0.289125
0.0474478
-0.277737
0.0489255
-0.26675
0.0504325
-0.256188
0.0519593
-0.245945
0.053539
-0.236149
0.0551527
-0.22677
0.0568186
-0.217812
0.0585649
-0.209184
0.0603665
-0.200961
0.0622232
-0.193055
0.0641517
-0.185468
0.0661271
-0.300917
0.0445588
-0.289081
0.0459607
-0.277673
0.0473841
-0.266662
0.0488371
-0.25608
0.0503244
-0.245826
0.0518406
-0.236028
0.053418
-0.226653
0.0550351
-0.2177
0.0567063
-0.209076
0.0584573
-0.200856
0.0602616
-0.192951
0.0621191
-0.185365
0.0640487
-0.178076
0.0660222
-0.300901
0.0431767
-0.289039
0.0445166
-0.277611
0.0458988
-0.266576
0.0472982
-0.255977
0.0487335
-0.245714
0.0502124
-0.235916
0.0517279
-0.226544
0.0533092
-0.217595
0.0549308
-0.208975
0.056605
-0.200756
0.0583567
-0.192849
0.0601602
-0.185262
0.0620158
-0.177972
0.0639446
-0.170969
0.0659167
-0.300886
0.0418223
-0.288998
0.0431356
-0.277551
0.0444562
-0.266492
0.0458154
-0.255878
0.0471992
-0.245609
0.0486283
-0.235811
0.0501079
-0.226443
0.0516274
-0.217498
0.0532122
-0.208879
0.0548352
-0.200659
0.0565083
-0.19275
0.0582573
-0.18516
0.0600581
-0.177867
0.0619112
-0.170863
0.0638388
-0.164128
0.0658107
-0.300871
0.0405213
-0.288958
0.0417822
-0.277492
0.0430766
-0.266411
0.0443752
-0.255783
0.0457209
-0.24551
0.0471006
-0.235715
0.0485315
-0.22635
0.050015
-0.217408
0.051537
-0.208788
0.0531215
-0.200566
0.0547418
-0.192653
0.0564111
-0.185059
0.0581563
-0.177763
0.0599542
-0.170757
0.0618053
-0.164022
0.0637325
-0.157563
0.0657054
-0.300858
0.0392589
-0.288919
0.040482
-0.277434
0.0417244
-0.266333
0.0429979
-0.255693
0.0442854
-0.245418
0.0456288
-0.235625
0.0470112
-0.226264
0.0484456
-0.217323
0.0499304
-0.208702
0.0514507
-0.200475
0.0530312
-0.192558
0.0546467
-0.184959
0.0563115
-0.17766
0.0580531
-0.170652
0.059849
-0.163916
0.0616995
-0.157458
0.0636272
-0.151247
0.065602
-0.300844
0.0380399
-0.28888
0.0392201
-0.277377
0.0404252
-0.266257
0.0416482
-0.255608
0.0429127
-0.245333
0.0441996
-0.235543
0.0455462
-0.226185
0.0469316
-0.217244
0.0483661
-0.20862
0.0498479
-0.200388
0.0513633
-0.192465
0.0529383
-0.184861
0.0545488
-0.177558
0.0562097
-0.170548
0.0579488
-0.163811
0.0597437
-0.157353
0.0615947
-0.151144
0.0635238
-0.145187
0.0655012
-0.300831
0.0368588
-0.288841
0.0380015
-0.277321
0.0391644
-0.266183
0.0403516
-0.255528
0.0415677
-0.245253
0.042833
-0.235466
0.0441233
-0.226111
0.0454722
-0.217169
0.0468565
-0.208541
0.0482871
-0.200303
0.0497633
-0.192374
0.0512727
-0.184765
0.0528424
-0.177458
0.0544488
-0.170445
0.0561069
-0.163707
0.0578446
-0.157249
0.0596395
-0.151041
0.0614918
-0.145087
0.063423
-0.13937
0.0654035
-0.300819
0.0357153
-0.288803
0.0368207
-0.277267
0.0379469
-0.266112
0.0390934
-0.255452
0.0402758
-0.245179
0.0414937
-0.235396
0.0427625
-0.226042
0.0440542
-0.217098
0.0454011
-0.208465
0.0467806
-0.200221
0.0482051
-0.192286
0.0496751
-0.184672
0.0511792
-0.177361
0.0527446
-0.170344
0.0543479
-0.163604
0.0560041
-0.157146
0.0577413
-0.150938
0.0595368
-0.144986
0.0613912
-0.139272
0.0633251
-0.133777
0.0653092
-0.300806
0.0346104
-0.288765
0.0356774
-0.277213
0.0367672
-0.266044
0.0378787
-0.255381
0.0390223
-0.24511
0.0402072
-0.235331
0.0414285
-0.225977
0.0426977
-0.21703
0.0439865
-0.208392
0.045328
-0.200142
0.0467011
-0.192201
0.0481195
-0.184581
0.0495842
-0.177265
0.051084
-0.170246
0.052646
-0.163503
0.054247
-0.157044
0.055902
-0.150836
0.0576391
-0.144885
0.059436
-0.139174
0.0612929
-0.133682
0.0632302
-0.128412
0.0652185
-0.300794
0.0335387
-0.288728
0.0345727
-0.277161
0.0356252
-0.265978
0.0367019
-0.255314
0.0378121
-0.245047
0.0389588
-0.23527
0.0401466
-0.225916
0.0413675
-0.216965
0.042633
-0.208321
0.043916
-0.200065
0.045251
-0.192118
0.0466182
-0.184493
0.0480314
-0.177173
0.0494918
-0.17015
0.0509881
-0.163405
0.0525474
-0.156943
0.0541466
-0.150735
0.0558008
-0.144784
0.0575384
-0.139075
0.059337
-0.133586
0.0611972
-0.12832
0.0631384
-0.123266
0.0651317
-0.300782
0.0325014
-0.28869
0.0335013
-0.27711
0.0345218
-0.265916
0.0355628
-0.255252
0.0366397
-0.244988
0.0377533
-0.235214
0.0389024
-0.225858
0.040089
-0.216903
0.0413055
-0.208253
0.0425648
-0.19999
0.0438414
-0.192037
0.0451707
-0.184408
0.046533
-0.177084
0.0479421
-0.170057
0.0493989
-0.163309
0.0508922
-0.156845
0.0524491
-0.150635
0.0540467
-0.144684
0.0557005
-0.138976
0.0574389
-0.133489
0.05924
-0.128227
0.061104
-0.123178
0.0630498
-0.118315
0.0650488
-0.300769
0.0314957
-0.288653
0.0324642
-0.277061
0.0334518
-0.265857
0.0344624
-0.255194
0.0355048
-0.244934
0.0365853
-0.235161
0.0377006
-0.225804
0.0388477
-0.216843
0.0400293
-0.208187
0.0412395
-0.199918
0.0424927
-0.19196
0.0437639
-0.184326
0.0450886
-0.176997
0.0464468
-0.169967
0.0478523
-0.163216
0.049306
-0.156749
0.0507965
-0.150537
0.0523512
-0.144585
0.0539474
-0.138876
0.0556011
-0.133391
0.0573409
-0.128132
0.0591449
-0.123087
0.0610136
-0.11823
0.0629647
-0.113568
0.0649701
-0.300757
0.0305241
-0.288616
0.0314587
-0.277013
0.0324162
-0.2658
0.0333953
-0.25514
0.0344085
-0.244883
0.0354544
-0.235111
0.0365359
-0.225752
0.0376485
-0.216786
0.0387901
-0.208123
0.0399655
-0.199848
0.0411698
-0.191885
0.0424178
-0.184246
0.0436848
-0.176914
0.0450056
-0.169881
0.0463604
-0.163126
0.0477626
-0.156656
0.0492131
-0.150441
0.0507009
-0.144487
0.0522535
-0.138778
0.0538486
-0.133292
0.0555026
-0.128035
0.0572442
-0.122994
0.059052
-0.118142
0.0609262
-0.113486
0.0628832
-0.109011
0.0648958
-0.300744
0.02958
-0.288579
0.0304874
-0.276967
0.0314123
-0.265747
0.0323627
-0.25509
0.0333453
-0.244836
0.0343617
-0.235065
0.0354079
-0.225702
0.036486
-0.21673
0.0375929
-0.208061
0.0387283
-0.199781
0.0398981
-0.191813
0.0410976
-0.18417
0.0423416
-0.176835
0.043605
-0.169798
0.0449224
-0.16304
0.046274
-0.156567
0.0476729
-0.150349
0.0491204
-0.144392
0.0506055
-0.13868
0.0521561
-0.133194
0.0537503
-0.127938
0.0554049
-0.122899
0.057149
-0.118051
0.0589613
-0.113402
0.0608417
-0.108933
0.0628055
-0.104634
0.0648261
-0.300732
0.0286684
-0.288543
0.0295436
-0.276922
0.0304427
-0.265696
0.0313618
-0.255043
0.0323163
-0.244793
0.0333018
-0.235021
0.0343177
-0.225654
0.03536
-0.216677
0.0364322
-0.208001
0.037533
-0.199716
0.0386632
-0.191743
0.0398285
-0.184097
0.0410243
-0.176758
0.0422649
-0.169718
0.0435251
-0.162957
0.0448393
-0.15648
0.0461877
-0.150259
0.0475834
-0.144299
0.0490278
-0.138585
0.0505103
-0.133097
0.0520589
-0.12784
0.0536525
-0.122802
0.0553081
-0.117958
0.0570553
-0.113314
0.0588728
-0.108852
0.0607605
-0.10456
0.0627319
-0.100437
0.0647614
-0.300719
0.0277829
-0.288507
0.0286324
-0.276879
0.0295006
-0.265648
0.030395
-0.255001
0.0313188
-0.244752
0.0322758
-0.234979
0.0332601
-0.225608
0.0342716
-0.216624
0.0353079
-0.207944
0.0363743
-0.199653
0.0374701
-0.191676
0.0385961
-0.184026
0.0397579
-0.176684
0.0409505
-0.169641
0.0421881
-0.162877
0.0434453
-0.156397
0.0447565
-0.150173
0.0461016
-0.14421
0.0474941
-0.138492
0.0489353
-0.133002
0.0504151
-0.127743
0.0519619
-0.122705
0.053555
-0.117862
0.0552121
-0.113221
0.0569631
-0.108766
0.0587867
-0.104482
0.0606826
-0.100367
0.0626623
-0.0964049
0.0647016
-0.300706
0.0269258
-0.288471
0.0277473
-0.276838
0.0285912
-0.265604
0.0294558
-0.254961
0.0303553
-0.244714
0.0312809
-0.23494
0.0322362
-0.225563
0.0332157
-0.216574
0.0342212
-0.207887
0.0352519
-0.199592
0.0363135
-0.191612
0.0374055
-0.183958
0.0385282
-0.176613
0.039687
-0.169567
0.0408768
-0.1628
0.0421116
-0.156318
0.0433659
-0.150091
0.0446739
-0.144124
0.0460157
-0.138403
0.0474048
-0.132909
0.0488429
-0.127648
0.0503199
-0.122608
0.051865
-0.117765
0.053458
-0.113126
0.055117
-0.108675
0.0568725
-0.104398
0.0587031
-0.100293
0.0606082
-0.0963397
0.0625971
-0.0925385
0.0646472
-0.300692
0.026096
-0.288436
0.0268908
-0.276798
0.0277078
-0.265562
0.0285491
-0.254924
0.029419
-0.244679
0.0303198
-0.234902
0.0312432
-0.22552
0.0321932
-0.216525
0.0331668
-0.207833
0.034167
-0.199533
0.0351932
-0.191549
0.0362511
-0.183893
0.03734
-0.176545
0.03846
-0.169496
0.0396162
-0.162727
0.0408034
-0.156242
0.0420355
-0.150012
0.0432868
-0.144042
0.0445917
-0.138318
0.0459301
-0.13282
0.0473158
-0.127555
0.0487504
-0.122513
0.0502247
-0.117668
0.0517681
-0.113029
0.0533612
-0.108581
0.0550228
-0.104309
0.0567834
-0.100212
0.0586219
-0.0962689
0.0605373
-0.0924778
0.0625364
-0.0888175
0.0645981
-0.300678
0.0252907
-0.288402
0.0260616
-0.27676
0.0268531
-0.265522
0.0276685
-0.25489
0.0285151
-0.244646
0.0293856
-0.234866
0.0302836
-0.225479
0.0312017
-0.216478
0.032146
-0.207781
0.0331144
-0.199477
0.0341103
-0.191489
0.035133
-0.18383
0.0361881
-0.176479
0.0372743
-0.169428
0.0383918
-0.162656
0.0395456
-0.156169
0.0407304
-0.149936
0.0419599
-0.143963
0.0432084
-0.138236
0.04451
-0.132735
0.0458449
-0.127466
0.0472268
-0.12242
0.048658
-0.117573
0.0501294
-0.112933
0.0516712
-0.108484
0.0532647
-0.104216
0.0549292
-0.100124
0.0566959
-0.0961902
0.0585433
-0.0924106
0.0604702
-0.0887613
0.0624802
-0.085257
0.0645547
-0.300664
0.0245112
-0.288368
0.025257
-0.276725
0.0260257
-0.265485
0.0268163
-0.254858
0.0276369
-0.244614
0.0284836
-0.234831
0.029351
-0.225439
0.0302435
-0.216432
0.0311559
-0.20773
0.0320953
-0.199422
0.0330597
-0.191431
0.0340523
-0.183769
0.0350722
-0.176416
0.0361247
-0.169363
0.0372087
-0.162589
0.038324
-0.156099
0.0394757
-0.149864
0.0406581
-0.143888
0.041885
-0.138158
0.0431305
-0.132654
0.0444287
-0.127381
0.0457599
-0.122331
0.0471379
-0.11748
0.0485654
-0.112837
0.0500339
-0.108387
0.0515741
-0.104119
0.0531683
-0.100031
0.0548365
-0.0961043
0.05661
-0.0923346
0.0584673
-0.0886979
0.0604068
-0.0852055
0.0624287
-0.081832
0.064517
-0.30065
0.0237549
-0.288335
0.0244782
-0.27669
0.0252229
-0.265451
0.0259913
-0.254829
0.0267871
-0.244584
0.0276072
-0.234798
0.0284504
-0.2254
0.0293122
-0.216388
0.0301992
-0.207681
0.0311069
-0.199369
0.0320424
-0.191375
0.0330036
-0.18371
0.0339935
-0.176355
0.035011
-0.169299
0.0360614
-0.162523
0.0371434
-0.156032
0.0382568
-0.149794
0.0394065
-0.143817
0.0405867
-0.138084
0.0418109
-0.132577
0.0430534
-0.127301
0.0443481
-0.122247
0.0456753
-0.117391
0.0470491
-0.112744
0.0484726
-0.108291
0.049938
-0.104022
0.0514769
-0.099935
0.0530721
-0.0960122
0.0547444
-0.0922502
0.0565256
-0.0886245
0.0583939
-0.085146
0.0603472
-0.0817853
0.062382
-0.0785526
0.0644852
-0.300635
0.0230218
-0.288303
0.0237228
-0.276658
0.0244459
-0.265419
0.0251908
-0.254802
0.0259642
-0.244556
0.026759
-0.234766
0.0275753
-0.225362
0.0284129
-0.216345
0.0292694
-0.207634
0.0301519
-0.199318
0.0310559
-0.191321
0.0319883
-0.183653
0.0329469
-0.176296
0.0339345
-0.169238
0.0349499
-0.16246
0.0359985
-0.155967
0.0370788
-0.149728
0.0381905
-0.143749
0.0393382
-0.138014
0.0405163
-0.132504
0.0417379
-0.127224
0.0429772
-0.122167
0.044268
-0.117307
0.0455908
-0.112655
0.0469602
-0.108198
0.0483795
-0.103926
0.0498418
-0.0998374
0.0513793
-0.095916
0.0529758
-0.0921588
0.0546529
-0.0885417
0.0564428
-0.0850753
0.0583232
-0.0817297
0.0602916
-0.0785108
0.0623401
-0.0753937
0.0644595
-0.30062
0.0223132
-0.288272
0.0229905
-0.276627
0.0236921
-0.265389
0.024416
-0.254777
0.0251657
-0.24453
0.0259375
-0.234735
0.0267282
-0.225326
0.027539
-0.216304
0.0283715
-0.207588
0.0292237
-0.199269
0.0301027
-0.191269
0.0310037
-0.183599
0.0319335
-0.176239
0.0328898
-0.169179
0.0338753
-0.1624
0.0348891
-0.155905
0.0359362
-0.149664
0.037015
-0.143683
0.0381252
-0.137947
0.0392712
-0.132434
0.0404471
-0.127152
0.0416659
-0.122091
0.0429017
-0.117227
0.0441884
-0.112571
0.0455066
-0.108109
0.0468712
-0.103832
0.048286
-0.0997406
0.049745
-0.0958179
0.0512812
-0.0920625
0.0528796
-0.0884509
0.0545621
-0.084994
0.0563615
-0.0816616
0.0582551
-0.0784591
0.0602399
-0.0753568
0.0623032
-0.0723705
0.0644399
-0.300604
0.0216251
-0.288241
0.0222828
-0.276598
0.0229615
-0.265361
0.0236643
-0.254754
0.0243926
-0.244504
0.0251402
-0.234706
0.0259079
-0.225291
0.0266932
-0.216264
0.0274991
-0.207544
0.0283275
-0.199221
0.0291763
-0.191218
0.0300522
-0.183545
0.0309506
-0.176183
0.0318782
-0.169122
0.0328325
-0.162341
0.0338165
-0.155844
0.0348289
-0.149603
0.0358748
-0.143621
0.0369524
-0.137883
0.0380613
-0.132369
0.0392056
-0.127084
0.0403792
-0.12202
0.041595
-0.117153
0.0428272
-0.112492
0.0441094
-0.108025
0.0454226
-0.103743
0.0467819
-0.0996466
0.048192
-0.0957205
0.0496476
-0.0919639
0.0511827
-0.0883545
0.0527831
-0.0849037
0.0544718
-0.0815819
0.0562818
-0.0783937
0.0581898
-0.0753091
0.0601923
-0.0723385
0.0622712
-0.0694679
0.0644265
-0.300588
0.0209575
-0.288212
0.0215956
-0.276571
0.0222554
-0.265335
0.0229357
-0.254732
0.0236426
-0.24448
0.0243684
-0.234677
0.0251117
-0.225257
0.0258741
-0.216225
0.0266547
-0.207502
0.0274567
-0.199176
0.0282817
-0.19117
0.0291275
-0.183494
0.0300009
-0.17613
0.0308971
-0.169066
0.0318227
-0.162284
0.0327755
-0.155786
0.0337582
-0.149544
0.0347696
-0.14356
0.0358145
-0.137821
0.0368912
-0.132306
0.0379988
-0.12702
0.0391414
-0.121954
0.0403127
-0.117083
0.0415254
-0.112418
0.0427535
-0.107947
0.0440308
-0.103659
0.0453386
-0.099557
0.0466923
-0.0956259
0.0480974
-0.0918658
0.0495495
-0.0882553
0.0510835
-0.0848071
0.0526865
-0.0814922
0.0543821
-0.0783155
0.0562036
-0.0752465
0.0581271
-0.0722949
0.0601487
-0.0694408
0.0622441
-0.0666808
0.0644195
-0.300572
0.0203118
-0.288183
0.0209291
-0.276545
0.0215698
-0.265311
0.0222314
-0.254712
0.0229154
-0.244457
0.0236194
-0.23465
0.024341
-0.225225
0.0250791
-0.216188
0.025837
-0.207461
0.0266138
-0.199131
0.0274125
-0.191122
0.0282346
-0.183444
0.0290778
-0.176078
0.029949
-0.169013
0.0308432
-0.162228
0.0317673
-0.15573
0.0327189
-0.149486
0.0337008
-0.143502
0.0347115
-0.137762
0.0357557
-0.132247
0.0368315
-0.126959
0.037938
-0.121891
0.0390789
-0.117018
0.0402478
-0.11235
0.041457
-0.107874
0.0426808
-0.103581
0.0439528
-0.0994731
0.0452546
-0.0955359
0.0466023
-0.0917704
0.0480021
-0.0881564
0.0494505
-0.0847073
0.0509837
-0.0813953
0.0525897
-0.0782263
0.0542928
-0.0751698
0.0561269
-0.0722349
0.0580672
-0.0694012
0.0601091
-0.0666587
0.062222
-0.0640044
0.0644189
-0.300555
0.0196854
-0.288156
0.0202844
-0.276521
0.0209047
-0.265289
0.0215475
-0.254693
0.0222124
-0.244435
0.0228933
-0.234623
0.023593
-0.225193
0.0243095
-0.216152
0.0250434
-0.207421
0.0257977
-0.199089
0.0265713
-0.191077
0.027367
-0.183396
0.0281865
-0.176027
0.0290275
-0.16896
0.0298967
-0.162175
0.0307894
-0.155675
0.0317124
-0.14943
0.0326632
-0.143446
0.0336445
-0.137706
0.0346547
-0.132189
0.0356985
-0.126902
0.0367737
-0.121832
0.0378791
-0.116957
0.0390182
-0.112287
0.0401844
-0.107807
0.0413899
-0.103509
0.0426089
-0.0993954
0.0438752
-0.0954519
0.0451706
-0.0916799
0.0465119
-0.0880602
0.047906
-0.0846074
0.0493506
-0.0812947
0.0508831
-0.0781291
0.0524925
-0.075081
0.0542041
-0.0721597
0.0560517
-0.0693439
0.0580098
-0.0666232
0.0600735
-0.0639872
0.0622048
-0.0614386
0.0644247
-0.300538
0.0190781
-0.28813
0.0196591
-0.276498
0.0202615
-0.265268
0.020884
-0.254675
0.0215297
-0.244413
0.0221912
-0.234598
0.0228678
-0.225163
0.0235627
-0.216118
0.0242752
-0.207384
0.0250056
-0.199048
0.0257567
-0.191033
0.0265274
-0.18335
0.0273205
-0.175979
0.0281377
-0.16891
0.0289768
-0.162122
0.0298444
-0.155621
0.030736
-0.149376
0.0316581
-0.143391
0.0326085
-0.137651
0.0335895
-0.132134
0.0345996
-0.126846
0.0356432
-0.121777
0.0367178
-0.1169
0.0378221
-0.112228
0.0389593
-0.107745
0.0401227
-0.103444
0.0413242
-0.0993244
0.0425379
-0.0953746
0.0437979
-0.0915958
0.0450864
-0.0879692
0.0464208
-0.0845104
0.047809
-0.0811939
0.0492498
-0.0780277
0.0507817
-0.0749835
0.0523951
-0.0720713
0.0541157
-0.0692702
0.055978
-0.0665685
0.0579552
-0.0639557
0.060042
-0.0614262
0.0621925
-0.0589734
0.0644369
-0.300521
0.0184889
-0.288105
0.019053
-0.276476
0.0196374
-0.265249
0.0202423
-0.254658
0.0208674
-0.244393
0.0215095
-0.234573
0.0221668
-0.225134
0.0228387
-0.216085
0.0235298
-0.207347
0.0242388
-0.199008
0.0249661
-0.190991
0.0257143
-0.183305
0.0264824
-0.175931
0.0272732
-0.16886
0.0280884
-0.162071
0.0289258
-0.155569
0.0297923
-0.149323
0.0306831
-0.143338
0.0316048
-0.137597
0.0325551
-0.132081
0.0335362
-0.126793
0.0345464
-0.121723
0.0355899
-0.116847
0.0366641
-0.112173
0.0377673
-0.107688
0.0389025
-0.103384
0.0400627
-0.09926
0.0412597
-0.0953045
0.0424678
-0.0915189
0.043721
-0.0878848
0.0450021
-0.0844187
0.0463291
-0.0810959
0.047711
-0.0779258
0.0491479
-0.0748813
0.0506794
-0.0719735
0.0522972
-0.0691822
0.0540278
-0.0664962
0.0559057
-0.0639036
0.0579031
-0.0613987
0.0600144
-0.0589658
0.0621849
-0.0566037
0.0644556
-0.300503
0.0179189
-0.288081
0.0184648
-0.276456
0.0190325
-0.265231
0.0196196
-0.254642
0.0202266
-0.244374
0.0208479
-0.23455
0.0214859
-0.225106
0.0221388
-0.216053
0.0228071
-0.207312
0.0234948
-0.19897
0.0242008
-0.19095
0.0249253
-0.183261
0.0256709
-0.175886
0.0264366
-0.168812
0.0272253
-0.162022
0.0280389
-0.155518
0.028875
-0.149272
0.0297407
-0.143286
0.030631
-0.137545
0.0315527
-0.132029
0.0325032
-0.126742
0.0334847
-0.121672
0.0344952
-0.116795
0.0355388
-0.112122
0.0366126
-0.107636
0.0377147
-0.103329
0.0388477
-0.0992018
0.0400044
-0.0952414
0.0411966
-0.0914496
0.0423985
-0.0878082
0.0436443
-0.084334
0.0449175
-0.0810034
0.0462367
-0.0778268
0.047612
-0.0747783
0.0490449
-0.0718704
0.0505763
-0.069084
0.052199
-0.0664087
0.0539402
-0.0638327
0.0558349
-0.0613491
0.0578535
-0.0589421
0.0599907
-0.0566008
0.062182
-0.0543396
0.0644808
-0.300484
0.0173669
-0.288058
0.017896
-0.276437
0.0184455
-0.265215
0.019016
-0.254628
0.0196048
-0.244355
0.0202079
-0.234527
0.0208253
-0.225079
0.0214591
-0.216023
0.0221085
-0.207279
0.0227735
-0.198934
0.0234583
-0.190911
0.0241615
-0.183219
0.0248833
-0.175841
0.0256264
-0.168766
0.0263901
-0.161973
0.0271771
-0.155469
0.0279893
-0.149221
0.0288246
-0.143235
0.0296897
-0.137494
0.0305801
-0.131978
0.0315021
-0.126691
0.0324531
-0.121623
0.0334352
-0.116747
0.0344463
-0.112073
0.0354901
-0.107587
0.0365636
-0.103278
0.0376644
-0.0991491
0.038795
-0.095185
0.039948
-0.0913878
0.0411349
-0.0877397
0.04233
-0.0842576
0.0435679
-0.0809185
0.0448325
-0.0777336
0.0461434
-0.0746782
0.0475119
-0.0717662
0.0489408
-0.06898
0.0504722
-0.0663101
0.0521004
-0.0637456
0.0538531
-0.0612797
0.0557654
-0.0588951
0.0578065
-0.0565809
0.0599709
-0.0543413
0.0621836
-0.0521611
0.0645123
-0.300466
0.0168302
-0.288036
0.0173451
-0.276418
0.0178778
-0.265199
0.0184303
-0.254614
0.0190021
-0.244337
0.0195869
-0.234506
0.0201862
-0.225053
0.0207996
-0.215994
0.02143
-0.207247
0.0220763
-0.198899
0.0227385
-0.190873
0.0234204
-0.183179
0.0241209
-0.175798
0.0248403
-0.168721
0.0255813
-0.161927
0.0263431
-0.15542
0.0271287
-0.149172
0.0279399
-0.143185
0.0287747
-0.137444
0.0296398
-0.131929
0.0305304
-0.126642
0.0314531
-0.121575
0.0324049
-0.116699
0.033388
-0.112026
0.0343998
-0.107541
0.035444
-0.103232
0.0365171
-0.0991012
0.0376165
-0.0951345
0.0387445
-0.0913332
0.0398933
-0.0876793
0.0410745
-0.0841899
0.0422623
-0.0808422
0.0434917
-0.0776482
0.0447471
-0.0745841
0.0460493
-0.071665
0.0474107
-0.0688747
0.0488355
-0.0662051
0.0503672
-0.0636466
0.0520014
-0.0611929
0.0537663
-0.058827
0.0556974
-0.0565363
0.0577618
-0.0543252
0.0599548
-0.0521672
0.0621897
-0.050068
0.0645502
-0.300447
0.0163103
-0.288015
0.0168096
-0.276401
0.0173279
-0.265185
0.0178636
-0.2546
0.018417
-0.24432
0.0189849
-0.234485
0.0195661
-0.225029
0.0201616
-0.215966
0.0207718
-0.207216
0.0213992
-0.198865
0.0220426
-0.190836
0.022702
-0.18314
0.0233813
-0.175757
0.0240793
-0.168677
0.0247965
-0.161881
0.0255356
-0.155373
0.0262959
-0.149123
0.0270804
-0.143136
0.027891
-0.137395
0.0287256
-0.13188
0.0295909
-0.126594
0.0304823
-0.121527
0.0314059
-0.116653
0.032359
-0.111982
0.0333431
-0.107497
0.0343559
-0.103188
0.0354005
-0.0990573
0.0364732
-0.0950891
0.0375712
-0.0912849
0.0386963
-0.0876265
0.0398405
-0.0841308
0.0410154
-0.0807753
0.0421954
-0.0775721
0.0434156
-0.0744983
0.0446614
-0.07157
0.0459544
-0.0687723
0.0473083
-0.0660986
0.048729
-0.0635407
0.0502613
-0.0610935
0.051902
-0.0587406
0.0536799
-0.0564696
0.0556307
-0.0542829
0.0577196
-0.0521547
0.0599424
-0.0500784
0.0622001
-0.0480605
0.0645943
-0.300427
0.015807
-0.287996
0.0162908
-0.276385
0.0167933
-0.265172
0.0173148
-0.254588
0.0178511
-0.244304
0.0184006
-0.234465
0.018965
-0.225005
0.0195425
-0.21594
0.020135
-0.207186
0.0207423
-0.198833
0.0213669
-0.190801
0.0220075
-0.183102
0.0226643
-0.175716
0.0233411
-0.168634
0.0240369
-0.161836
0.024752
-0.155327
0.0254895
-0.149076
0.0262486
-0.143088
0.0270324
-0.137347
0.0278427
-0.131832
0.0286775
-0.126547
0.0295435
-0.121481
0.0304359
-0.116608
0.0313608
-0.111938
0.0323153
-0.107454
0.0333009
-0.103147
0.0343148
-0.0990166
0.0353598
-0.095048
0.0364321
-0.0912421
0.0375284
-0.0875805
0.0386503
-0.0840798
0.0397896
-0.0807175
0.0409576
-0.0775058
0.0421291
-0.0744223
0.0433395
-0.0714838
0.0445751
-0.0686764
0.0458585
-0.0659951
0.0472048
-0.063433
0.0486214
-0.0609867
0.0501546
-0.0586409
0.0518023
-0.0563836
0.0535939
-0.0542176
0.0555653
-0.0521148
0.0576796
-0.0500695
0.0599335
-0.048075
0.0622146
-0.0461385
0.0646445
-0.300407
0.0153179
-0.287977
0.0157887
-0.276369
0.0162753
-0.26516
0.0167812
-0.254576
0.0173029
-0.244288
0.0178354
-0.234446
0.0183815
-0.224983
0.0189424
-0.215914
0.0195171
-0.207158
0.0201068
-0.198802
0.0207113
-0.190767
0.0213332
-0.183066
0.0219712
-0.175677
0.0226254
-0.168593
0.0232999
-0.161793
0.0239937
-0.155282
0.0247071
-0.14903
0.0254432
-0.143041
0.0262014
-0.137299
0.0269848
-0.131784
0.0277952
-0.1265
0.0286306
-0.121435
0.0294976
-0.116564
0.0303914
-0.111895
0.031318
-0.107413
0.0322742
-0.103108
0.0332613
-0.0989783
0.0342764
-0.0950101
0.035322
-0.0912037
0.0363937
-0.0875403
0.0374882
-0.0840361
0.0386065
-0.0806684
0.0397405
-0.0774493
0.0409011
-0.0743567
0.0420635
-0.0714078
0.0432636
-0.0685896
0.0444883
-0.0658982
0.0457616
-0.0633283
0.0471001
-0.060878
0.0485126
-0.0585332
0.0500469
-0.0562836
0.0517022
-0.054132
0.0535084
-0.0520507
0.0555012
-0.0500318
0.0576419
-0.0480695
0.059928
-0.0461569
0.062233
-0.0442868
0.0647006
-0.300387
0.0148455
-0.28796
0.0153007
-0.276355
0.015774
-0.265149
0.0162642
-0.254565
0.0167699
-0.244273
0.0172878
-0.234427
0.0178171
-0.224961
0.01836
-0.21589
0.0189182
-0.207131
0.0194901
-0.198772
0.0200771
-0.190735
0.0206789
-0.183031
0.0212982
-0.17564
0.0219337
-0.168553
0.0225856
-0.161751
0.023258
-0.155238
0.0239499
-0.148985
0.0246619
-0.142995
0.025397
-0.137252
0.0261546
-0.131737
0.0269379
-0.126454
0.0277487
-0.12139
0.0285851
-0.11652
0.0294535
-0.111853
0.030349
-0.107373
0.0312775
-0.103069
0.0322357
-0.0989415
0.0332246
-0.0949747
0.034241
-0.0911688
0.0352871
-0.0875048
0.0363582
-0.0839986
0.0374506
-0.080627
0.0385651
-0.0774021
0.0396932
-0.0743015
0.0408459
-0.0713428
0.0419986
-0.0685137
0.0431876
-0.0658109
0.044401
-0.0632306
0.0456639
-0.0607721
0.0469943
-0.0584234
0.0484027
-0.0561751
0.0499385
-0.0540316
0.0516019
-0.0519656
0.0534232
-0.049969
0.0554385
-0.0480339
0.0576063
-0.0461547
0.0599258
-0.0443091
0.0622553
-0.0425106
0.0647625
-0.300367
0.0143872
-0.287944
0.0148295
-0.276341
0.0152867
-0.265139
0.0157638
-0.254554
0.0162534
-0.244259
0.0167555
-0.23441
0.0172704
-0.22494
0.0177965
-0.215867
0.0183368
-0.207105
0.0188924
-0.198744
0.0194617
-0.190704
0.0200461
-0.182997
0.0206453
-0.175604
0.0212621
-0.168515
0.0218952
-0.161711
0.0225449
-0.155196
0.0232154
-0.14894
0.0239057
-0.142949
0.0246165
-0.137206
0.0253508
-0.131691
0.0261082
-0.126407
0.0268918
-0.121344
0.0277035
-0.116476
0.0285412
-0.11181
0.0294113
-0.107333
0.0303089
-0.103031
0.0312396
-0.0989058
0.0322
-0.0949409
0.0331908
-0.0911365
0.0342086
-0.0874729
0.0352552
-0.083966
0.0363257
-0.0805921
0.0374157
-0.0773629
0.038526
-0.074256
0.0396477
-0.0712889
0.0407919
-0.0684493
0.0419343
-0.065735
0.0431117
-0.0631427
0.0443132
-0.0606734
0.0455652
-0.0583164
0.0468873
-0.0560642
0.0482918
-0.0539224
0.0498293
-0.051865
0.0515013
-0.0498843
0.0533385
-0.0479724
0.055377
-0.0461212
0.0575727
-0.04431
0.0599267
-0.0425365
0.0622812
-0.0408149
0.0648299
-0.300346
0.0139418
-0.287929
0.0143723
-0.276327
0.0148161
-0.26513
0.0152773
-0.254543
0.0157534
-0.244245
0.0162396
-0.234393
0.0167388
-0.224921
0.0172508
-0.215845
0.0177744
-0.207081
0.0183122
-0.198717
0.0188652
-0.190674
0.019432
-0.182965
0.0200138
-0.175569
0.0206105
-0.168478
0.0212249
-0.161671
0.0218558
-0.155154
0.0225035
-0.148897
0.0231722
-0.142905
0.0238612
-0.137161
0.0245711
-0.131645
0.025305
-0.126362
0.0260626
-0.121299
0.0268468
-0.116432
0.0276597
-0.111768
0.028499
-0.107293
0.0293712
-0.102994
0.0302712
-0.0988706
0.0312044
-0.0949081
0.0321671
-0.0911057
0.0331601
-0.0874436
0.0341793
-0.0839372
0.0352264
-0.0805624
0.036296
-0.0773307
0.0373835
-0.0742192
0.0384892
-0.0712452
0.039604
-0.0683966
0.0407392
-0.0656712
0.0418705
-0.0630667
0.0430357
-0.060585
0.0442248
-0.0582168
0.0454655
-0.0559562
0.0467793
-0.0538105
0.0481799
-0.0517551
0.0497194
-0.0497836
0.0514006
-0.0478882
0.0532543
-0.0460609
0.0553167
-0.0442784
0.0575412
-0.0425403
0.0599306
-0.0408442
0.0623105
-0.0391743
0.0649027
-0.300324
0.0135118
-0.287915
0.013928
-0.276314
0.0143595
-0.265121
0.0148074
-0.254534
0.0152674
-0.244232
0.0157403
-0.234377
0.0162237
-0.224902
0.0167201
-0.215824
0.0172297
-0.207057
0.0177509
-0.198691
0.0182862
-0.190646
0.0188367
-0.182934
0.019401
-0.175536
0.0199803
-0.168442
0.0205746
-0.161633
0.0211867
-0.155114
0.0218155
-0.148855
0.0224614
-0.142861
0.0231287
-0.137116
0.0238166
-0.1316
0.0245258
-0.126316
0.0252597
-0.121254
0.0260177
-0.116388
0.026803
-0.111726
0.0276174
-0.107252
0.0284587
-0.102956
0.0293334
-0.0988353
0.0302359
-0.0948756
0.0311719
-0.0910758
0.0321372
-0.087416
0.0331324
-0.083911
0.0341532
-0.0805368
0.0352007
-0.0773041
0.0362694
-0.0741897
0.037354
-0.0712107
0.0384547
-0.0683547
0.0395622
-0.0656196
0.0406876
-0.0630035
0.0418073
-0.0605089
0.0429596
-0.0581278
0.0441358
-0.0558557
0.045365
-0.0537014
0.0466702
-0.0516422
0.048067
-0.0496731
0.0496089
-0.0477874
0.0512998
-0.0459772
0.0531706
-0.0442194
0.0552577
-0.0425107
0.0575116
-0.0408508
0.0599372
-0.0392069
0.0623431
-0.0376092
0.0649805
-0.300303
0.0130934
-0.287903
0.0134991
-0.276302
0.0139157
-0.265113
0.0143516
-0.254524
0.0147979
-0.244219
0.0152548
-0.234362
0.0157251
-0.224884
0.0162059
-0.215804
0.0167001
-0.207035
0.0172073
-0.198666
0.0177262
-0.190619
0.018259
-0.182904
0.018807
-0.175503
0.0193688
-0.168407
0.0199457
-0.161596
0.0205378
-0.155075
0.0211477
-0.148814
0.0217746
-0.142819
0.0224188
-0.137072
0.0230848
-0.131555
0.0237719
-0.126272
0.0244809
-0.12121
0.025215
-0.116344
0.0259738
-0.111684
0.0267605
-0.107212
0.0275768
-0.102917
0.0284205
-0.0987998
0.0292978
-0.0948429
0.0302033
-0.0910461
0.0311422
-0.0873891
0.0321104
-0.0838865
0.0331079
-0.0805138
0.0341302
-0.0772815
0.0351782
-0.074166
0.0362457
-0.0711839
0.0373272
-0.0683224
0.0384225
-0.0655795
0.039522
-0.0629531
0.0406372
-0.0604463
0.0417447
-0.0580517
0.0428835
-0.0557662
0.0440463
-0.0536001
0.0452637
-0.0515322
0.0465602
-0.0495594
0.0479533
-0.0476764
0.0494979
-0.0458764
0.0511989
-0.0441363
0.0530875
-0.0424529
0.0551999
-0.040823
0.0574838
-0.0392162
0.0599465
-0.0376449
0.0623788
-0.0360993
0.0650631
-0.300281
0.0126879
-0.287891
0.0130817
-0.27629
0.0134873
-0.265106
0.0139085
-0.254515
0.0143425
-0.244207
0.014786
-0.234348
0.0152404
-0.224867
0.0157082
-0.215785
0.0161868
-0.207013
0.0166787
-0.198642
0.0171837
-0.190593
0.0177001
-0.182876
0.0182306
-0.175473
0.0187762
-0.168374
0.0193356
-0.16156
0.0199101
-0.155037
0.0204999
-0.148774
0.0211078
-0.142777
0.021733
-0.137029
0.0223758
-0.131511
0.0230408
-0.126227
0.0237274
-0.121165
0.0244364
-0.1163
0.0251712
-0.111641
0.0259311
-0.107171
0.0267195
-0.102879
0.0275381
-0.0987637
0.0283844
-0.0948099
0.0292648
-0.0910162
0.0301734
-0.0873624
0.0311155
-0.0838627
0.0320866