/*--------------------------------*- C++ -*----------------------------------*\
  =========                 |
  \\      /  F ield         | OpenFOAM: The Open Source CFD Toolbox
   \\    /   O peration     | Website:  https://openfoam.org
    \\  /    A nd           | Version:  7
     \\/     M anipulation  |
\*---------------------------------------------------------------------------*/
FoamFile
{
    version     2.0;
    format      ascii;
    class       volVectorField;
    location    "800";
    object      U;
}
// * * * * * * * * * * * * * * * * * * * * * * * * * * * * * * * * * * * * * //

dimensions      [0 1 -1 0 0 0 0];

internalField   nonuniform List<vector> 
23117
(
(49.9615 13.1556 0)
(49.9089 13.0982 0)
(50.0474 13.1501 0)
(49.8866 13.0628 0)
(50.007 13.1434 0)
(50.1039 13.1251 0)
(49.8687 13.0287 0)
(49.9872 13.1305 0)
(50.0695 13.1172 0)
(50.1632 13.0873 0)
(49.8574 12.9995 0)
(49.9635 13.1153 0)
(50.0509 13.1069 0)
(50.1245 13.0751 0)
(50.204 13.0596 0)
(49.8487 12.9742 0)
(49.946 13.1012 0)
(50.0277 13.0954 0)
(50.1041 13.0636 0)
(50.1617 13.0505 0)
(50.2288 13.0302 0)
(49.8419 12.9522 0)
(49.9307 13.0886 0)
(50.0088 13.0835 0)
(50.0786 13.052 0)
(50.1395 13.04 0)
(50.1813 13.0208 0)
(50.2391 12.9975 0)
(49.8362 12.933 0)
(49.9178 13.078 0)
(49.9912 13.0721 0)
(50.0568 13.0405 0)
(50.1102 13.0294 0)
(50.1565 13.01 0)
(50.1863 12.987 0)
(50.2388 12.9641 0)
(49.8313 12.9162 0)
(49.9065 13.0691 0)
(49.9754 13.0613 0)
(50.0357 13.0297 0)
(50.0844 13.0189 0)
(50.1235 12.9994 0)
(50.1596 12.9759 0)
(50.1837 12.9536 0)
(50.2362 12.9318 0)
(49.8271 12.9016 0)
(49.8963 13.0619 0)
(49.9609 13.0515 0)
(50.016 13.0196 0)
(50.059 13.0088 0)
(50.0942 12.9889 0)
(50.1241 12.9654 0)
(50.1572 12.9429 0)
(50.1828 12.9221 0)
(50.239 12.9024 0)
(49.8233 12.8889 0)
(49.887 13.0562 0)
(49.9475 13.0427 0)
(49.9972 13.0103 0)
(50.0348 12.9994 0)
(50.0652 12.9789 0)
(50.0931 12.9552 0)
(50.1216 12.9331 0)
(50.1583 12.9125 0)
(50.1899 12.8943 0)
(50.2504 12.8767 0)
(49.8199 12.878 0)
(49.8784 13.0519 0)
(49.9348 13.0348 0)
(49.9791 13.002 0)
(50.0115 12.9907 0)
(50.0378 12.9696 0)
(50.0627 12.9458 0)
(50.0914 12.9238 0)
(50.1249 12.9036 0)
(50.1677 12.8855 0)
(50.2056 12.8702 0)
(50.269 12.8541 0)
(49.8167 12.8685 0)
(49.8703 13.0487 0)
(49.9227 13.0278 0)
(49.9618 12.9947 0)
(49.9891 12.9829 0)
(50.0116 12.961 0)
(50.0345 12.9371 0)
(50.0621 12.9155 0)
(50.0969 12.8956 0)
(50.137 12.8777 0)
(50.185 12.8619 0)
(50.2266 12.8486 0)
(50.2909 12.8332 0)
(49.8138 12.8605 0)
(49.8626 13.0467 0)
(49.911 13.0216 0)
(49.945 12.9883 0)
(49.9676 12.9759 0)
(49.9868 12.9533 0)
(50.008 12.9295 0)
(50.0353 12.9081 0)
(50.0699 12.8884 0)
(50.1113 12.8707 0)
(50.1561 12.8547 0)
(50.2063 12.8402 0)
(50.2484 12.828 0)
(50.3124 12.8129 0)
(49.8111 12.8537 0)
(49.8552 13.0455 0)
(49.8998 13.0162 0)
(49.9286 12.9827 0)
(49.947 12.9697 0)
(49.9633 12.9465 0)
(49.9832 12.9228 0)
(50.0103 12.9017 0)
(50.0451 12.8823 0)
(50.0861 12.8645 0)
(50.1313 12.8482 0)
(50.1775 12.833 0)
(50.2273 12.819 0)
(50.268 12.8074 0)
(50.3313 12.7925 0)
(49.8085 12.8481 0)
(49.848 13.0452 0)
(49.8888 13.0114 0)
(49.9128 12.978 0)
(49.9272 12.9644 0)
(49.9412 12.9407 0)
(49.9603 12.9172 0)
(49.9873 12.8964 0)
(50.022 12.8771 0)
(50.0626 12.8592 0)
(50.1065 12.8424 0)
(50.1522 12.8265 0)
(50.1975 12.8115 0)
(50.2456 12.7975 0)
(50.2842 12.7864 0)
(50.3468 12.772 0)
(49.8061 12.8434 0)
(49.841 13.0457 0)
(49.8781 13.0073 0)
(49.8974 12.9741 0)
(49.9083 12.9599 0)
(49.9205 12.9358 0)
(49.939 12.9125 0)
(49.966 12.892 0)
(50.0006 12.8729 0)
(50.0403 12.8548 0)
(50.0829 12.8374 0)
(50.1265 12.8206 0)
(50.1707 12.8045 0)
(50.2141 12.7896 0)
(50.2605 12.7758 0)
(50.2973 12.7651 0)
(50.3597 12.7514 0)
(49.8038 12.8398 0)
(49.8342 13.0468 0)
(49.8676 13.0038 0)
(49.8824 12.971 0)
(49.8903 12.9562 0)
(49.9011 12.9318 0)
(49.9193 12.9089 0)
(49.9463 12.8887 0)
(49.9805 12.8696 0)
(50.0192 12.8512 0)
(50.06 12.8332 0)
(50.1016 12.8155 0)
(50.1433 12.7983 0)
(50.1856 12.7821 0)
(50.2273 12.7672 0)
(50.2726 12.7539 0)
(50.3082 12.7439 0)
(50.3707 12.7311 0)
(49.8015 12.8369 0)
(49.8274 13.0484 0)
(49.8573 13.0008 0)
(49.8679 12.9686 0)
(49.8733 12.9533 0)
(49.883 12.9287 0)
(49.9011 12.9062 0)
(49.928 12.8863 0)
(49.9617 12.8672 0)
(49.999 12.8484 0)
(50.0378 12.8298 0)
(50.0771 12.8112 0)
(50.1166 12.793 0)
(50.1564 12.7755 0)
(50.1973 12.7592 0)
(50.238 12.7448 0)
(50.2828 12.7321 0)
(50.3178 12.723 0)
(50.3804 12.7113 0)
(49.7994 12.8349 0)
(49.8208 13.0506 0)
(49.8472 12.9982 0)
(49.8539 12.9668 0)
(49.8571 12.9511 0)
(49.8662 12.9265 0)
(49.8843 12.9044 0)
(49.9111 12.8847 0)
(49.9439 12.8655 0)
(49.9797 12.8464 0)
(50.0164 12.8271 0)
(50.0533 12.8077 0)
(50.0904 12.7884 0)
(50.1281 12.7697 0)
(50.1666 12.7522 0)
(50.2067 12.7363 0)
(50.2471 12.7225 0)
(50.2919 12.7107 0)
(50.3266 12.7025 0)
(50.3893 12.692 0)
(49.7972 12.8336 0)
(49.8142 13.0532 0)
(49.8372 12.9961 0)
(49.8403 12.9657 0)
(49.8419 12.9495 0)
(49.8506 12.925 0)
(49.8688 12.9034 0)
(49.8954 12.8839 0)
(49.9272 12.8646 0)
(49.9611 12.8451 0)
(49.9956 12.8252 0)
(50.0301 12.8049 0)
(50.0647 12.7847 0)
(50.1001 12.765 0)
(50.1367 12.7462 0)
(50.1748 12.7289 0)
(50.2148 12.7135 0)
(50.2553 12.7005 0)
(50.3003 12.6897 0)
(50.3348 12.6827 0)
(50.3977 12.6734 0)
(49.7952 12.8329 0)
(49.8076 13.0561 0)
(49.8275 12.9944 0)
(49.8273 12.9652 0)
(49.8275 12.9486 0)
(49.8361 12.9243 0)
(49.8544 12.9031 0)
(49.8806 12.8838 0)
(49.9112 12.8643 0)
(49.9433 12.8444 0)
(49.9755 12.8239 0)
(50.0075 12.8029 0)
(50.0398 12.7818 0)
(50.0729 12.7611 0)
(50.1074 12.7412 0)
(50.1437 12.7226 0)
(50.1818 12.7057 0)
(50.2221 12.6909 0)
(50.2629 12.6788 0)
(50.3082 12.6692 0)
(50.3426 12.6634 0)
(50.4055 12.6555 0)
(49.7931 12.8328 0)
(49.8011 13.0594 0)
(49.818 12.993 0)
(49.8148 12.9652 0)
(49.8141 12.9483 0)
(49.8227 12.9243 0)
(49.8411 12.9036 0)
(49.8668 12.8843 0)
(49.896 12.8646 0)
(49.9261 12.8443 0)
(49.956 12.8232 0)
(49.9856 12.8015 0)
(50.0155 12.7797 0)
(50.0464 12.7582 0)
(50.0788 12.7372 0)
(50.1132 12.7174 0)
(50.1496 12.699 0)
(50.1881 12.6826 0)
(50.2289 12.6686 0)
(50.27 12.6576 0)
(50.3157 12.6492 0)
(50.3501 12.6447 0)
(50.4129 12.6383 0)
(49.7911 12.8332 0)
(49.7946 13.0629 0)
(49.8088 12.992 0)
(49.8028 12.9658 0)
(49.8015 12.9486 0)
(49.8103 12.9249 0)
(49.8287 12.9046 0)
(49.8537 12.8854 0)
(49.8815 12.8654 0)
(49.9095 12.8447 0)
(49.9371 12.8231 0)
(49.9644 12.8008 0)
(49.9921 12.7784 0)
(50.0208 12.7561 0)
(50.0511 12.7343 0)
(50.0834 12.7133 0)
(50.1179 12.6936 0)
(50.1548 12.6756 0)
(50.1938 12.6598 0)
(50.2352 12.6467 0)
(50.2768 12.6367 0)
(50.3228 12.6297 0)
(50.3572 12.6267 0)
(50.4198 12.6218 0)
(49.789 12.834 0)
(49.7882 13.0666 0)
(49.7997 12.9912 0)
(49.7914 12.9668 0)
(49.7898 12.9494 0)
(49.7988 12.9261 0)
(49.8172 12.9062 0)
(49.8414 12.8869 0)
(49.8675 12.8668 0)
(49.8934 12.8456 0)
(49.9188 12.8235 0)
(49.9439 12.8008 0)
(49.9694 12.7778 0)
(49.996 12.7549 0)
(50.0243 12.7323 0)
(50.0545 12.7104 0)
(50.087 12.6895 0)
(50.1219 12.67 0)
(50.1594 12.6524 0)
(50.1991 12.6372 0)
(50.2411 12.625 0)
(50.2834 12.6163 0)
(50.3297 12.6108 0)
(50.3641 12.6093 0)
(50.4263 12.6061 0)
(49.787 12.8353 0)
(49.7818 13.0705 0)
(49.791 12.9908 0)
(49.7806 12.9683 0)
(49.7789 12.9506 0)
(49.7882 12.9278 0)
(49.8064 12.9083 0)
(49.8296 12.889 0)
(49.854 12.8685 0)
(49.8779 12.847 0)
(49.9011 12.8244 0)
(49.924 12.8012 0)
(49.9475 12.7778 0)
(49.9722 12.7544 0)
(49.9984 12.7312 0)
(50.0265 12.7085 0)
(50.0569 12.6865 0)
(50.0898 12.6657 0)
(50.1252 12.6464 0)
(50.1634 12.6292 0)
(50.2039 12.6148 0)
(50.2468 12.6037 0)
(50.2897 12.5963 0)
(50.3364 12.5925 0)
(50.3707 12.5927 0)
(50.4324 12.5913 0)
(49.7849 12.837 0)
(49.7754 13.0746 0)
(49.7825 12.9905 0)
(49.7703 12.9702 0)
(49.7687 12.9522 0)
(49.7783 12.9299 0)
(49.7963 12.9107 0)
(49.8183 12.8914 0)
(49.841 12.8707 0)
(49.8628 12.8487 0)
(49.8839 12.8258 0)
(49.9049 12.8022 0)
(49.9265 12.7784 0)
(49.9492 12.7545 0)
(49.9734 12.7308 0)
(49.9995 12.7075 0)
(50.0278 12.6847 0)
(50.0585 12.6627 0)
(50.0918 12.6419 0)
(50.128 12.6229 0)
(50.167 12.6062 0)
(50.2085 12.5926 0)
(50.2523 12.5827 0)
(50.2959 12.5768 0)
(50.343 12.5748 0)
(50.3772 12.5768 0)
(50.4382 12.5773 0)
(49.7828 12.839 0)
(49.7691 13.0788 0)
(49.7743 12.9906 0)
(49.7605 12.9724 0)
(49.7593 12.9542 0)
(49.7691 12.9325 0)
(49.7867 12.9136 0)
(49.8075 12.8941 0)
(49.8284 12.8731 0)
(49.8483 12.8509 0)
(49.8674 12.8276 0)
(49.8865 12.8037 0)
(49.9062 12.7795 0)
(49.9271 12.7553 0)
(49.9495 12.7312 0)
(49.9736 12.7073 0)
(49.9997 12.6838 0)
(50.0282 12.6609 0)
(50.0593 12.6389 0)
(50.0933 12.6182 0)
(50.1303 12.5994 0)
(50.1703 12.5833 0)
(50.2129 12.5706 0)
(50.2577 12.562 0)
(50.3022 12.5578 0)
(50.3497 12.5577 0)
(50.3837 12.5616 0)
(50.4437 12.5643 0)
(49.7807 12.8413 0)
(49.7628 13.083 0)
(49.7664 12.9908 0)
(49.7513 12.975 0)
(49.7506 12.9566 0)
(49.7606 12.9354 0)
(49.7776 12.9168 0)
(49.7971 12.8972 0)
(49.8162 12.8759 0)
(49.8341 12.8534 0)
(49.8514 12.8298 0)
(49.8687 12.8056 0)
(49.8867 12.7811 0)
(49.9059 12.7566 0)
(49.9264 12.7321 0)
(49.9486 12.7079 0)
(49.9727 12.6838 0)
(49.999 12.6602 0)
(50.0277 12.6372 0)
(50.0594 12.6151 0)
(50.0941 12.5945 0)
(50.1321 12.576 0)
(50.1734 12.5605 0)
(50.2172 12.5488 0)
(50.2632 12.5416 0)
(50.3085 12.5393 0)
(50.3563 12.5413 0)
(50.3902 12.5473 0)
(50.449 12.5522 0)
(49.7786 12.8438 0)
(49.7567 13.0873 0)
(49.7588 12.9913 0)
(49.7427 12.978 0)
(49.7425 12.9592 0)
(49.7526 12.9387 0)
(49.769 12.9202 0)
(49.7872 12.9005 0)
(49.8044 12.879 0)
(49.8205 12.8562 0)
(49.8359 12.8323 0)
(49.8516 12.8078 0)
(49.8679 12.7831 0)
(49.8854 12.7584 0)
(49.9043 12.7336 0)
(49.9247 12.709 0)
(49.9468 12.6846 0)
(49.9709 12.6604 0)
(49.9974 12.6366 0)
(50.0266 12.6135 0)
(50.0588 12.5913 0)
(50.0945 12.5708 0)
(50.1337 12.5527 0)
(50.1762 12.5378 0)
(50.2214 12.5272 0)
(50.2687 12.5216 0)
(50.315 12.5213 0)
(50.3631 12.5257 0)
(50.3968 12.5339 0)
(50.454 12.5412 0)
(49.7763 12.8466 0)
(49.7506 13.0917 0)
(49.7516 12.9919 0)
(49.7345 12.9812 0)
(49.7351 12.9621 0)
(49.7452 12.9422 0)
(49.7609 12.9239 0)
(49.7775 12.904 0)
(49.793 12.8823 0)
(49.8073 12.8592 0)
(49.821 12.8351 0)
(49.835 12.8104 0)
(49.8499 12.7855 0)
(49.8658 12.7605 0)
(49.883 12.7356 0)
(49.9017 12.7107 0)
(49.9219 12.686 0)
(49.944 12.6614 0)
(49.9683 12.6371 0)
(49.995 12.6131 0)
(50.0247 12.5898 0)
(50.0577 12.5676 0)
(50.0945 12.5471 0)
(50.135 12.5293 0)
(50.1791 12.5152 0)
(50.2258 12.5058 0)
(50.2744 12.5019 0)
(50.3217 12.5038 0)
(50.3701 12.5107 0)
(50.4034 12.5213 0)
(50.4589 12.5311 0)
(49.7741 12.8495 0)
(49.7446 13.0961 0)
(49.7446 12.9927 0)
(49.7269 12.9847 0)
(49.7282 12.9653 0)
(49.7382 12.946 0)
(49.753 12.9277 0)
(49.7682 12.9078 0)
(49.782 12.8859 0)
(49.7945 12.8626 0)
(49.8066 12.8383 0)
(49.8191 12.8134 0)
(49.8324 12.7883 0)
(49.8469 12.7631 0)
(49.8626 12.7379 0)
(49.8796 12.7128 0)
(49.8981 12.6879 0)
(49.9183 12.6631 0)
(49.9404 12.6384 0)
(49.9648 12.6139 0)
(49.9919 12.5897 0)
(50.0222 12.5662 0)
(50.0562 12.5438 0)
(50.0941 12.5235 0)
(50.1361 12.506 0)
(50.1819 12.4927 0)
(50.2303 12.4846 0)
(50.2804 12.4826 0)
(50.3287 12.4868 0)
(50.3774 12.4965 0)
(50.4102 12.5096 0)
(50.4635 12.5221 0)
(49.7718 12.8526 0)
(49.7387 13.1004 0)
(49.738 12.9936 0)
(49.7198 12.9884 0)
(49.7218 12.9686 0)
(49.7316 12.95 0)
(49.7455 12.9318 0)
(49.7592 12.9117 0)
(49.7713 12.8896 0)
(49.7821 12.8661 0)
(49.7927 12.8417 0)
(49.8037 12.8166 0)
(49.8156 12.7913 0)
(49.8286 12.7659 0)
(49.8429 12.7406 0)
(49.8584 12.7153 0)
(49.8753 12.6903 0)
(49.8937 12.6653 0)
(49.9138 12.6404 0)
(49.936 12.6156 0)
(49.9606 12.5909 0)
(49.9881 12.5664 0)
(50.0191 12.5426 0)
(50.0541 12.5201 0)
(50.0935 12.4997 0)
(50.1371 12.4827 0)
(50.1847 12.4702 0)
(50.235 12.4636 0)
(50.2868 12.4636 0)
(50.3361 12.4704 0)
(50.3849 12.4831 0)
(50.4172 12.4988 0)
(50.468 12.5143 0)
(49.7694 12.8559 0)
(49.733 13.1048 0)
(49.7317 12.9947 0)
(49.7131 12.9923 0)
(49.7159 12.972 0)
(49.7254 12.9541 0)
(49.7383 12.936 0)
(49.7505 12.9158 0)
(49.7609 12.8936 0)
(49.7702 12.8699 0)
(49.7793 12.8453 0)
(49.7889 12.8201 0)
(49.7994 12.7946 0)
(49.8111 12.769 0)
(49.8239 12.7435 0)
(49.838 12.7181 0)
(49.8534 12.6929 0)
(49.8701 12.6679 0)
(49.8885 12.6429 0)
(49.9085 12.618 0)
(49.9308 12.593 0)
(49.9556 12.568 0)
(49.9837 12.5432 0)
(50.0155 12.5191 0)
(50.0517 12.4963 0)
(50.0926 12.476 0)
(50.1381 12.4593 0)
(50.1878 12.4478 0)
(50.24 12.4427 0)
(50.2935 12.445 0)
(50.3439 12.4546 0)
(50.3928 12.4704 0)
(50.4245 12.489 0)
(50.4724 12.5075 0)
(49.767 12.8592 0)
(49.7273 13.1091 0)
(49.7257 12.9959 0)
(49.7069 12.9963 0)
(49.7104 12.9756 0)
(49.7195 12.9584 0)
(49.7314 12.9402 0)
(49.7421 12.92 0)
(49.7509 12.8977 0)
(49.7586 12.8739 0)
(49.7663 12.8492 0)
(49.7745 12.8238 0)
(49.7837 12.7982 0)
(49.7941 12.7724 0)
(49.8056 12.7467 0)
(49.8183 12.7212 0)
(49.8323 12.6959 0)
(49.8476 12.6708 0)
(49.8642 12.6458 0)
(49.8825 12.6208 0)
(49.9025 12.5958 0)
(49.9249 12.5706 0)
(49.95 12.5452 0)
(49.9787 12.5201 0)
(50.0115 12.4955 0)
(50.049 12.4725 0)
(50.0916 12.4521 0)
(50.1391 12.4359 0)
(50.191 12.4254 0)
(50.2454 12.422 0)
(50.3006 12.4267 0)
(50.3522 12.4393 0)
(50.4011 12.4586 0)
(50.432 12.4802 0)
(50.4767 12.5019 0)
(49.7645 12.8627 0)
(49.7219 13.1134 0)
(49.7201 12.9973 0)
(49.7011 13.0005 0)
(49.7053 12.9793 0)
(49.7139 12.9627 0)
(49.7248 12.9446 0)
(49.7339 12.9243 0)
(49.7412 12.9019 0)
(49.7475 12.8781 0)
(49.7538 12.8532 0)
(49.7607 12.8278 0)
(49.7686 12.802 0)
(49.7777 12.776 0)
(49.7879 12.7501 0)
(49.7994 12.7244 0)
(49.812 12.699 0)
(49.8259 12.6739 0)
(49.8411 12.6489 0)
(49.8576 12.624 0)
(49.8757 12.5991 0)
(49.8958 12.5739 0)
(49.9183 12.5484 0)
(49.9438 12.5227 0)
(49.9731 12.497 0)
(50.0069 12.4719 0)
(50.0459 12.4485 0)
(50.0904 12.4281 0)
(50.1402 12.4124 0)
(50.1944 12.403 0)
(50.2512 12.4014 0)
(50.3083 12.4088 0)
(50.361 12.4246 0)
(50.4098 12.4475 0)
(50.4399 12.4723 0)
(50.4808 12.4975 0)
(49.762 12.8662 0)
(49.7165 13.1176 0)
(49.7147 12.9987 0)
(49.6957 13.0048 0)
(49.7006 12.983 0)
(49.7086 12.9672 0)
(49.7184 12.949 0)
(49.726 12.9287 0)
(49.7318 12.9063 0)
(49.7367 12.8824 0)
(49.7417 12.8575 0)
(49.7473 12.8319 0)
(49.754 12.806 0)
(49.7618 12.7798 0)
(49.7708 12.7538 0)
(49.781 12.7279 0)
(49.7924 12.7024 0)
(49.8051 12.6771 0)
(49.8189 12.6522 0)
(49.8339 12.6275 0)
(49.8503 12.6027 0)
(49.8684 12.5777 0)
(49.8884 12.5524 0)
(49.911 12.5265 0)
(49.9369 12.5002 0)
(49.9669 12.4739 0)
(50.0019 12.4483 0)
(50.0425 12.4245 0)
(50.0891 12.404 0)
(50.1413 12.3887 0)
(50.1981 12.3805 0)
(50.2574 12.381 0)
(50.3165 12.3912 0)
(50.3704 12.4105 0)
(50.419 12.4373 0)
(50.448 12.4654 0)
(50.4849 12.4943 0)
(49.7594 12.8698 0)
(49.7114 13.1218 0)
(49.7097 13.0002 0)
(49.6906 13.0092 0)
(49.6962 12.9868 0)
(49.7036 12.9717 0)
(49.7122 12.9535 0)
(49.7184 12.9332 0)
(49.7228 12.9107 0)
(49.7264 12.8869 0)
(49.73 12.8619 0)
(49.7344 12.8363 0)
(49.7398 12.8102 0)
(49.7464 12.7839 0)
(49.7542 12.7576 0)
(49.7632 12.7316 0)
(49.7735 12.7058 0)
(49.785 12.6805 0)
(49.7976 12.6556 0)
(49.8113 12.631 0)
(49.8262 12.6065 0)
(49.8424 12.5818 0)
(49.8603 12.5568 0)
(49.8803 12.5312 0)
(49.903 12.5049 0)
(49.9293 12.478 0)
(49.9602 12.4509 0)
(49.9964 12.4246 0)
(50.0389 12.4003 0)
(50.0877 12.3798 0)
(50.1426 12.365 0)
(50.2022 12.358 0)
(50.2641 12.3607 0)
(50.3253 12.3739 0)
(50.3805 12.3969 0)
(50.4286 12.4279 0)
(50.4566 12.4595 0)
(50.4889 12.4923 0)
(49.7567 12.8734 0)
(49.7064 13.1259 0)
(49.7049 13.0018 0)
(49.686 13.0136 0)
(49.6921 12.9906 0)
(49.6988 12.9762 0)
(49.7063 12.9579 0)
(49.7111 12.9377 0)
(49.7141 12.9153 0)
(49.7164 12.8914 0)
(49.7188 12.8665 0)
(49.722 12.8408 0)
(49.7261 12.8146 0)
(49.7315 12.7881 0)
(49.7381 12.7616 0)
(49.746 12.7354 0)
(49.7551 12.7095 0)
(49.7655 12.684 0)
(49.777 12.6591 0)
(49.7896 12.6345 0)
(49.8032 12.6103 0)
(49.8179 12.586 0)
(49.8339 12.5614 0)
(49.8516 12.5363 0)
(49.8715 12.5103 0)
(49.8943 12.4835 0)
(49.9211 12.4558 0)
(49.9529 12.428 0)
(49.9906 12.4009 0)
(50.035 12.376 0)
(50.0863 12.3553 0)
(50.1441 12.341 0)
(50.2067 12.3355 0)
(50.2713 12.3405 0)
(50.3347 12.357 0)
(50.3911 12.3839 0)
(50.4389 12.4194 0)
(50.4656 12.4546 0)
(50.4928 12.4916 0)
(49.754 12.877 0)
(49.7016 13.1299 0)
(49.7004 13.0035 0)
(49.6816 13.0181 0)
(49.6882 12.9945 0)
(49.6942 12.9808 0)
(49.7006 12.9624 0)
(49.704 12.9423 0)
(49.7057 12.9199 0)
(49.7068 12.8961 0)
(49.708 12.8712 0)
(49.7099 12.8454 0)
(49.7129 12.8191 0)
(49.717 12.7925 0)
(49.7224 12.7658 0)
(49.7292 12.7393 0)
(49.7373 12.7132 0)
(49.7467 12.6876 0)
(49.7572 12.6626 0)
(49.7687 12.6381 0)
(49.7812 12.614 0)
(49.7946 12.5901 0)
(49.8091 12.5661 0)
(49.8248 12.5416 0)
(49.8422 12.5163 0)
(49.862 12.4899 0)
(49.885 12.4623 0)
(49.9123 12.4338 0)
(49.9451 12.405 0)
(49.9844 12.377 0)
(50.0309 12.3514 0)
(50.085 12.3306 0)
(50.1458 12.317 0)
(50.2115 12.3129 0)
(50.2792 12.3204 0)
(50.3448 12.3404 0)
(50.4025 12.3715 0)
(50.4496 12.4117 0)
(50.475 12.4507 0)
(50.4967 12.4921 0)
(49.7512 12.8806 0)
(49.6969 13.1339 0)
(49.6961 13.0053 0)
(49.6776 13.0226 0)
(49.6847 12.9983 0)
(49.6898 12.9853 0)
(49.6951 12.9669 0)
(49.6972 12.9469 0)
(49.6977 12.9246 0)
(49.6975 12.9009 0)
(49.6975 12.876 0)
(49.6983 12.8502 0)
(49.7 12.8238 0)
(49.703 12.7971 0)
(49.7073 12.7702 0)
(49.7129 12.7435 0)
(49.72 12.7171 0)
(49.7283 12.6913 0)
(49.7379 12.6661 0)
(49.7485 12.6416 0)
(49.76 12.6177 0)
(49.7724 12.5941 0)
(49.7856 12.5706 0)
(49.7997 12.5468 0)
(49.8151 12.5224 0)
(49.8322 12.4968 0)
(49.8519 12.4699 0)
(49.875 12.4415 0)
(49.9029 12.4119 0)
(49.9368 12.382 0)
(49.9778 12.3529 0)
(50.0267 12.3267 0)
(50.0836 12.3057 0)
(50.1477 12.2927 0)
(50.2169 12.2903 0)
(50.2876 12.3004 0)
(50.3556 12.3241 0)
(50.4145 12.3596 0)
(50.461 12.4048 0)
(50.4849 12.4477 0)
(50.5005 12.4938 0)
(49.7483 12.8842 0)
(49.6925 13.1377 0)
(49.6921 13.007 0)
(49.6739 13.0271 0)
(49.6813 13.0021 0)
(49.6856 12.9899 0)
(49.6898 12.9714 0)
(49.6907 12.9516 0)
(49.69 12.9294 0)
(49.6886 12.9058 0)
(49.6875 12.8809 0)
(49.6871 12.8552 0)
(49.6876 12.8287 0)
(49.6894 12.8018 0)
(49.6925 12.7747 0)
(49.6971 12.7478 0)
(49.7031 12.7212 0)
(49.7105 12.6951 0)
(49.7191 12.6697 0)
(49.7289 12.6451 0)
(49.7396 12.6212 0)
(49.7511 12.5979 0)
(49.7633 12.5749 0)
(49.7761 12.5518 0)
(49.7899 12.5282 0)
(49.8048 12.5037 0)
(49.8216 12.4778 0)
(49.841 12.4502 0)
(49.8644 12.4209 0)
(49.8929 12.3901 0)
(49.9279 12.3589 0)
(49.9708 12.3287 0)
(50.0223 12.3017 0)
(50.0823 12.2805 0)
(50.1499 12.2682 0)
(50.2227 12.2675 0)
(50.2967 12.2806 0)
(50.367 12.3082 0)
(50.4273 12.3483 0)
(50.4729 12.3987 0)
(50.4952 12.4457 0)
(50.5043 12.4968 0)
(49.7454 12.8878 0)
(49.6882 13.1414 0)
(49.6883 13.0089 0)
(49.6704 13.0316 0)
(49.6781 13.0058 0)
(49.6815 12.9944 0)
(49.6847 12.9758 0)
(49.6844 12.9562 0)
(49.6825 12.9341 0)
(49.68 12.9107 0)
(49.6778 12.8859 0)
(49.6762 12.8602 0)
(49.6756 12.8337 0)
(49.6763 12.8067 0)
(49.6782 12.7795 0)
(49.6817 12.7522 0)
(49.6866 12.7253 0)
(49.6931 12.699 0)
(49.7009 12.6734 0)
(49.7098 12.6486 0)
(49.7198 12.6246 0)
(49.7305 12.6014 0)
(49.7419 12.5788 0)
(49.7538 12.5564 0)
(49.7663 12.5337 0)
(49.7795 12.5104 0)
(49.7939 12.4858 0)
(49.8102 12.4594 0)
(49.8295 12.431 0)
(49.853 12.4005 0)
(49.8822 12.3684 0)
(49.9186 12.3358 0)
(49.9635 12.3043 0)
(50.0177 12.2765 0)
(50.0811 12.2551 0)
(50.1525 12.2435 0)
(50.229 12.2447 0)
(50.3064 12.2608 0)
(50.3793 12.2925 0)
(50.4408 12.3375 0)
(50.4855 12.3934 0)
(50.506 12.4447 0)
(50.508 12.501 0)
(49.7424 12.8914 0)
(49.6842 13.145 0)
(49.6848 13.0107 0)
(49.6672 13.0361 0)
(49.6752 13.0095 0)
(49.6777 12.9988 0)
(49.6798 12.9802 0)
(49.6783 12.9608 0)
(49.6754 12.9389 0)
(49.6718 12.9156 0)
(49.6685 12.891 0)
(49.6658 12.8654 0)
(49.6641 12.8388 0)
(49.6635 12.8117 0)
(49.6643 12.7843 0)
(49.6667 12.7569 0)
(49.6706 12.7297 0)
(49.6761 12.703 0)
(49.683 12.6771 0)
(49.6912 12.652 0)
(49.7005 12.6279 0)
(49.7106 12.6048 0)
(49.7213 12.5824 0)
(49.7325 12.5605 0)
(49.744 12.5387 0)
(49.7559 12.5165 0)
(49.7686 12.4933 0)
(49.7824 12.4684 0)
(49.7982 12.4415 0)
(49.8173 12.4121 0)
(49.841 12.3804 0)
(49.8709 12.3468 0)
(49.9088 12.3126 0)
(49.9559 12.2798 0)
(50.0131 12.2509 0)
(50.08 12.2294 0)
(50.1553 12.2186 0)
(50.2358 12.2218 0)
(50.3168 12.2411 0)
(50.3923 12.2772 0)
(50.4551 12.3273 0)
(50.4987 12.3889 0)
(50.5174 12.4446 0)
(50.5118 12.5064 0)
(49.7393 12.8949 0)
(49.6803 13.1486 0)
(49.6814 13.0126 0)
(49.6642 13.0405 0)
(49.6724 13.0132 0)
(49.6739 13.0032 0)
(49.6752 12.9845 0)
(49.6725 12.9654 0)
(49.6686 12.9437 0)
(49.664 12.9206 0)
(49.6596 12.8962 0)
(49.6558 12.8706 0)
(49.6529 12.8441 0)
(49.6511 12.8169 0)
(49.6508 12.7893 0)
(49.6521 12.7617 0)
(49.6549 12.7342 0)
(49.6594 12.7072 0)
(49.6655 12.6809 0)
(49.6729 12.6555 0)
(49.6815 12.6312 0)
(49.6911 12.6079 0)
(49.7013 12.5856 0)
(49.712 12.5641 0)
(49.7229 12.543 0)
(49.7339 12.5219 0)
(49.7452 12.5001 0)
(49.7571 12.4769 0)
(49.7703 12.4518 0)
(49.7856 12.4242 0)
(49.8044 12.3937 0)
(49.8283 12.3605 0)
(49.8591 12.3252 0)
(49.8985 12.2893 0)
(49.948 12.255 0)
(50.0083 12.2251 0)
(50.0791 12.2034 0)
(50.1586 12.1935 0)
(50.2432 12.1988 0)
(50.3279 12.2214 0)
(50.406 12.2621 0)
(50.4702 12.3175 0)
(50.5124 12.3852 0)
(50.5293 12.4453 0)
(50.5155 12.5131 0)
(49.7362 12.8984 0)
(49.6767 13.1519 0)
(49.6782 13.0145 0)
(49.6615 13.0448 0)
(49.6697 13.0168 0)
(49.6704 13.0076 0)
(49.6706 12.9888 0)
(49.6669 12.97 0)
(49.662 12.9485 0)
(49.6564 12.9256 0)
(49.651 12.9013 0)
(49.6461 12.8759 0)
(49.6421 12.8494 0)
(49.6392 12.8222 0)
(49.6377 12.7945 0)
(49.6379 12.7666 0)
(49.6396 12.7388 0)
(49.6432 12.7115 0)
(49.6483 12.6848 0)
(49.655 12.659 0)
(49.663 12.6344 0)
(49.672 12.6109 0)
(49.6818 12.5886 0)
(49.6921 12.5673 0)
(49.7026 12.5468 0)
(49.7131 12.5265 0)
(49.7235 12.506 0)
(49.7341 12.4845 0)
(49.7452 12.4614 0)
(49.7575 12.4359 0)
(49.7722 12.4074 0)
(49.7908 12.3757 0)
(49.8149 12.3408 0)
(49.8466 12.3037 0)
(49.8877 12.2659 0)
(49.9398 12.2299 0)
(50.0035 12.1991 0)
(50.0783 12.1771 0)
(50.1622 12.1682 0)
(50.2512 12.1757 0)
(50.3397 12.2019 0)
(50.4205 12.2474 0)
(50.486 12.3083 0)
(50.5269 12.3823 0)
(50.5417 12.447 0)
(50.5192 12.521 0)
(49.733 12.9018 0)
(49.6732 13.1552 0)
(49.6752 13.0164 0)
(49.6589 13.049 0)
(49.6672 13.0203 0)
(49.667 13.0119 0)
(49.6663 12.9931 0)
(49.6616 12.9746 0)
(49.6558 12.9532 0)
(49.6492 12.9307 0)
(49.6427 12.9066 0)
(49.6368 12.8812 0)
(49.6316 12.8548 0)
(49.6276 12.8276 0)
(49.625 12.7998 0)
(49.624 12.7717 0)
(49.6247 12.7437 0)
(49.6272 12.7159 0)
(49.6315 12.6888 0)
(49.6374 12.6626 0)
(49.6447 12.6376 0)
(49.6533 12.6138 0)
(49.6627 12.5913 0)
(49.6727 12.5701 0)
(49.6829 12.5498 0)
(49.6931 12.5303 0)
(49.7031 12.5109 0)
(49.7128 12.491 0)
(49.7225 12.4699 0)
(49.7327 12.4467 0)
(49.7442 12.4207 0)
(49.7582 12.3912 0)
(49.7764 12.358 0)
(49.8008 12.3213 0)
(49.8335 12.2822 0)
(49.8765 12.2424 0)
(49.9313 12.2047 0)
(49.9986 12.1727 0)
(50.0777 12.1506 0)
(50.1662 12.1426 0)
(50.2597 12.1525 0)
(50.3522 12.1824 0)
(50.4357 12.2329 0)
(50.5025 12.2996 0)
(50.5419 12.38 0)
(50.5547 12.4494 0)
(50.523 12.53 0)
(49.7297 12.9052 0)
(49.6699 13.1584 0)
(49.6723 13.0183 0)
(49.6566 13.0532 0)
(49.6648 13.0237 0)
(49.6637 13.016 0)
(49.6622 12.9972 0)
(49.6565 12.9791 0)
(49.6498 12.958 0)
(49.6423 12.9357 0)
(49.6348 12.9118 0)
(49.6278 12.8866 0)
(49.6216 12.8603 0)
(49.6165 12.8331 0)
(49.6127 12.8053 0)
(49.6106 12.777 0)
(49.6102 12.7487 0)
(49.6116 12.7206 0)
(49.6149 12.693 0)
(49.62 12.6664 0)
(49.6267 12.6408 0)
(49.6347 12.6166 0)
(49.6438 12.5938 0)
(49.6536 12.5724 0)
(49.6637 12.5524 0)
(49.6738 12.5333 0)
(49.6836 12.5148 0)
(49.6929 12.4963 0)
(49.7018 12.4771 0)
(49.7105 12.4562 0)
(49.7197 12.4329 0)
(49.7302 12.4062 0)
(49.7434 12.3756 0)
(49.7614 12.3408 0)
(49.7861 12.3021 0)
(49.8198 12.2607 0)
(49.8648 12.2187 0)
(49.9226 12.1791 0)
(49.9937 12.146 0)
(50.0773 12.1237 0)
(50.1706 12.1168 0)
(50.2688 12.1292 0)
(50.3654 12.1631 0)
(50.4517 12.2187 0)
(50.5199 12.2913 0)
(50.5575 12.3785 0)
(50.5682 12.4527 0)
(50.5267 12.5403 0)
(49.7264 12.9085 0)
(49.6669 13.1614 0)
(49.6696 13.0202 0)
(49.6544 13.0573 0)
(49.6625 13.0271 0)
(49.6606 13.0202 0)
(49.6582 13.0013 0)
(49.6517 12.9835 0)
(49.6441 12.9627 0)
(49.6357 12.9407 0)
(49.6273 12.917 0)
(49.6192 12.8921 0)
(49.6119 12.8659 0)
(49.6057 12.8387 0)
(49.6008 12.8108 0)
(49.5975 12.7824 0)
(49.596 12.7538 0)
(49.5964 12.7254 0)
(49.5987 12.6974 0)
(49.6029 12.6702 0)
(49.6089 12.6442 0)
(49.6164 12.6194 0)
(49.6251 12.5962 0)
(49.6347 12.5746 0)
(49.6448 12.5544 0)
(49.6549 12.5356 0)
(49.6648 12.5178 0)
(49.6741 12.5004 0)
(49.6826 12.4828 0)
(49.6906 12.4642 0)
(49.6981 12.4435 0)
(49.7061 12.4199 0)
(49.7155 12.3925 0)
(49.728 12.3605 0)
(49.7456 12.3239 0)
(49.7706 12.283 0)
(49.8056 12.2392 0)
(49.8527 12.1949 0)
(49.9136 12.1534 0)
(49.9888 12.119 0)
(50.0771 12.0966 0)
(50.1754 12.0909 0)
(50.2785 12.1059 0)
(50.3793 12.1438 0)
(50.4684 12.2049 0)
(50.538 12.2836 0)
(50.5738 12.3777 0)
(50.5823 12.4568 0)
(50.5305 12.5516 0)
(49.7231 12.9118 0)
(49.664 13.1643 0)
(49.667 13.0221 0)
(49.6524 13.0613 0)
(49.6604 13.0303 0)
(49.6576 13.0242 0)
(49.6545 13.0053 0)
(49.647 12.9879 0)
(49.6386 12.9673 0)
(49.6293 12.9456 0)
(49.62 12.9223 0)
(49.611 12.8975 0)
(49.6026 12.8715 0)
(49.5953 12.8444 0)
(49.5893 12.8165 0)
(49.5848 12.788 0)
(49.5822 12.7592 0)
(49.5815 12.7304 0)
(49.5828 12.702 0)
(49.5861 12.6743 0)
(49.5913 12.6477 0)
(49.5982 12.6223 0)
(49.6065 12.5986 0)
(49.6159 12.5765 0)
(49.626 12.5561 0)
(49.6362 12.5373 0)
(49.6463 12.5199 0)
(49.6559 12.5033 0)
(49.6645 12.4871 0)
(49.6722 12.4704 0)
(49.679 12.4523 0)
(49.6853 12.4318 0)
(49.692 12.4078 0)
(49.7002 12.3795 0)
(49.7119 12.346 0)
(49.7291 12.3074 0)
(49.7546 12.2641 0)
(49.7908 12.2177 0)
(49.8402 12.1709 0)
(49.9045 12.1274 0)
(49.9839 12.0917 0)
(50.0771 12.0692 0)
(50.1807 12.0647 0)
(50.2888 12.0825 0)
(50.3939 12.1246 0)
(50.4859 12.1912 0)
(50.5568 12.2762 0)
(50.5906 12.3775 0)
(50.5969 12.4616 0)
(50.5343 12.5641 0)
(49.7196 12.9149 0)
(49.6613 13.167 0)
(49.6646 13.024 0)
(49.6506 13.0651 0)
(49.6583 13.0335 0)
(49.6547 13.0281 0)
(49.6508 13.0092 0)
(49.6426 12.9922 0)
(49.6334 12.9719 0)
(49.6233 12.9506 0)
(49.6131 12.9275 0)
(49.6031 12.903 0)
(49.5937 12.8772 0)
(49.5853 12.8502 0)
(49.5781 12.8223 0)
(49.5725 12.7937 0)
(49.5688 12.7647 0)
(49.567 12.7356 0)
(49.5672 12.7068 0)
(49.5696 12.6786 0)
(49.574 12.6513 0)
(49.5802 12.6253 0)
(49.5881 12.6009 0)
(49.5972 12.5783 0)
(49.6072 12.5575 0)
(49.6177 12.5385 0)
(49.6281 12.5211 0)
(49.638 12.5051 0)
(49.6471 12.4899 0)
(49.655 12.4749 0)
(49.6616 12.4591 0)
(49.6671 12.4415 0)
(49.6721 12.4211 0)
(49.6773 12.3966 0)
(49.6843 12.3672 0)
(49.6951 12.3321 0)
(49.712 12.2913 0)
(49.7378 12.2454 0)
(49.7755 12.1963 0)
(49.8274 12.1468 0)
(49.8951 12.1011 0)
(49.979 12.0642 0)
(50.0774 12.0415 0)
(50.1864 12.0383 0)
(50.2997 12.059 0)
(50.4092 12.1055 0)
(50.5041 12.1779 0)
(50.5763 12.2693 0)
(50.6081 12.378 0)
(50.6121 12.4671 0)
(50.5381 12.5776 0)
(49.7161 12.918 0)
(49.6589 13.1696 0)
(49.6622 13.0258 0)
(49.6489 13.0688 0)
(49.6563 13.0366 0)
(49.652 13.0319 0)
(49.6474 13.013 0)
(49.6383 12.9965 0)
(49.6284 12.9765 0)
(49.6175 12.9555 0)
(49.6064 12.9326 0)
(49.5955 12.9084 0)
(49.5851 12.8828 0)
(49.5756 12.856 0)
(49.5674 12.8282 0)
(49.5606 12.7995 0)
(49.5557 12.7704 0)
(49.5528 12.741 0)
(49.5519 12.7118 0)
(49.5533 12.6831 0)
(49.5568 12.6552 0)
(49.5623 12.6285 0)
(49.5697 12.6034 0)
(49.5785 12.58 0)
(49.5885 12.5587 0)
(49.5991 12.5393 0)
(49.6098 12.5218 0)
(49.6203 12.506 0)
(49.6299 12.4915 0)
(49.6384 12.4777 0)
(49.6454 12.4638 0)
(49.6509 12.4489 0)
(49.655 12.4318 0)
(49.6584 12.4113 0)
(49.6621 12.3863 0)
(49.6678 12.3557 0)
(49.6776 12.3187 0)
(49.6941 12.2755 0)
(49.7205 12.2268 0)
(49.7596 12.1748 0)
(49.8141 12.1225 0)
(49.8857 12.0746 0)
(49.9742 12.0363 0)
(50.078 12.0136 0)
(50.1926 12.0118 0)
(50.3112 12.0355 0)
(50.4252 12.0865 0)
(50.523 12.1648 0)
(50.5965 12.2628 0)
(50.6261 12.379 0)
(50.6278 12.4733 0)
(50.5419 12.592 0)
(49.7125 12.921 0)
(49.6566 13.1721 0)
(49.66 13.0277 0)
(49.6473 13.0725 0)
(49.6544 13.0396 0)
(49.6494 13.0356 0)
(49.6441 13.0168 0)
(49.6343 13.0007 0)
(49.6237 12.9809 0)
(49.612 12.9603 0)
(49.6001 12.9378 0)
(49.5883 12.9139 0)
(49.5769 12.8885 0)
(49.5664 12.8619 0)
(49.557 12.8341 0)
(49.5491 12.8055 0)
(49.543 12.7762 0)
(49.5389 12.7466 0)
(49.537 12.717 0)
(49.5373 12.6878 0)
(49.5399 12.6593 0)
(49.5446 12.6319 0)
(49.5514 12.606 0)
(49.5598 12.5819 0)
(49.5696 12.5598 0)
(49.5803 12.5398 0)
(49.5915 12.5219 0)
(49.6025 12.5061 0)
(49.6129 12.4919 0)
(49.6221 12.479 0)
(49.6299 12.4666 0)
(49.6358 12.4539 0)
(49.64 12.4398 0)
(49.6426 12.4232 0)
(49.6443 12.4026 0)
(49.6464 12.3769 0)
(49.6506 12.3449 0)
(49.6594 12.3059 0)
(49.6756 12.2601 0)
(49.7025 12.2084 0)
(49.7433 12.1533 0)
(49.8006 12.0981 0)
(49.876 12.0479 0)
(49.9695 12.0082 0)
(50.0788 11.9854 0)
(50.1992 11.9852 0)
(50.3232 12.012 0)
(50.4418 12.0676 0)
(50.5426 12.152 0)
(50.6174 12.2566 0)
(50.6446 12.3806 0)
(50.6441 12.4801 0)
(50.5458 12.6075 0)
(49.7089 12.9239 0)
(49.6545 13.1744 0)
(49.6578 13.0295 0)
(49.6459 13.0759 0)
(49.6526 13.0425 0)
(49.6469 13.0392 0)
(49.6409 13.0204 0)
(49.6305 13.0047 0)
(49.6192 12.9853 0)
(49.6068 12.9651 0)
(49.5941 12.9429 0)
(49.5813 12.9193 0)
(49.569 12.8942 0)
(49.5574 12.8678 0)
(49.547 12.8402 0)
(49.538 12.8116 0)
(49.5307 12.7822 0)
(49.5255 12.7524 0)
(49.5224 12.7225 0)
(49.5216 12.6927 0)
(49.5232 12.6636 0)
(49.527 12.6355 0)
(49.5331 12.6088 0)
(49.5411 12.5838 0)
(49.5507 12.5609 0)
(49.5615 12.5401 0)
(49.5729 12.5217 0)
(49.5845 12.5055 0)
(49.5957 12.4914 0)
(49.6059 12.4789 0)
(49.6146 12.4676 0)
(49.6215 12.4567 0)
(49.6263 12.4452 0)
(49.629 12.4319 0)
(49.6299 12.4157 0)
(49.6298 12.3949 0)
(49.6301 12.3683 0)
(49.6328 12.3348 0)
(49.6405 12.2936 0)
(49.6564 12.245 0)
(49.684 12.1902 0)
(49.7265 12.1317 0)
(49.7867 12.0736 0)
(49.8663 12.0209 0)
(49.9649 11.9799 0)
(50.0799 11.9571 0)
(50.2063 11.9584 0)
(50.3359 11.9884 0)
(50.4591 12.0489 0)
(50.5628 12.1394 0)