/*--------------------------------*- C++ -*----------------------------------*\
  =========                 |
  \\      /  F ield         | OpenFOAM: The Open Source CFD Toolbox
   \\    /   O peration     | Website:  https://openfoam.org
    \\  /    A nd           | Version:  7
     \\/     M anipulation  |
\*---------------------------------------------------------------------------*/
FoamFile
{
    version     2.0;
    format      ascii;
    class       volScalarField;
    location    "800";
    object      yPlus;
}
// * * * * * * * * * * * * * * * * * * * * * * * * * * * * * * * * * * * * * //

dimensions      [0 0 0 0 0 0 0];

internalField   uniform 0;

boundaryField
{
    inlet-l
    {
        type            calculated;
        value           uniform 0;
    }
    airfoil-l1
    {
        type            calculated;
        value           nonuniform 0();
    }
    empty-1
    {
        type            empty;
    }
    empty-2
    {
        type            empty;
    }
    wall-l1
    {
        type            calculated;
        value           nonuniform List<scalar> 
67
(
128.503
128.334
127.981
127.672
127.408
127.15
126.882
126.614
126.35
126.09
125.833
125.579
125.333
125.088
124.841
124.596
124.362
124.128
123.89
123.656
123.431
123.207
122.979
122.759
122.543
122.328
122.117
121.901
121.693
121.49
121.284
121.086
120.885
120.69
120.489
120.298
120.109
119.92
119.736
119.553
119.372
119.193
119.018
118.843
118.673
118.502
118.335
118.17
118.007
117.848
117.69
117.533
117.381
117.23
117.081
116.935
116.791
116.649
116.512
116.369
116.236
116.104
115.974
115.85
115.723
115.607
115.469
)
;
    }
    airfoil-l2
    {
        type            calculated;
        value           nonuniform List<scalar> 
66
(
22.1206
22.3749
22.5886
22.7702
22.9261
23.0605
23.1816
23.2899
23.3835
23.4666
23.5392
23.6044
23.6665
23.7203
23.7688
23.8126
23.8524
23.8885
23.9228
23.9541
23.9803
24.0079
24.031
24.0534
24.0752
24.0929
24.1091
24.1251
24.1398
24.1508
24.1646
24.175
24.1841
24.1924
24.2015
24.2125
24.2197
24.2214
24.2258
24.235
24.2387
24.2431
24.2482
24.2498
24.2508
24.253
24.2556
24.2548
24.2532
24.2513
24.2505
24.2516
24.2498
24.2443
24.2379
24.2308
24.2221
24.2124
24.2025
24.1914
24.1777
24.1596
24.1447
24.1094
24.1418
23.8484
)
;
    }
    empty-3
    {
        type            empty;
    }
    empty-4
    {
        type            empty;
    }
    wall-l2
    {
        type            calculated;
        value           nonuniform List<scalar> 
74
(
115.402
115.4
115.428
115.458
115.504
115.578
115.677
115.798
115.941
116.107
116.296
116.506
116.739
116.994
117.27
117.567
117.884
118.221
118.577
118.952
119.345
119.754
120.181
120.622
121.078
121.547
122.029
122.522
123.024
123.536
124.054
124.579
125.107
125.638
126.169
126.7
127.226
127.747
128.26
128.762
129.25
129.722
130.175
130.604
131.007
131.379
131.716
132.014
132.268
132.473
132.622
132.711
132.732
132.678
132.542
132.315
131.988
131.55
130.99
130.295
129.45
128.44
127.245
125.844
124.213
122.321
120.138
117.628
114.756
111.515
107.933
104.347
101.551
101.316
)
;
    }
    outlet-l
    {
        type            calculated;
        value           uniform 0;
    }
    empty-5
    {
        type            empty;
    }
    empty-6
    {
        type            empty;
    }
    outlet-h
    {
        type            calculated;
        value           nonuniform 0();
    }
    wall-h2
    {
        type            calculated;
        value           nonuniform 0();
    }
    empty-7
    {
        type            empty;
    }
    empty-8
    {
        type            empty;
    }
    airfoil-h2
    {
        type            calculated;
        value           nonuniform 0();
    }
    wall-h1
    {
        type            calculated;
        value           nonuniform 0();
    }
    empty-9
    {
        type            empty;
    }
    empty-10
    {
        type            empty;
    }
    inlet-h
    {
        type            calculated;
        value           nonuniform 0();
    }
    airfoil-h1
    {
        type            calculated;
        value           nonuniform 0();
    }
    empty-11
    {
        type            empty;
    }
    empty-12
    {
        type            empty;
    }
    procBoundary1to0
    {
        type            processor;
        value           uniform 0;
    }
    procBoundary1to2
    {
        type            processor;
        value           uniform 0;
    }
}


// ************************************************************************* //
