# y+ ()       
# Time        	patch         	min           	max           	average       
0             	airfoil-l1	1.546494e+00	1.993530e+00	1.718646e+00
0             	wall-l1	0.000000e+00	0.000000e+00	0.000000e+00
0             	airfoil-l2	1.791117e+00	1.844756e+00	1.808596e+00
0             	wall-l2	0.000000e+00	0.000000e+00	0.000000e+00
0             	wall-h2	0.000000e+00	0.000000e+00	0.000000e+00
0             	airfoil-h2	1.791556e+00	1.843821e+00	1.812044e+00
0             	wall-h1	0.000000e+00	0.000000e+00	0.000000e+00
0             	airfoil-h1	1.550894e+00	1.993440e+00	1.712507e+00
50            	airfoil-l1	2.467866e-02	3.215639e-01	1.626313e-01
50            	wall-l1	9.817837e+01	1.238114e+02	1.057170e+02
50            	airfoil-l2	1.504584e-01	1.741207e-01	1.646859e-01
50            	wall-l2	1.003694e+02	1.461406e+02	1.149395e+02
50            	wall-h2	5.858880e+01	8.910381e+01	7.096780e+01
50            	airfoil-h2	1.261224e-01	1.572512e-01	1.496604e-01
50            	wall-h1	5.668564e+01	1.031317e+02	7.401097e+01
50            	airfoil-h1	7.253139e-02	3.698944e-01	1.492381e-01
100           	airfoil-l1	7.904862e-02	3.984657e-01	1.482662e-01
100           	wall-l1	1.165515e+02	1.278405e+02	1.241236e+02
100           	airfoil-l2	1.350819e-01	1.598400e-01	1.504705e-01
100           	wall-l2	1.266596e+02	1.885776e+02	1.436234e+02
100           	wall-h2	9.336181e+01	1.888222e+02	1.211436e+02
100           	airfoil-h2	2.917715e-02	1.161712e-01	8.594625e-02
100           	wall-h1	9.557045e+01	1.521140e+02	1.281987e+02
100           	airfoil-h1	1.132306e-01	4.128834e-01	1.503930e-01
150           	airfoil-l1	2.486519e-02	4.305293e-01	1.334008e-01
150           	wall-l1	1.227100e+02	1.247051e+02	1.236312e+02
150           	airfoil-l2	1.352140e-01	1.504209e-01	1.427977e-01
150           	wall-l2	1.245965e+02	1.756817e+02	1.417273e+02
150           	wall-h2	1.673388e+02	1.990095e+02	1.754825e+02
150           	airfoil-h2	2.285331e-02	1.058582e-01	6.634313e-02
150           	wall-h1	1.471283e+02	1.697447e+02	1.627190e+02
150           	airfoil-h1	1.035672e-01	4.433128e-01	1.662693e-01
200           	airfoil-l1	1.766188e-02	4.443117e-01	1.276420e-01
200           	wall-l1	1.175039e+02	1.291662e+02	1.247281e+02
200           	airfoil-l2	1.310815e-01	1.447196e-01	1.371649e-01
200           	wall-l2	1.292135e+02	1.719532e+02	1.413634e+02
200           	wall-h2	1.517747e+02	2.000743e+02	1.709566e+02
200           	airfoil-h2	3.831691e-03	1.080726e-01	5.924158e-02
200           	wall-h1	1.345232e+02	1.514564e+02	1.404831e+02
200           	airfoil-h1	1.062222e-01	4.572948e-01	1.840581e-01
250           	airfoil-l1	2.489791e-02	4.501441e-01	1.264881e-01
250           	wall-l1	1.187090e+02	1.260878e+02	1.217844e+02
250           	airfoil-l2	1.274790e-01	1.416560e-01	1.336634e-01
250           	wall-l2	1.262398e+02	1.795425e+02	1.436110e+02
250           	wall-h2	1.433903e+02	1.983127e+02	1.612207e+02
250           	airfoil-h2	4.167040e-03	1.182866e-01	5.956960e-02
250           	wall-h1	1.409302e+02	1.434430e+02	1.428727e+02
250           	airfoil-h1	1.164578e-01	4.632760e-01	1.996539e-01
300           	airfoil-l1	1.878925e-02	4.545106e-01	1.261689e-01
300           	wall-l1	1.235985e+02	1.279831e+02	1.263195e+02
300           	airfoil-l2	1.244501e-01	1.402024e-01	1.316287e-01
300           	wall-l2	1.280547e+02	1.815029e+02	1.445714e+02
300           	wall-h2	1.513961e+02	2.037675e+02	1.685883e+02
300           	airfoil-h2	4.493170e-03	1.300606e-01	6.391756e-02
300           	wall-h1	1.426336e+02	1.512968e+02	1.476293e+02
300           	airfoil-h1	1.280273e-01	4.676472e-01	2.118802e-01
350           	airfoil-l1	9.923855e-03	4.585661e-01	1.258397e-01
350           	wall-l1	1.235859e+02	1.317756e+02	1.280644e+02
350           	airfoil-l2	1.218689e-01	1.394384e-01	1.304071e-01
350           	wall-l2	1.318729e+02	1.830929e+02	1.476111e+02
350           	wall-h2	1.523231e+02	2.043912e+02	1.698339e+02
350           	airfoil-h2	1.995819e-03	1.400696e-01	6.991130e-02
350           	wall-h1	1.433349e+02	1.522006e+02	1.480559e+02
350           	airfoil-h1	1.377674e-01	4.717031e-01	2.207362e-01
400           	airfoil-l1	1.086572e-02	4.619286e-01	1.256309e-01
400           	wall-l1	1.240637e+02	1.317780e+02	1.280465e+02
400           	airfoil-l2	1.195656e-01	1.389189e-01	1.295691e-01
400           	wall-l2	1.318893e+02	1.842424e+02	1.482880e+02
400           	wall-h2	1.527790e+02	2.052228e+02	1.702968e+02
400           	airfoil-h2	2.292557e-03	1.475817e-01	7.625091e-02
400           	wall-h1	1.444966e+02	1.526665e+02	1.489938e+02
400           	airfoil-h1	1.450387e-01	4.750668e-01	2.268068e-01
450           	airfoil-l1	1.760956e-02	4.648953e-01	1.255395e-01
450           	wall-l1	1.253683e+02	1.323990e+02	1.291354e+02
450           	airfoil-l2	1.174314e-01	1.385190e-01	1.289249e-01
450           	wall-l2	1.325002e+02	1.855786e+02	1.490474e+02
450           	wall-h2	1.542219e+02	2.075099e+02	1.719912e+02
450           	airfoil-h2	2.088848e-03	1.528326e-01	8.238477e-02
450           	wall-h1	1.456262e+02	1.541070e+02	1.502869e+02
450           	airfoil-h1	1.500979e-01	4.780170e-01	2.307860e-01
500           	airfoil-l1	2.227439e-02	4.677171e-01	1.254206e-01
500           	wall-l1	1.263497e+02	1.337666e+02	1.303328e+02
500           	airfoil-l2	1.154761e-01	1.381776e-01	1.283911e-01
500           	wall-l2	1.338688e+02	1.871624e+02	1.504254e+02
500           	wall-h2	1.555145e+02	2.094252e+02	1.734891e+02
500           	airfoil-h2	3.832920e-03	1.562793e-01	8.772104e-02
500           	wall-h1	1.468398e+02	1.553975e+02	1.515247e+02
500           	airfoil-h1	1.534068e-01	4.808156e-01	2.333503e-01
550           	airfoil-l1	2.437680e-02	4.703338e-01	1.252742e-01
550           	wall-l1	1.271916e+02	1.347681e+02	1.312261e+02
550           	airfoil-l2	1.137493e-01	1.378602e-01	1.279263e-01
550           	wall-l2	1.348733e+02	1.884783e+02	1.515497e+02
550           	wall-h2	1.567536e+02	2.109728e+02	1.748196e+02
550           	airfoil-h2	1.441083e-02	1.584494e-01	9.220891e-02
550           	wall-h1	1.479732e+02	1.566363e+02	1.527292e+02
550           	airfoil-h1	1.554850e-01	4.834131e-01	2.350276e-01
600           	airfoil-l1	2.119293e-02	4.726673e-01	1.251169e-01
600           	wall-l1	1.279963e+02	1.355989e+02	1.320497e+02
600           	airfoil-l2	1.122902e-01	1.375643e-01	1.275169e-01
600           	wall-l2	1.357043e+02	1.895912e+02	1.524691e+02
600           	wall-h2	1.579074e+02	2.124381e+02	1.760843e+02
600           	airfoil-h2	2.018358e-02	1.598005e-01	9.547817e-02
600           	wall-h1	1.489141e+02	1.577882e+02	1.537773e+02
600           	airfoil-h1	1.567770e-01	4.857313e-01	2.361697e-01
650           	airfoil-l1	1.793426e-02	4.746970e-01	1.249610e-01
650           	wall-l1	1.286724e+02	1.363941e+02	1.327902e+02
650           	airfoil-l2	1.111104e-01	1.372960e-01	1.271614e-01
650           	wall-l2	1.365002e+02	1.905797e+02	1.533176e+02
650           	wall-h2	1.588767e+02	2.137146e+02	1.771636e+02
650           	airfoil-h2	2.436393e-02	1.606511e-01	9.780088e-02
650           	wall-h1	1.497235e+02	1.587558e+02	1.546638e+02
650           	airfoil-h1	1.575897e-01	4.877497e-01	2.369883e-01
700           	airfoil-l1	1.460266e-02	4.764066e-01	1.248120e-01
700           	wall-l1	1.292175e+02	1.370549e+02	1.333901e+02
700           	airfoil-l2	1.101974e-01	1.370605e-01	1.268609e-01
700           	wall-l2	1.371621e+02	1.913955e+02	1.540287e+02
700           	wall-h2	1.596955e+02	2.147404e+02	1.780561e+02
700           	airfoil-h2	2.744184e-02	1.611998e-01	9.939809e-02
700           	wall-h1	1.503851e+02	1.595733e+02	1.554068e+02
700           	airfoil-h1	1.581142e-01	4.894525e-01	2.376019e-01
750           	airfoil-l1	1.119237e-02	4.777789e-01	1.246741e-01
750           	wall-l1	1.296541e+02	1.375694e+02	1.338658e+02
750           	airfoil-l2	1.095171e-01	1.368623e-01	1.266151e-01
750           	wall-l2	1.376774e+02	1.920147e+02	1.545772e+02
750           	wall-h2	1.603441e+02	2.155347e+02	1.787622e+02
750           	airfoil-h2	2.965044e-02	1.615766e-01	1.004850e-01
750           	wall-h1	1.508978e+02	1.602206e+02	1.559844e+02
750           	airfoil-h1	1.584752e-01	4.908210e-01	2.380805e-01
800           	airfoil-l1	7.401143e-03	4.788751e-01	1.245458e-01
800           	wall-l1	1.299837e+02	1.379791e+02	1.342333e+02
800           	airfoil-l2	1.090186e-01	1.366981e-01	1.264169e-01
800           	wall-l2	1.380878e+02	1.924914e+02	1.550099e+02
800           	wall-h2	1.608538e+02	2.161539e+02	1.793155e+02
800           	airfoil-h2	3.117602e-02	1.618561e-01	1.012293e-01
800           	wall-h1	1.512990e+02	1.607293e+02	1.564395e+02
800           	airfoil-h1	1.587435e-01	4.919150e-01	2.384628e-01
850           	airfoil-l1	1.071928e-03	4.797250e-01	1.243950e-01
850           	wall-l1	1.302336e+02	1.382852e+02	1.345103e+02
850           	airfoil-l2	1.086561e-01	1.365658e-01	1.262605e-01
850           	wall-l2	1.383943e+02	1.928451e+02	1.553321e+02
850           	wall-h2	1.612457e+02	2.166190e+02	1.797384e+02
850           	airfoil-h2	3.219986e-02	1.620724e-01	1.017443e-01
850           	wall-h1	1.515960e+02	1.611203e+02	1.567815e+02
850           	airfoil-h1	1.589516e-01	4.927639e-01	2.387693e-01
900           	airfoil-l1	6.380808e-03	4.803484e-01	1.244236e-01
900           	wall-l1	1.304089e+02	1.385099e+02	1.347086e+02
900           	airfoil-l2	1.083969e-01	1.364659e-01	1.261435e-01
900           	wall-l2	1.386195e+02	1.931026e+02	1.555689e+02
900           	wall-h2	1.615277e+02	2.169451e+02	1.800407e+02
900           	airfoil-h2	3.284658e-02	1.622380e-01	1.020909e-01
900           	wall-h1	1.517905e+02	1.614016e+02	1.570194e+02
900           	airfoil-h1	1.591113e-01	4.933888e-01	2.390064e-01
950           	airfoil-l1	8.373298e-03	4.807959e-01	1.244156e-01
950           	wall-l1	1.305336e+02	1.386728e+02	1.348532e+02
950           	airfoil-l2	1.082027e-01	1.363898e-01	1.260545e-01
950           	wall-l2	1.387826e+02	1.932765e+02	1.557356e+02
950           	wall-h2	1.617190e+02	2.171709e+02	1.802496e+02
950           	airfoil-h2	3.327516e-02	1.623771e-01	1.023446e-01
950           	wall-h1	1.519324e+02	1.615923e+02	1.571832e+02
950           	airfoil-h1	1.592456e-01	4.938364e-01	2.391950e-01
1000          	airfoil-l1	9.567043e-03	4.811220e-01	1.244059e-01
1000          	wall-l1	1.306182e+02	1.387785e+02	1.349466e+02
1000          	airfoil-l2	1.080538e-01	1.363319e-01	1.259864e-01
1000          	wall-l2	1.388886e+02	1.933937e+02	1.558467e+02
1000          	wall-h2	1.618469e+02	2.173214e+02	1.803873e+02
1000          	airfoil-h2	3.355279e-02	1.624925e-01	1.025349e-01
1000          	wall-h1	1.520362e+02	1.617200e+02	1.572996e+02
1000          	airfoil-h1	1.593570e-01	4.941625e-01	2.393417e-01
1050          	airfoil-l1	1.032808e-02	4.813575e-01	1.243981e-01
1050          	wall-l1	1.306791e+02	1.388573e+02	1.350168e+02
1050          	airfoil-l2	1.079391e-01	1.362906e-01	1.259365e-01
1050          	wall-l2	1.389676e+02	1.934844e+02	1.559298e+02
1050          	wall-h2	1.619512e+02	2.174361e+02	1.804971e+02
1050          	airfoil-h2	3.372520e-02	1.625812e-01	1.026724e-01
1050          	wall-h1	1.521013e+02	1.618241e+02	1.573852e+02
1050          	airfoil-h1	1.594425e-01	4.943988e-01	2.394508e-01
1100          	airfoil-l1	1.079729e-02	4.815049e-01	1.243915e-01
1100          	wall-l1	1.307248e+02	1.389103e+02	1.350643e+02
1100          	airfoil-l2	1.078512e-01	1.362634e-01	1.259023e-01
1100          	wall-l2	1.390207e+02	1.935439e+02	1.559857e+02
1100          	wall-h2	1.620129e+02	2.175065e+02	1.805649e+02
1100          	airfoil-h2	3.383167e-02	1.626450e-01	1.027679e-01
1100          	wall-h1	1.521379e+02	1.618854e+02	1.574305e+02
1100          	airfoil-h1	1.595042e-01	4.945468e-01	2.395269e-01
1150          	airfoil-l1	1.112149e-02	4.816121e-01	1.243866e-01
1150          	wall-l1	1.307492e+02	1.389489e+02	1.350978e+02
1150          	airfoil-l2	1.077808e-01	1.362422e-01	1.258753e-01
1150          	wall-l2	1.390593e+02	1.935775e+02	1.560213e+02
1150          	wall-h2	1.620453e+02	2.175483e+02	1.806016e+02
1150          	airfoil-h2	3.390357e-02	1.626988e-01	1.028437e-01
1150          	wall-h1	1.521695e+02	1.619178e+02	1.574626e+02
1150          	airfoil-h1	1.595560e-01	4.946541e-01	2.395864e-01
1200          	airfoil-l1	1.136035e-02	4.816928e-01	1.243828e-01
1200          	wall-l1	1.307712e+02	1.389773e+02	1.351204e+02
1200          	airfoil-l2	1.077217e-01	1.362264e-01	1.258540e-01
1200          	wall-l2	1.390878e+02	1.936113e+02	1.560534e+02
1200          	wall-h2	1.620767e+02	2.175823e+02	1.806338e+02
1200          	airfoil-h2	3.395015e-02	1.627424e-01	1.029047e-01
1200          	wall-h1	1.521930e+02	1.619492e+02	1.574914e+02
1200          	airfoil-h1	1.595980e-01	4.947351e-01	2.396324e-01
1250          	airfoil-l1	1.153887e-02	4.817542e-01	1.243799e-01
1250          	wall-l1	1.307908e+02	1.389970e+02	1.351410e+02
1250          	airfoil-l2	1.076716e-01	1.362142e-01	1.258369e-01
1250          	wall-l2	1.391075e+02	1.936363e+02	1.560749e+02
1250          	wall-h2	1.621043e+02	2.176129e+02	1.806633e+02
1250          	airfoil-h2	3.397798e-02	1.627766e-01	1.029528e-01
1250          	wall-h1	1.522087e+02	1.619767e+02	1.575121e+02
1250          	airfoil-h1	1.596309e-01	4.947966e-01	2.396677e-01
1300          	airfoil-l1	1.167402e-02	4.818009e-01	1.243776e-01
1300          	wall-l1	1.308050e+02	1.390170e+02	1.351583e+02
1300          	airfoil-l2	1.076292e-01	1.362048e-01	1.258231e-01
1300          	wall-l2	1.391276e+02	1.936572e+02	1.560950e+02
1300          	wall-h2	1.621222e+02	2.176369e+02	1.806841e+02
1300          	airfoil-h2	3.399071e-02	1.628030e-01	1.029898e-01
1300          	wall-h1	1.522218e+02	1.619944e+02	1.575271e+02
1300          	airfoil-h1	1.596563e-01	4.948433e-01	2.396945e-01
1350          	airfoil-l1	1.177459e-02	4.818341e-01	1.243755e-01
1350          	wall-l1	1.308165e+02	1.390316e+02	1.351708e+02
1350          	airfoil-l2	1.075933e-01	1.361976e-01	1.258120e-01
1350          	wall-l2	1.391421e+02	1.936721e+02	1.561097e+02
1350          	wall-h2	1.621351e+02	2.176508e+02	1.806976e+02
1350          	airfoil-h2	3.399023e-02	1.628232e-01	1.030173e-01
1350          	wall-h1	1.522304e+02	1.620073e+02	1.575380e+02
1350          	airfoil-h1	1.596757e-01	4.948765e-01	2.397147e-01
1400          	airfoil-l1	1.184344e-02	4.818538e-01	1.243735e-01
1400          	wall-l1	1.308221e+02	1.390402e+02	1.351777e+02
1400          	airfoil-l2	1.075649e-01	1.361919e-01	1.258033e-01
1400          	wall-l2	1.391507e+02	1.936797e+02	1.561177e+02
1400          	wall-h2	1.621425e+02	2.176578e+02	1.807053e+02
1400          	airfoil-h2	3.397611e-02	1.628386e-01	1.030363e-01
1400          	wall-h1	1.522371e+02	1.620147e+02	1.575447e+02
1400          	airfoil-h1	1.596905e-01	4.948959e-01	2.397288e-01
1450          	airfoil-l1	1.189154e-02	4.818722e-01	1.243724e-01
1450          	wall-l1	1.308247e+02	1.390464e+02	1.351829e+02
1450          	airfoil-l2	1.075422e-01	1.361877e-01	1.257966e-01
1450          	wall-l2	1.391568e+02	1.936846e+02	1.561239e+02
1450          	wall-h2	1.621482e+02	2.176632e+02	1.807112e+02
1450          	airfoil-h2	3.395090e-02	1.628501e-01	1.030485e-01
1450          	wall-h1	1.522404e+02	1.620205e+02	1.575503e+02
1450          	airfoil-h1	1.597016e-01	4.949145e-01	2.397397e-01
1500          	airfoil-l1	1.192333e-02	4.818835e-01	1.243717e-01
1500          	wall-l1	1.308279e+02	1.390505e+02	1.351865e+02
1500          	airfoil-l2	1.075210e-01	1.361849e-01	1.257914e-01
1500          	wall-l2	1.391610e+02	1.936886e+02	1.561290e+02
1500          	wall-h2	1.621552e+02	2.176640e+02	1.807163e+02
1500          	airfoil-h2	3.391929e-02	1.628583e-01	1.030554e-01
1500          	wall-h1	1.522381e+02	1.620275e+02	1.575521e+02
1500          	airfoil-h1	1.597094e-01	4.949261e-01	2.397476e-01
1550          	airfoil-l1	1.193785e-02	4.818880e-01	1.243709e-01
1550          	wall-l1	1.308284e+02	1.390527e+02	1.351887e+02
1550          	airfoil-l2	1.075018e-01	1.361829e-01	1.257874e-01
1550          	wall-l2	1.391633e+02	1.936899e+02	1.561312e+02
1550          	wall-h2	1.621568e+02	2.176640e+02	1.807177e+02
1550          	airfoil-h2	3.388255e-02	1.628648e-01	1.030583e-01
1550          	wall-h1	1.522351e+02	1.620289e+02	1.575501e+02
1550          	airfoil-h1	1.597157e-01	4.949307e-01	2.397536e-01
1600          	airfoil-l1	1.194060e-02	4.818884e-01	1.243705e-01
1600          	wall-l1	1.308280e+02	1.390546e+02	1.351889e+02
1600          	airfoil-l2	1.074849e-01	1.361817e-01	1.257843e-01
1600          	wall-l2	1.391654e+02	1.936875e+02	1.561320e+02
1600          	wall-h2	1.621531e+02	2.176585e+02	1.807141e+02
1600          	airfoil-h2	3.384099e-02	1.628699e-01	1.030583e-01
1600          	wall-h1	1.522298e+02	1.620253e+02	1.575460e+02
1600          	airfoil-h1	1.597206e-01	4.949313e-01	2.397575e-01
1650          	airfoil-l1	1.193185e-02	4.818843e-01	1.243700e-01
1650          	wall-l1	1.308254e+02	1.390565e+02	1.351873e+02
1650          	airfoil-l2	1.074681e-01	1.361810e-01	1.257819e-01
1650          	wall-l2	1.391669e+02	1.936846e+02	1.561314e+02
1650          	wall-h2	1.621477e+02	2.176504e+02	1.807081e+02
1650          	airfoil-h2	3.379722e-02	1.628739e-01	1.030564e-01
1650          	wall-h1	1.522241e+02	1.620197e+02	1.575400e+02
1650          	airfoil-h1	1.597244e-01	4.949275e-01	2.397603e-01
1700          	airfoil-l1	1.191736e-02	4.818785e-01	1.243699e-01
1700          	wall-l1	1.308233e+02	1.390529e+02	1.351847e+02
1700          	airfoil-l2	1.074525e-01	1.361809e-01	1.257800e-01
1700          	wall-l2	1.391636e+02	1.936819e+02	1.561288e+02
1700          	wall-h2	1.621419e+02	2.176412e+02	1.807017e+02
1700          	airfoil-h2	3.375154e-02	1.628770e-01	1.030530e-01
1700          	wall-h1	1.522172e+02	1.620140e+02	1.575341e+02
1700          	airfoil-h1	1.597274e-01	4.949218e-01	2.397618e-01
1750          	airfoil-l1	1.189628e-02	4.818695e-01	1.243696e-01
1750          	wall-l1	1.308202e+02	1.390516e+02	1.351816e+02
1750          	airfoil-l2	1.074379e-01	1.361811e-01	1.257785e-01
1750          	wall-l2	1.391617e+02	1.936757e+02	1.561250e+02
1750          	wall-h2	1.621347e+02	2.176330e+02	1.806945e+02
1750          	airfoil-h2	3.370473e-02	1.628792e-01	1.030483e-01
1750          	wall-h1	1.522111e+02	1.620065e+02	1.575274e+02
1750          	airfoil-h1	1.597296e-01	4.949130e-01	2.397623e-01
1800          	airfoil-l1	1.187121e-02	4.818596e-01	1.243695e-01
1800          	wall-l1	1.308160e+02	1.390460e+02	1.351779e+02
1800          	airfoil-l2	1.074233e-01	1.361815e-01	1.257774e-01
1800          	wall-l2	1.391565e+02	1.936706e+02	1.561210e+02
1800          	wall-h2	1.621281e+02	2.176223e+02	1.806868e+02
1800          	airfoil-h2	3.365800e-02	1.628809e-01	1.030429e-01
1800          	wall-h1	1.522046e+02	1.620003e+02	1.575209e+02
1800          	airfoil-h1	1.597312e-01	4.949032e-01	2.397617e-01
1850          	airfoil-l1	1.184358e-02	4.818485e-01	1.243694e-01
1850          	wall-l1	1.308121e+02	1.390429e+02	1.351740e+02
1850          	airfoil-l2	1.074094e-01	1.361822e-01	1.257766e-01
1850          	wall-l2	1.391535e+02	1.936643e+02	1.561168e+02
1850          	wall-h2	1.621212e+02	2.176129e+02	1.806789e+02
1850          	airfoil-h2	3.361066e-02	1.628819e-01	1.030367e-01
1850          	wall-h1	1.521974e+02	1.619932e+02	1.575140e+02
1850          	airfoil-h1	1.597322e-01	4.948922e-01	2.397612e-01
1900          	airfoil-l1	1.181272e-02	4.818364e-01	1.243694e-01
1900          	wall-l1	1.308080e+02	1.390389e+02	1.351700e+02
1900          	airfoil-l2	1.073958e-01	1.361830e-01	1.257760e-01
1900          	wall-l2	1.391495e+02	1.936578e+02	1.561120e+02
1900          	wall-h2	1.621145e+02	2.176019e+02	1.806712e+02
1900          	airfoil-h2	3.356372e-02	1.628825e-01	1.030300e-01
1900          	wall-h1	1.521900e+02	1.619866e+02	1.575064e+02
1900          	airfoil-h1	1.597327e-01	4.948803e-01	2.397593e-01
1950          	airfoil-l1	1.178072e-02	4.818239e-01	1.243694e-01
1950          	wall-l1	1.308036e+02	1.390345e+02	1.351656e+02
1950          	airfoil-l2	1.073827e-01	1.361840e-01	1.257756e-01
1950          	wall-l2	1.391448e+02	1.936513e+02	1.561072e+02
1950          	wall-h2	1.621066e+02	2.175918e+02	1.806620e+02
1950          	airfoil-h2	3.351730e-02	1.628828e-01	1.030229e-01
1950          	wall-h1	1.521820e+02	1.619784e+02	1.574986e+02
1950          	airfoil-h1	1.597330e-01	4.948679e-01	2.397577e-01
2000          	airfoil-l1	1.174633e-02	4.818103e-01	1.243694e-01
2000          	wall-l1	1.307987e+02	1.390302e+02	1.351609e+02
2000          	airfoil-l2	1.073700e-01	1.361851e-01	1.257753e-01
2000          	wall-l2	1.391408e+02	1.936445e+02	1.561018e+02
2000          	wall-h2	1.620983e+02	2.175797e+02	1.806533e+02
2000          	airfoil-h2	3.347115e-02	1.628828e-01	1.030156e-01
2000          	wall-h1	1.521735e+02	1.619703e+02	1.574905e+02
2000          	airfoil-h1	1.597330e-01	4.948543e-01	2.397557e-01
2050          	airfoil-l1	1.171109e-02	4.817964e-01	1.243694e-01
2050          	wall-l1	1.307946e+02	1.390253e+02	1.351561e+02
2050          	airfoil-l2	1.073574e-01	1.361862e-01	1.257752e-01
2050          	wall-l2	1.391357e+02	1.936371e+02	1.560965e+02
2050          	wall-h2	1.620896e+02	2.175682e+02	1.806437e+02
2050          	airfoil-h2	3.342595e-02	1.628826e-01	1.030081e-01
2050          	wall-h1	1.521665e+02	1.619617e+02	1.574825e+02
2050          	airfoil-h1	1.597328e-01	4.948406e-01	2.397533e-01
2100          	airfoil-l1	1.167838e-02	4.817833e-01	1.243694e-01
2100          	wall-l1	1.307895e+02	1.390197e+02	1.351514e+02
2100          	airfoil-l2	1.073465e-01	1.361873e-01	1.257751e-01
2100          	wall-l2	1.391298e+02	1.936301e+02	1.560910e+02
2100          	wall-h2	1.620820e+02	2.175576e+02	1.806346e+02
2100          	airfoil-h2	3.338576e-02	1.628822e-01	1.030013e-01
2100          	wall-h1	1.521600e+02	1.619544e+02	1.574748e+02
2100          	airfoil-h1	1.597324e-01	4.948275e-01	2.397508e-01
2150          	airfoil-l1	1.164972e-02	4.817707e-01	1.243693e-01
2150          	wall-l1	1.307852e+02	1.390162e+02	1.351469e+02
2150          	airfoil-l2	1.073365e-01	1.361882e-01	1.257750e-01
2150          	wall-l2	1.391271e+02	1.936233e+02	1.560855e+02
2150          	wall-h2	1.620736e+02	2.175479e+02	1.806260e+02
2150          	airfoil-h2	3.335427e-02	1.628818e-01	1.029958e-01
2150          	wall-h1	1.521540e+02	1.619458e+02	1.574676e+02
2150          	airfoil-h1	1.597320e-01	4.948149e-01	2.397485e-01
2200          	airfoil-l1	1.162644e-02	4.817609e-01	1.243693e-01
2200          	wall-l1	1.307826e+02	1.390115e+02	1.351431e+02
2200          	airfoil-l2	1.073278e-01	1.361889e-01	1.257750e-01
2200          	wall-l2	1.391222e+02	1.936177e+02	1.560810e+02
2200          	wall-h2	1.620667e+02	2.175382e+02	1.806182e+02
2200          	airfoil-h2	3.333038e-02	1.628815e-01	1.029916e-01
2200          	wall-h1	1.521493e+02	1.619390e+02	1.574621e+02
2200          	airfoil-h1	1.597317e-01	4.948051e-01	2.397470e-01
2250          	airfoil-l1	1.160306e-02	4.817522e-01	1.243693e-01
2250          	wall-l1	1.307847e+02	1.390071e+02	1.351396e+02
2250          	airfoil-l2	1.073178e-01	1.361896e-01	1.257748e-01
2250          	wall-l2	1.391173e+02	1.936138e+02	1.560774e+02
2250          	wall-h2	1.620607e+02	2.175302e+02	1.806114e+02
2250          	airfoil-h2	3.330680e-02	1.628811e-01	1.029874e-01
2250          	wall-h1	1.521446e+02	1.619328e+02	1.574572e+02
2250          	airfoil-h1	1.597313e-01	4.947964e-01	2.397448e-01
2300          	airfoil-l1	1.157884e-02	4.817436e-01	1.243695e-01
2300          	wall-l1	1.307728e+02	1.390042e+02	1.351370e+02
2300          	airfoil-l2	1.073082e-01	1.361905e-01	1.257747e-01
2300          	wall-l2	1.391143e+02	1.936109e+02	1.560742e+02
2300          	wall-h2	1.620555e+02	2.175248e+02	1.806066e+02
2300          	airfoil-h2	3.328162e-02	1.628805e-01	1.029830e-01
2300          	wall-h1	1.521393e+02	1.619277e+02	1.574522e+02
2300          	airfoil-h1	1.597308e-01	4.947878e-01	2.397429e-01
2350          	airfoil-l1	1.155826e-02	4.817356e-01	1.243696e-01
2350          	wall-l1	1.307777e+02	1.390050e+02	1.351356e+02
2350          	airfoil-l2	1.072994e-01	1.361912e-01	1.257746e-01
2350          	wall-l2	1.391140e+02	1.936083e+02	1.560717e+02
2350          	wall-h2	1.620514e+02	2.175200e+02	1.806020e+02
2350          	airfoil-h2	3.325764e-02	1.628798e-01	1.029787e-01
2350          	wall-h1	1.521410e+02	1.619236e+02	1.574478e+02
2350          	airfoil-h1	1.597301e-01	4.947798e-01	2.397404e-01
2400          	airfoil-l1	1.153814e-02	4.817280e-01	1.243697e-01
2400          	wall-l1	1.307731e+02	1.390012e+02	1.351337e+02
2400          	airfoil-l2	1.072907e-01	1.361920e-01	1.257744e-01
2400          	wall-l2	1.391116e+02	1.936047e+02	1.560696e+02
2400          	wall-h2	1.620464e+02	2.175142e+02	1.805969e+02
2400          	airfoil-h2	3.323247e-02	1.628791e-01	1.029741e-01
2400          	wall-h1	1.521250e+02	1.619187e+02	1.574440e+02
2400          	airfoil-h1	1.597293e-01	4.947722e-01	2.397392e-01
2450          	airfoil-l1	1.151973e-02	4.817216e-01	1.243698e-01
2450          	wall-l1	1.307718e+02	1.389991e+02	1.351317e+02
2450          	airfoil-l2	1.072825e-01	1.361927e-01	1.257743e-01
2450          	wall-l2	1.391098e+02	1.936035e+02	1.560679e+02
2450          	wall-h2	1.620441e+02	2.175101e+02	1.805929e+02
2450          	airfoil-h2	3.320786e-02	1.628782e-01	1.029695e-01
2450          	wall-h1	1.521221e+02	1.619163e+02	1.574407e+02
2450          	airfoil-h1	1.597285e-01	4.947659e-01	2.397368e-01
2500          	airfoil-l1	1.150050e-02	4.817145e-01	1.243699e-01
2500          	wall-l1	1.307696e+02	1.389965e+02	1.351296e+02
2500          	airfoil-l2	1.072741e-01	1.361935e-01	1.257742e-01
2500          	wall-l2	1.391072e+02	1.936001e+02	1.560655e+02
2500          	wall-h2	1.620365e+02	2.175048e+02	1.805887e+02
2500          	airfoil-h2	3.317953e-02	1.628772e-01	1.029642e-01
2500          	wall-h1	1.521369e+02	1.619085e+02	1.574378e+02
2500          	airfoil-h1	1.597276e-01	4.947588e-01	2.397347e-01
2550          	airfoil-l1	1.148282e-02	4.817073e-01	1.243699e-01
2550          	wall-l1	1.307681e+02	1.389942e+02	1.351274e+02
2550          	airfoil-l2	1.072663e-01	1.361941e-01	1.257742e-01
2550          	wall-l2	1.391048e+02	1.935961e+02	1.560628e+02
2550          	wall-h2	1.620354e+02	2.175010e+02	1.805850e+02
2550          	airfoil-h2	3.315184e-02	1.628762e-01	1.029589e-01
2550          	wall-h1	1.520967e+02	1.619080e+02	1.574335e+02
2550          	airfoil-h1	1.597266e-01	4.947516e-01	2.397331e-01
2600          	airfoil-l1	1.146426e-02	4.817006e-01	1.243699e-01
2600          	wall-l1	1.307642e+02	1.389922e+02	1.351251e+02
2600          	airfoil-l2	1.072585e-01	1.361948e-01	1.257741e-01
2600          	wall-l2	1.391028e+02	1.935926e+02	1.560602e+02
2600          	wall-h2	1.620325e+02	2.174936e+02	1.805807e+02
2600          	airfoil-h2	3.312368e-02	1.628753e-01	1.029535e-01
2600          	wall-h1	1.521420e+02	1.619041e+02	1.574299e+02
2600          	airfoil-h1	1.597257e-01	4.947450e-01	2.397314e-01
2650          	airfoil-l1	1.144375e-02	4.816930e-01	1.243699e-01
2650          	wall-l1	1.307618e+02	1.389900e+02	1.351225e+02
2650          	airfoil-l2	1.072513e-01	1.361955e-01	1.257741e-01
2650          	wall-l2	1.391008e+02	1.935886e+02	1.560573e+02
2650          	wall-h2	1.620295e+02	2.174871e+02	1.805759e+02
2650          	airfoil-h2	3.309699e-02	1.628745e-01	1.029483e-01
2650          	wall-h1	1.521369e+02	1.619013e+02	1.574257e+02
2650          	airfoil-h1	1.597249e-01	4.947375e-01	2.397294e-01
2700          	airfoil-l1	1.142357e-02	4.816850e-01	1.243699e-01
2700          	wall-l1	1.307598e+02	1.389871e+02	1.351197e+02
2700          	airfoil-l2	1.072435e-01	1.361961e-01	1.257742e-01
2700          	wall-l2	1.390977e+02	1.935840e+02	1.560540e+02
2700          	wall-h2	1.620234e+02	2.174819e+02	1.805704e+02
2700          	airfoil-h2	3.306880e-02	1.628738e-01	1.029428e-01
2700          	wall-h1	1.520962e+02	1.618959e+02	1.574207e+02
2700          	airfoil-h1	1.597242e-01	4.947296e-01	2.397277e-01
2750          	airfoil-l1	1.140327e-02	4.816769e-01	1.243698e-01
2750          	wall-l1	1.307572e+02	1.389843e+02	1.351168e+02
2750          	airfoil-l2	1.072365e-01	1.361968e-01	1.257743e-01
2750          	wall-l2	1.390949e+02	1.935798e+02	1.560506e+02
2750          	wall-h2	1.620208e+02	2.174743e+02	1.805651e+02
2750          	airfoil-h2	3.304313e-02	1.628732e-01	1.029379e-01
2750          	wall-h1	1.520918e+02	1.618925e+02	1.574157e+02
2750          	airfoil-h1	1.597237e-01	4.947214e-01	2.397262e-01
2800          	airfoil-l1	1.138147e-02	4.816694e-01	1.243699e-01
2800          	wall-l1	1.307532e+02	1.389811e+02	1.351138e+02
2800          	airfoil-l2	1.072283e-01	1.361975e-01	1.257743e-01
2800          	wall-l2	1.390917e+02	1.935760e+02	1.560475e+02
2800          	wall-h2	1.620163e+02	2.174678e+02	1.805599e+02
2800          	airfoil-h2	3.301685e-02	1.628725e-01	1.029329e-01
2800          	wall-h1	1.521144e+02	1.618870e+02	1.574120e+02
2800          	airfoil-h1	1.597230e-01	4.947140e-01	2.397248e-01
2850          	airfoil-l1	1.135897e-02	4.816609e-01	1.243699e-01
2850          	wall-l1	1.307516e+02	1.389784e+02	1.351110e+02
2850          	airfoil-l2	1.072204e-01	1.361982e-01	1.257745e-01
2850          	wall-l2	1.390890e+02	1.935714e+02	1.560441e+02
2850          	wall-h2	1.620097e+02	2.174592e+02	1.805546e+02
2850          	airfoil-h2	3.299018e-02	1.628719e-01	1.029278e-01
2850          	wall-h1	1.520858e+02	1.618809e+02	1.574064e+02
2850          	airfoil-h1	1.597225e-01	4.947057e-01	2.397227e-01
2900          	airfoil-l1	1.133439e-02	4.816523e-01	1.243698e-01
2900          	wall-l1	1.307456e+02	1.389749e+02	1.351080e+02
2900          	airfoil-l2	1.072126e-01	1.361990e-01	1.257746e-01
2900          	wall-l2	1.390855e+02	1.935671e+02	1.560406e+02
2900          	wall-h2	1.620008e+02	2.174523e+02	1.805492e+02
2900          	airfoil-h2	3.296528e-02	1.628714e-01	1.029231e-01
2900          	wall-h1	1.521297e+02	1.618727e+02	1.574023e+02