/*--------------------------------*- C++ -*----------------------------------*\
  =========                 |
  \\      /  F ield         | OpenFOAM: The Open Source CFD Toolbox
   \\    /   O peration     | Website:  https://openfoam.org
    \\  /    A nd           | Version:  7
     \\/     M anipulation  |
\*---------------------------------------------------------------------------*/
FoamFile
{
    version     2.0;
    format      ascii;
    class       volScalarField;
    location    "1600";
    object      nut;
}
// * * * * * * * * * * * * * * * * * * * * * * * * * * * * * * * * * * * * * //

dimensions      [0 2 -1 0 0 0 0];

internalField   nonuniform List<scalar> 
23117
(
5.21914e-06
5.21676e-06
5.23205e-06
5.21661e-06
5.23032e-06
5.23993e-06
5.21593e-06
5.22957e-06
5.23754e-06
5.24143e-06
5.21562e-06
5.22864e-06
5.23604e-06
5.23694e-06
5.23545e-06
5.21532e-06
5.22788e-06
5.23427e-06
5.2344e-06
5.22982e-06
5.22773e-06
5.21509e-06
5.22707e-06
5.23245e-06
5.23144e-06
5.22737e-06
5.22466e-06
5.22701e-06
5.2149e-06
5.22624e-06
5.23054e-06
5.22868e-06
5.2249e-06
5.22456e-06
5.22762e-06
5.23063e-06
5.21471e-06
5.22535e-06
5.22858e-06
5.22612e-06
5.22324e-06
5.22464e-06
5.22833e-06
5.23074e-06
5.23096e-06
5.21454e-06
5.2244e-06
5.2266e-06
5.22387e-06
5.22225e-06
5.22511e-06
5.22875e-06
5.23006e-06
5.22861e-06
5.22742e-06
5.21436e-06
5.22339e-06
5.22465e-06
5.22201e-06
5.22196e-06
5.2257e-06
5.22885e-06
5.22901e-06
5.22697e-06
5.22485e-06
5.22549e-06
5.21416e-06
5.22232e-06
5.22278e-06
5.22059e-06
5.2222e-06
5.22627e-06
5.22856e-06
5.22763e-06
5.2253e-06
5.22432e-06
5.2252e-06
5.22682e-06
5.21395e-06
5.2212e-06
5.22106e-06
5.21964e-06
5.2226e-06
5.22665e-06
5.22788e-06
5.22611e-06
5.22399e-06
5.22395e-06
5.2254e-06
5.22694e-06
5.22763e-06
5.21371e-06
5.22006e-06
5.21952e-06
5.21917e-06
5.22313e-06
5.22674e-06
5.22689e-06
5.2246e-06
5.2231e-06
5.22387e-06
5.22547e-06
5.22644e-06
5.22618e-06
5.22544e-06
5.21344e-06
5.21891e-06
5.21821e-06
5.21915e-06
5.22366e-06
5.22654e-06
5.22568e-06
5.22327e-06
5.22265e-06
5.22392e-06
5.22537e-06
5.22571e-06
5.22452e-06
5.22213e-06
5.22062e-06
5.21314e-06
5.21777e-06
5.21718e-06
5.21948e-06
5.22411e-06
5.22605e-06
5.22438e-06
5.22222e-06
5.22246e-06
5.22397e-06
5.225e-06
5.22458e-06
5.2227e-06
5.21986e-06
5.21658e-06
5.21527e-06
5.21281e-06
5.21667e-06
5.21642e-06
5.21989e-06
5.22438e-06
5.22531e-06
5.2231e-06
5.22152e-06
5.2224e-06
5.22389e-06
5.22435e-06
5.22318e-06
5.22067e-06
5.21757e-06
5.2146e-06
5.21207e-06
5.2117e-06
5.21245e-06
5.21564e-06
5.21597e-06
5.22036e-06
5.22443e-06
5.22439e-06
5.22193e-06
5.22115e-06
5.22241e-06
5.22364e-06
5.22343e-06
5.22157e-06
5.21864e-06
5.21545e-06
5.21277e-06
5.21111e-06
5.21038e-06
5.21093e-06
5.21207e-06
5.2147e-06
5.2158e-06
5.22084e-06
5.22426e-06
5.22334e-06
5.22095e-06
5.22094e-06
5.22238e-06
5.22318e-06
5.22229e-06
5.21987e-06
5.21669e-06
5.21364e-06
5.21143e-06
5.21042e-06
5.21057e-06
5.21127e-06
5.21231e-06
5.21166e-06
5.21388e-06
5.21592e-06
5.22127e-06
5.22389e-06
5.22226e-06
5.22022e-06
5.22084e-06
5.22226e-06
5.22252e-06
5.22099e-06
5.21815e-06
5.2149e-06
5.21216e-06
5.21055e-06
5.21023e-06
5.21086e-06
5.21217e-06
5.21365e-06
5.21479e-06
5.21124e-06
5.21318e-06
5.21627e-06
5.22162e-06
5.22334e-06
5.2212e-06
5.21975e-06
5.2208e-06
5.22201e-06
5.22168e-06
5.2196e-06
5.21648e-06
5.21335e-06
5.21105e-06
5.21009e-06
5.21036e-06
5.21145e-06
5.21296e-06
5.21473e-06
5.21648e-06
5.21758e-06
5.21082e-06
5.21263e-06
5.21667e-06
5.22183e-06
5.22264e-06
5.22024e-06
5.2195e-06
5.22075e-06
5.22161e-06
5.2207e-06
5.21817e-06
5.21494e-06
5.21205e-06
5.2103e-06
5.20998e-06
5.21073e-06
5.21215e-06
5.21388e-06
5.21569e-06
5.21752e-06
5.21925e-06
5.22028e-06
5.21039e-06
5.21223e-06
5.2171e-06
5.22188e-06
5.22185e-06
5.2194e-06
5.21931e-06
5.22066e-06
5.22108e-06
5.21962e-06
5.21676e-06
5.21355e-06
5.21103e-06
5.20988e-06
5.2101e-06
5.21125e-06
5.21291e-06
5.21477e-06
5.21666e-06
5.21845e-06
5.22018e-06
5.22178e-06
5.22275e-06
5.20996e-06
5.21199e-06
5.21753e-06
5.22179e-06
5.22099e-06
5.21874e-06
5.21919e-06
5.22047e-06
5.22042e-06
5.21849e-06
5.21542e-06
5.21236e-06
5.21029e-06
5.20973e-06
5.21041e-06
5.21186e-06
5.21369e-06
5.21562e-06
5.21752e-06
5.21933e-06
5.221e-06
5.22259e-06
5.22403e-06
5.22497e-06
5.20956e-06
5.21191e-06
5.21794e-06
5.22156e-06
5.22012e-06
5.21825e-06
5.2191e-06
5.22021e-06
5.21966e-06
5.21733e-06
5.21418e-06
5.21136e-06
5.2098e-06
5.20977e-06
5.21084e-06
5.21252e-06
5.21445e-06
5.21642e-06
5.21831e-06
5.22009e-06
5.22176e-06
5.22328e-06
5.22474e-06
5.22605e-06
5.22696e-06
5.20917e-06
5.21199e-06
5.21832e-06
5.2212e-06
5.21928e-06
5.21794e-06
5.21903e-06
5.21984e-06
5.21883e-06
5.2162e-06
5.21306e-06
5.21057e-06
5.20954e-06
5.20997e-06
5.21133e-06
5.21317e-06
5.21517e-06
5.21715e-06
5.21902e-06
5.22078e-06
5.2224e-06
5.22392e-06
5.22532e-06
5.22667e-06
5.22786e-06
5.22876e-06
5.20882e-06
5.21222e-06
5.21863e-06
5.22073e-06
5.2185e-06
5.21773e-06
5.21893e-06
5.2194e-06
5.21795e-06
5.21511e-06
5.21208e-06
5.20998e-06
5.20946e-06
5.21027e-06
5.21187e-06
5.21382e-06
5.21584e-06
5.21781e-06
5.21966e-06
5.22137e-06
5.22297e-06
5.22446e-06
5.22586e-06
5.22715e-06
5.22843e-06
5.22952e-06
5.23041e-06
5.2085e-06
5.21258e-06
5.21887e-06
5.22018e-06
5.2178e-06
5.21755e-06
5.21878e-06
5.21887e-06
5.21705e-06
5.21409e-06
5.21124e-06
5.20957e-06
5.20952e-06
5.21065e-06
5.21242e-06
5.21443e-06
5.21646e-06
5.2184e-06
5.22022e-06
5.2219e-06
5.22347e-06
5.22493e-06
5.22631e-06
5.22761e-06
5.22882e-06
5.23003e-06
5.23105e-06
5.23193e-06
5.20823e-06
5.21301e-06
5.21902e-06
5.21957e-06
5.2172e-06
5.21742e-06
5.21858e-06
5.21828e-06
5.21615e-06
5.21316e-06
5.21055e-06
5.20933e-06
5.20968e-06
5.21106e-06
5.21296e-06
5.21501e-06
5.21703e-06
5.21894e-06
5.22071e-06
5.22236e-06
5.2239e-06
5.22534e-06
5.2267e-06
5.22799e-06
5.22922e-06
5.23037e-06
5.23153e-06
5.23248e-06
5.23335e-06
5.20801e-06
5.21343e-06
5.21907e-06
5.21892e-06
5.21672e-06
5.21731e-06
5.21832e-06
5.21765e-06
5.21528e-06
5.21231e-06
5.21e-06
5.20922e-06
5.20991e-06
5.2115e-06
5.21348e-06
5.21554e-06
5.21754e-06
5.21941e-06
5.22114e-06
5.22276e-06
5.22427e-06
5.22569e-06
5.22704e-06
5.22832e-06
5.22954e-06
5.23071e-06
5.23181e-06
5.23292e-06
5.23381e-06
5.23467e-06
5.20783e-06
5.21383e-06
5.21903e-06
5.21825e-06
5.21636e-06
5.21721e-06
5.21801e-06
5.21699e-06
5.21444e-06
5.21156e-06
5.20958e-06
5.20922e-06
5.2102e-06
5.21194e-06
5.21397e-06
5.21603e-06
5.218e-06
5.21983e-06
5.22152e-06
5.22311e-06
5.22459e-06
5.226e-06
5.22734e-06
5.22861e-06
5.22983e-06
5.23099e-06
5.23211e-06
5.23315e-06
5.23422e-06
5.23506e-06
5.23592e-06
5.20771e-06
5.21423e-06
5.21889e-06
5.2176e-06
5.21611e-06
5.21711e-06
5.21766e-06
5.21632e-06
5.21365e-06
5.21091e-06
5.20927e-06
5.20929e-06
5.21052e-06
5.21237e-06
5.21444e-06
5.21648e-06
5.21841e-06
5.2202e-06
5.22186e-06
5.22341e-06
5.22488e-06
5.22627e-06
5.22759e-06
5.22886e-06
5.23007e-06
5.23123e-06
5.23234e-06
5.23341e-06
5.23441e-06
5.23545e-06
5.23624e-06
5.23709e-06
5.20765e-06
5.2146e-06
5.21868e-06
5.21697e-06
5.21592e-06
5.21699e-06
5.21726e-06
5.21565e-06
5.21292e-06
5.21036e-06
5.20908e-06
5.20943e-06
5.21086e-06
5.2128e-06
5.21487e-06
5.21689e-06
5.21877e-06
5.22052e-06
5.22215e-06
5.22368e-06
5.22512e-06
5.2265e-06
5.22781e-06
5.22907e-06
5.23028e-06
5.23143e-06
5.23254e-06
5.23361e-06
5.23464e-06
5.23559e-06
5.23659e-06
5.23734e-06
5.23818e-06
5.20765e-06
5.21494e-06
5.2184e-06
5.21638e-06
5.21575e-06
5.21684e-06
5.21683e-06
5.21499e-06
5.21225e-06
5.2099e-06
5.20898e-06
5.20961e-06
5.2112e-06
5.2132e-06
5.21527e-06
5.21725e-06
5.2191e-06
5.22081e-06
5.22241e-06
5.22391e-06
5.22534e-06
5.2267e-06
5.228e-06
5.22925e-06
5.23045e-06
5.2316e-06
5.23271e-06
5.23378e-06
5.2348e-06
5.23578e-06
5.2367e-06
5.23767e-06
5.23837e-06
5.23921e-06
5.20772e-06
5.21526e-06
5.21806e-06
5.21584e-06
5.2156e-06
5.21666e-06
5.21637e-06
5.21434e-06
5.21164e-06
5.20953e-06
5.20895e-06
5.20983e-06
5.21154e-06
5.21358e-06
5.21563e-06
5.21758e-06
5.21938e-06
5.22106e-06
5.22263e-06
5.22411e-06
5.22552e-06
5.22687e-06
5.22816e-06
5.2294e-06
5.2306e-06
5.23174e-06
5.23285e-06
5.23391e-06
5.23493e-06
5.23591e-06
5.23686e-06
5.23774e-06
5.23868e-06
5.23935e-06
5.24018e-06
5.20785e-06
5.21553e-06
5.21767e-06
5.21537e-06
5.21547e-06
5.21645e-06
5.2159e-06
5.21373e-06
5.21109e-06
5.20923e-06
5.20898e-06
5.21007e-06
5.21188e-06
5.21393e-06
5.21596e-06
5.21787e-06
5.21964e-06
5.22128e-06
5.22283e-06
5.22429e-06
5.22568e-06
5.22702e-06
5.2283e-06
5.22953e-06
5.23072e-06
5.23186e-06
5.23295e-06
5.23401e-06
5.23503e-06
5.23601e-06
5.23695e-06
5.23787e-06
5.23872e-06
5.23963e-06
5.24026e-06
5.24109e-06
5.20804e-06
5.21576e-06
5.21725e-06
5.21496e-06
5.21535e-06
5.21622e-06
5.21542e-06
5.21315e-06
5.21061e-06
5.20901e-06
5.20905e-06
5.21032e-06
5.21221e-06
5.21426e-06
5.21626e-06
5.21813e-06
5.21986e-06
5.22148e-06
5.223e-06
5.22444e-06
5.22582e-06
5.22714e-06
5.22841e-06
5.22963e-06
5.23081e-06
5.23194e-06
5.23304e-06
5.23409e-06
5.2351e-06
5.23608e-06
5.23702e-06
5.23793e-06
5.23882e-06
5.23963e-06
5.24052e-06
5.24112e-06
5.24195e-06
5.20832e-06
5.21595e-06
5.21679e-06
5.21462e-06
5.21525e-06
5.21596e-06
5.21494e-06
5.2126e-06
5.21018e-06
5.20885e-06
5.20916e-06
5.21058e-06
5.21252e-06
5.21457e-06
5.21653e-06
5.21837e-06
5.22006e-06
5.22165e-06
5.22315e-06
5.22457e-06
5.22594e-06
5.22725e-06
5.22851e-06
5.22972e-06
5.23088e-06
5.23201e-06
5.23309e-06
5.23414e-06
5.23515e-06
5.23612e-06
5.23706e-06
5.23797e-06
5.23885e-06
5.23971e-06
5.2405e-06
5.24136e-06
5.24193e-06
5.24275e-06
5.20869e-06
5.21609e-06
5.21633e-06
5.21435e-06
5.21514e-06
5.21569e-06
5.21447e-06
5.21209e-06
5.20982e-06
5.20876e-06
5.20929e-06
5.21084e-06
5.21281e-06
5.21484e-06
5.21678e-06
5.21857e-06
5.22024e-06
5.2218e-06
5.22328e-06
5.22469e-06
5.22604e-06
5.22733e-06
5.22858e-06
5.22978e-06
5.23094e-06
5.23205e-06
5.23313e-06
5.23417e-06
5.23517e-06
5.23614e-06
5.23708e-06
5.23799e-06
5.23887e-06
5.23971e-06
5.24054e-06
5.24131e-06
5.24215e-06
5.24269e-06
5.24352e-06
5.20919e-06
5.21616e-06
5.21585e-06
5.21415e-06
5.21503e-06
5.21539e-06
5.214e-06
5.21162e-06
5.2095e-06
5.20871e-06
5.20944e-06
5.21109e-06
5.21309e-06
5.2151e-06
5.217e-06
5.21876e-06
5.2204e-06
5.22193e-06
5.22339e-06
5.22478e-06
5.22612e-06
5.2274e-06
5.22864e-06
5.22983e-06
5.23097e-06
5.23208e-06
5.23315e-06
5.23418e-06
5.23518e-06
5.23614e-06
5.23707e-06
5.23798e-06
5.23886e-06
5.23971e-06
5.24053e-06
5.24133e-06
5.24207e-06
5.2429e-06
5.24341e-06
5.24423e-06
5.20965e-06
5.21618e-06
5.21538e-06
5.21398e-06
5.21491e-06
5.21509e-06
5.21356e-06
5.21119e-06
5.20924e-06
5.2087e-06
5.20961e-06
5.21134e-06
5.21335e-06
5.21533e-06
5.2172e-06
5.21892e-06
5.22053e-06
5.22205e-06
5.22349e-06
5.22486e-06
5.22619e-06
5.22746e-06
5.22868e-06
5.22986e-06
5.23099e-06
5.23209e-06
5.23315e-06
5.23417e-06
5.23516e-06
5.23612e-06
5.23705e-06
5.23795e-06
5.23882e-06
5.23967e-06
5.2405e-06
5.24129e-06
5.24207e-06
5.24279e-06
5.2436e-06
5.24409e-06
5.24491e-06
5.20999e-06
5.21612e-06
5.21492e-06
5.21383e-06
5.21478e-06
5.21477e-06
5.21313e-06
5.2108e-06
5.20902e-06
5.20872e-06
5.20979e-06
5.21158e-06
5.21359e-06
5.21555e-06
5.21738e-06
5.21907e-06
5.22065e-06
5.22215e-06
5.22357e-06
5.22493e-06
5.22624e-06
5.2275e-06
5.22871e-06
5.22988e-06
5.231e-06
5.23209e-06
5.23313e-06
5.23415e-06
5.23513e-06
5.23608e-06
5.23701e-06
5.2379e-06
5.23877e-06
5.23962e-06
5.24044e-06
5.24124e-06
5.24201e-06
5.24277e-06
5.24347e-06
5.24427e-06
5.24473e-06
5.24555e-06
5.21031e-06
5.21601e-06
5.21448e-06
5.21368e-06
5.21463e-06
5.21445e-06
5.21272e-06
5.21045e-06
5.20884e-06
5.20877e-06
5.20997e-06
5.21181e-06
5.21381e-06
5.21574e-06
5.21754e-06
5.2192e-06
5.22076e-06
5.22223e-06
5.22364e-06
5.22499e-06
5.22628e-06
5.22753e-06
5.22873e-06
5.22988e-06
5.23099e-06
5.23207e-06
5.23311e-06
5.23411e-06
5.23509e-06
5.23603e-06
5.23695e-06
5.23784e-06
5.23871e-06
5.23955e-06
5.24037e-06
5.24117e-06
5.24194e-06
5.2427e-06
5.24344e-06
5.24412e-06
5.2449e-06
5.24534e-06
5.24616e-06
5.2106e-06
5.21586e-06
5.21407e-06
5.21355e-06
5.21448e-06
5.21413e-06
5.21233e-06
5.21013e-06
5.2087e-06
5.20883e-06
5.21016e-06
5.21203e-06
5.21402e-06
5.21592e-06
5.21768e-06
5.21932e-06
5.22085e-06
5.22231e-06
5.2237e-06
5.22503e-06
5.22632e-06
5.22755e-06
5.22873e-06
5.22988e-06
5.23098e-06
5.23204e-06
5.23307e-06
5.23406e-06
5.23503e-06
5.23597e-06
5.23688e-06
5.23776e-06
5.23862e-06
5.23946e-06
5.24028e-06
5.24108e-06
5.24185e-06
5.24261e-06
5.24334e-06
5.24406e-06
5.24473e-06
5.24549e-06
5.24591e-06
5.24673e-06
5.21086e-06
5.21567e-06
5.21369e-06
5.21343e-06
5.21431e-06
5.21382e-06
5.21196e-06
5.20984e-06
5.2086e-06
5.20891e-06
5.21034e-06
5.21224e-06
5.21421e-06
5.21608e-06
5.21781e-06
5.21942e-06
5.22093e-06
5.22237e-06
5.22375e-06
5.22507e-06
5.22634e-06
5.22756e-06
5.22873e-06
5.22986e-06
5.23095e-06
5.232e-06
5.23302e-06
5.234e-06
5.23496e-06
5.23589e-06
5.23679e-06
5.23767e-06
5.23853e-06
5.23936e-06
5.24018e-06
5.24097e-06
5.24174e-06
5.2425e-06
5.24323e-06
5.24395e-06
5.24466e-06
5.2453e-06
5.24606e-06
5.24646e-06
5.24728e-06
5.2111e-06
5.21545e-06
5.21334e-06
5.21332e-06
5.21414e-06
5.21351e-06
5.21162e-06
5.20959e-06
5.20852e-06
5.20901e-06
5.21052e-06
5.21243e-06
5.21438e-06
5.21622e-06
5.21792e-06
5.21951e-06
5.221e-06
5.22243e-06
5.22379e-06
5.2251e-06
5.22635e-06
5.22756e-06
5.22872e-06
5.22983e-06
5.23091e-06
5.23195e-06
5.23296e-06
5.23394e-06
5.23488e-06
5.2358e-06
5.2367e-06
5.23757e-06
5.23842e-06
5.23925e-06
5.24006e-06
5.24085e-06
5.24162e-06
5.24237e-06
5.24311e-06
5.24383e-06
5.24452e-06
5.24521e-06
5.24585e-06
5.24659e-06
5.24697e-06
5.24779e-06
5.21131e-06
5.2152e-06
5.21303e-06
5.21321e-06
5.21395e-06
5.2132e-06
5.2113e-06
5.20936e-06
5.20848e-06
5.20912e-06
5.21069e-06
5.21262e-06
5.21455e-06
5.21635e-06
5.21803e-06
5.21959e-06
5.22107e-06
5.22247e-06
5.22382e-06
5.22511e-06
5.22635e-06
5.22755e-06
5.22869e-06
5.2298e-06
5.23087e-06
5.2319e-06
5.23289e-06
5.23386e-06
5.2348e-06
5.23571e-06
5.2366e-06
5.23746e-06
5.23831e-06
5.23913e-06
5.23993e-06
5.24072e-06
5.24148e-06
5.24223e-06
5.24297e-06
5.24368e-06
5.24438e-06
5.24507e-06
5.24574e-06
5.24636e-06
5.24709e-06
5.24746e-06
5.24828e-06
5.21149e-06
5.21494e-06
5.21275e-06
5.21311e-06
5.21377e-06
5.21291e-06
5.211e-06
5.20916e-06
5.20845e-06
5.20923e-06
5.21086e-06
5.21279e-06
5.21469e-06
5.21647e-06
5.21812e-06
5.21966e-06
5.22112e-06
5.22251e-06
5.22384e-06
5.22512e-06
5.22635e-06
5.22753e-06
5.22867e-06
5.22976e-06
5.23081e-06
5.23183e-06
5.23282e-06
5.23378e-06
5.23471e-06
5.23561e-06
5.23649e-06
5.23735e-06
5.23818e-06
5.239e-06
5.2398e-06
5.24058e-06
5.24134e-06
5.24208e-06
5.24281e-06
5.24353e-06
5.24423e-06
5.24491e-06
5.24558e-06
5.24624e-06
5.24685e-06
5.24757e-06
5.24793e-06
5.24874e-06
5.21165e-06
5.21465e-06
5.21251e-06
5.21301e-06
5.21358e-06
5.21262e-06
5.21072e-06
5.20898e-06
5.20845e-06
5.20934e-06
5.21103e-06
5.21295e-06
5.21483e-06
5.21658e-06
5.2182e-06
5.21972e-06
5.22117e-06
5.22254e-06
5.22386e-06
5.22513e-06
5.22634e-06
5.22751e-06
5.22863e-06
5.22971e-06
5.23075e-06
5.23176e-06
5.23274e-06
5.23369e-06
5.23461e-06
5.2355e-06
5.23637e-06
5.23722e-06
5.23805e-06
5.23886e-06
5.23965e-06
5.24042e-06
5.24118e-06
5.24192e-06
5.24265e-06
5.24336e-06
5.24406e-06
5.24474e-06
5.24541e-06
5.24606e-06
5.24672e-06
5.24731e-06
5.24802e-06
5.24836e-06
5.24918e-06
5.21178e-06
5.21436e-06
5.21231e-06
5.21291e-06
5.21338e-06
5.21235e-06
5.21047e-06
5.20883e-06
5.20846e-06
5.20946e-06
5.21118e-06
5.2131e-06
5.21495e-06
5.21668e-06
5.21828e-06
5.21978e-06
5.2212e-06
5.22257e-06
5.22387e-06
5.22512e-06
5.22633e-06
5.22748e-06
5.22859e-06
5.22966e-06
5.23069e-06
5.23169e-06
5.23265e-06
5.23359e-06
5.2345e-06
5.23539e-06
5.23625e-06
5.23709e-06
5.23791e-06
5.23871e-06
5.2395e-06
5.24026e-06
5.24101e-06
5.24175e-06
5.24247e-06
5.24318e-06
5.24387e-06
5.24456e-06
5.24523e-06
5.24588e-06
5.24652e-06
5.24716e-06
5.24775e-06
5.24845e-06
5.24878e-06
5.24959e-06
5.21189e-06
5.21406e-06
5.21214e-06
5.21281e-06
5.21319e-06
5.21209e-06
5.21023e-06
5.2087e-06
5.20848e-06
5.20958e-06
5.21133e-06
5.21324e-06
5.21507e-06
5.21676e-06
5.21834e-06
5.21983e-06
5.22124e-06
5.22259e-06
5.22388e-06
5.22512e-06
5.22631e-06
5.22745e-06
5.22854e-06
5.2296e-06
5.23062e-06
5.23161e-06
5.23256e-06
5.23349e-06
5.23439e-06
5.23527e-06
5.23612e-06
5.23695e-06
5.23777e-06
5.23856e-06
5.23934e-06
5.2401e-06
5.24084e-06
5.24157e-06
5.24229e-06
5.24299e-06
5.24368e-06
5.24436e-06
5.24503e-06
5.24568e-06
5.24633e-06
5.24696e-06
5.24759e-06
5.24816e-06
5.24886e-06
5.24917e-06
5.24998e-06
5.21198e-06
5.21375e-06
5.212e-06
5.21271e-06
5.21299e-06
5.21184e-06
5.21001e-06
5.20859e-06
5.20852e-06
5.2097e-06
5.21147e-06
5.21337e-06
5.21517e-06
5.21684e-06
5.2184e-06
5.21987e-06
5.22126e-06
5.2226e-06
5.22388e-06
5.2251e-06
5.22628e-06
5.22741e-06
5.22849e-06
5.22954e-06
5.23055e-06
5.23153e-06
5.23247e-06
5.23339e-06
5.23428e-06
5.23515e-06
5.23599e-06
5.23681e-06
5.23762e-06
5.2384e-06
5.23917e-06
5.23992e-06
5.24066e-06
5.24138e-06
5.2421e-06
5.24279e-06
5.24348e-06
5.24416e-06
5.24482e-06
5.24547e-06
5.24612e-06
5.24675e-06
5.24737e-06
5.24799e-06
5.24855e-06
5.24924e-06
5.24955e-06
5.25036e-06
5.21205e-06
5.21345e-06
5.21186e-06
5.21261e-06
5.2128e-06
5.2116e-06
5.20981e-06
5.20849e-06
5.20856e-06
5.20982e-06
5.21161e-06
5.21348e-06
5.21526e-06
5.21691e-06
5.21845e-06
5.2199e-06
5.22129e-06
5.22261e-06
5.22387e-06
5.22509e-06
5.22625e-06
5.22737e-06
5.22844e-06
5.22947e-06
5.23047e-06
5.23144e-06
5.23237e-06
5.23328e-06
5.23416e-06
5.23502e-06
5.23586e-06
5.23667e-06
5.23747e-06
5.23824e-06
5.239e-06
5.23975e-06
5.24048e-06
5.24119e-06
5.2419e-06
5.24259e-06
5.24327e-06
5.24394e-06
5.2446e-06
5.24525e-06
5.24589e-06
5.24653e-06
5.24715e-06
5.24776e-06
5.24837e-06
5.24892e-06
5.24961e-06
5.2499e-06
5.25071e-06
5.21209e-06
5.21314e-06
5.21173e-06
5.21251e-06
5.21261e-06
5.21138e-06
5.20962e-06
5.20841e-06
5.20861e-06
5.20993e-06
5.21173e-06
5.21359e-06
5.21535e-06
5.21698e-06
5.2185e-06
5.21993e-06
5.2213e-06
5.22261e-06
5.22387e-06
5.22507e-06
5.22622e-06
5.22732e-06
5.22838e-06
5.22941e-06
5.23039e-06
5.23135e-06
5.23227e-06
5.23317e-06
5.23404e-06
5.23489e-06
5.23572e-06
5.23652e-06
5.23731e-06
5.23808e-06
5.23883e-06
5.23957e-06
5.24029e-06
5.241e-06
5.24169e-06
5.24238e-06
5.24306e-06
5.24372e-06
5.24438e-06
5.24503e-06
5.24566e-06
5.24629e-06
5.24691e-06
5.24753e-06
5.24813e-06
5.24873e-06
5.24928e-06
5.24995e-06
5.25024e-06
5.25104e-06
5.21212e-06
5.21284e-06
5.21161e-06
5.2124e-06
5.21243e-06
5.21117e-06
5.20945e-06
5.20835e-06
5.20866e-06
5.21005e-06
5.21185e-06
5.2137e-06
5.21543e-06
5.21704e-06
5.21854e-06
5.21996e-06
5.22132e-06
5.22261e-06
5.22385e-06
5.22504e-06
5.22618e-06
5.22727e-06
5.22832e-06
5.22934e-06
5.23031e-06
5.23126e-06
5.23217e-06
5.23306e-06
5.23392e-06
5.23476e-06
5.23558e-06
5.23637e-06
5.23715e-06
5.23791e-06
5.23865e-06
5.23938e-06
5.2401e-06
5.2408e-06
5.24149e-06
5.24217e-06
5.24284e-06
5.2435e-06
5.24415e-06
5.24479e-06
5.24543e-06
5.24605e-06
5.24667e-06
5.24728e-06
5.24788e-06
5.24848e-06
5.24907e-06
5.24961e-06
5.25028e-06
5.25056e-06
5.25136e-06
5.21213e-06
5.21255e-06
5.21149e-06
5.21229e-06
5.21225e-06
5.21096e-06
5.2093e-06
5.2083e-06
5.20872e-06
5.21016e-06
5.21197e-06
5.21379e-06
5.2155e-06
5.21709e-06
5.21857e-06
5.21998e-06
5.22132e-06
5.22261e-06
5.22384e-06
5.22501e-06
5.22614e-06
5.22722e-06
5.22826e-06
5.22926e-06
5.23023e-06
5.23116e-06
5.23207e-06
5.23295e-06
5.2338e-06
5.23463e-06
5.23544e-06
5.23622e-06
5.23699e-06
5.23774e-06
5.23848e-06
5.2392e-06
5.2399e-06
5.2406e-06
5.24128e-06
5.24195e-06
5.24261e-06
5.24327e-06
5.24391e-06
5.24455e-06
5.24518e-06
5.2458e-06
5.24642e-06
5.24703e-06
5.24763e-06
5.24822e-06
5.24881e-06
5.2494e-06
5.24993e-06
5.25059e-06
5.25086e-06
5.25166e-06
5.21212e-06
5.21226e-06
5.21137e-06
5.21218e-06
5.21207e-06
5.21078e-06
5.20915e-06
5.20826e-06
5.20878e-06
5.21026e-06
5.21207e-06
5.21388e-06
5.21557e-06
5.21713e-06
5.2186e-06
5.22e-06
5.22133e-06
5.2226e-06
5.22382e-06
5.22498e-06
5.2261e-06
5.22717e-06
5.2282e-06
5.22919e-06
5.23014e-06
5.23107e-06
5.23197e-06
5.23283e-06
5.23368e-06
5.2345e-06
5.23529e-06
5.23607e-06
5.23683e-06
5.23757e-06
5.2383e-06
5.23901e-06
5.23971e-06
5.24039e-06
5.24107e-06
5.24173e-06
5.24239e-06
5.24304e-06
5.24368e-06
5.24431e-06
5.24493e-06
5.24555e-06
5.24616e-06
5.24677e-06
5.24737e-06
5.24796e-06
5.24855e-06
5.24912e-06
5.2497e-06
5.25023e-06
5.25089e-06
5.25115e-06
5.25195e-06
5.2121e-06
5.21198e-06
5.21126e-06
5.21207e-06
5.2119e-06
5.2106e-06
5.20902e-06
5.20823e-06
5.20885e-06
5.21036e-06
5.21217e-06
5.21396e-06
5.21563e-06
5.21718e-06
5.21863e-06
5.22001e-06
5.22133e-06
5.22259e-06
5.2238e-06
5.22495e-06
5.22606e-06
5.22711e-06
5.22813e-06
5.22911e-06
5.23006e-06
5.23097e-06
5.23186e-06
5.23272e-06
5.23355e-06
5.23436e-06
5.23515e-06
5.23592e-06
5.23667e-06
5.2374e-06
5.23812e-06
5.23882e-06
5.23951e-06
5.24019e-06
5.24086e-06
5.24151e-06
5.24216e-06
5.2428e-06
5.24343e-06
5.24406e-06
5.24468e-06
5.24529e-06
5.2459e-06
5.2465e-06
5.2471e-06
5.24769e-06
5.24827e-06
5.24885e-06
5.24942e-06
5.25e-06
5.25051e-06
5.25117e-06
5.25143e-06
5.25222e-06
5.21207e-06
5.21171e-06
5.21115e-06
5.21197e-06
5.21174e-06
5.21043e-06
5.2089e-06
5.20821e-06
5.20892e-06
5.21046e-06
5.21227e-06
5.21403e-06
5.21568e-06
5.21721e-06
5.21866e-06
5.22002e-06
5.22133e-06
5.22258e-06
5.22378e-06
5.22492e-06
5.22601e-06
5.22706e-06
5.22807e-06
5.22904e-06
5.22997e-06
5.23088e-06
5.23175e-06
5.2326e-06
5.23343e-06
5.23423e-06
5.23501e-06
5.23576e-06
5.23651e-06
5.23723e-06
5.23794e-06
5.23863e-06
5.23931e-06
5.23998e-06
5.24064e-06
5.24129e-06
5.24193e-06
5.24257e-06
5.24319e-06
5.24381e-06
5.24442e-06
5.24503e-06
5.24563e-06
5.24623e-06
5.24682e-06
5.24741e-06
5.24799e-06
5.24857e-06
5.24914e-06
5.2497e-06
5.25027e-06
5.25079e-06
5.25144e-06
5.25169e-06
5.25248e-06
5.21202e-06
5.21145e-06
5.21105e-06
5.21186e-06
5.21158e-06
5.21027e-06
5.20879e-06
5.2082e-06
5.20898e-06
5.21056e-06
5.21235e-06
5.2141e-06
5.21573e-06
5.21725e-06
5.21868e-06
5.22003e-06
5.22133e-06
5.22257e-06
5.22375e-06
5.22488e-06
5.22596e-06
5.227e-06
5.228e-06
5.22896e-06
5.22988e-06
5.23078e-06
5.23165e-06
5.23249e-06
5.2333e-06
5.23409e-06
5.23486e-06
5.23561e-06
5.23634e-06
5.23706e-06
5.23776e-06
5.23844e-06
5.23912e-06
5.23978e-06
5.24043e-06
5.24107e-06
5.2417e-06
5.24233e-06
5.24295e-06
5.24356e-06
5.24417e-06
5.24477e-06
5.24537e-06
5.24596e-06
5.24654e-06
5.24713e-06
5.24771e-06
5.24828e-06
5.24885e-06
5.24942e-06
5.24997e-06
5.25054e-06
5.25105e-06
5.25169e-06
5.25194e-06
5.25273e-06
5.21196e-06
5.21121e-06
5.21096e-06
5.21175e-06
5.21143e-06
5.21012e-06
5.20869e-06
5.20819e-06
5.20905e-06
5.21065e-06
5.21244e-06
5.21417e-06
5.21578e-06
5.21728e-06
5.21869e-06
5.22004e-06
5.22132e-06
5.22255e-06
5.22372e-06
5.22484e-06
5.22591e-06
5.22694e-06
5.22793e-06
5.22888e-06
5.2298e-06
5.23068e-06
5.23154e-06
5.23237e-06
5.23318e-06
5.23396e-06
5.23472e-06
5.23546e-06
5.23618e-06
5.23689e-06
5.23758e-06
5.23825e-06
5.23892e-06
5.23957e-06
5.24022e-06
5.24085e-06
5.24148e-06
5.24209e-06
5.2427e-06
5.24331e-06
5.24391e-06
5.2445e-06
5.24509e-06
5.24568e-06
5.24626e-06
5.24684e-06
5.24742e-06
5.24799e-06
5.24855e-06
5.24912e-06
5.24968e-06
5.25023e-06
5.25079e-06
5.25129e-06
5.25194e-06
5.25217e-06
5.25296e-06
5.21189e-06
5.21098e-06
5.21087e-06
5.21164e-06
5.21129e-06
5.20998e-06
5.2086e-06
5.2082e-06
5.20912e-06
5.21073e-06
5.21251e-06
5.21423e-06
5.21582e-06
5.2173e-06
5.21871e-06
5.22004e-06
5.22132e-06
5.22253e-06
5.22369e-06
5.2248e-06
5.22586e-06
5.22688e-06
5.22786e-06
5.2288e-06
5.22971e-06
5.23059e-06
5.23143e-06
5.23225e-06
5.23305e-06
5.23382e-06
5.23457e-06
5.23531e-06
5.23602e-06
5.23672e-06
5.2374e-06
5.23807e-06
5.23872e-06
5.23937e-06
5.24e-06
5.24063e-06
5.24125e-06
5.24186e-06
5.24246e-06
5.24306e-06
5.24365e-06
5.24424e-06
5.24482e-06
5.2454e-06
5.24598e-06
5.24655e-06
5.24712e-06
5.24769e-06
5.24825e-06
5.24881e-06
5.24937e-06
5.24993e-06
5.25047e-06
5.25103e-06
5.25153e-06
5.25217e-06
5.2524e-06
5.25319e-06
5.21181e-06
5.21076e-06
5.21078e-06
5.21154e-06
5.21115e-06
5.20985e-06
5.20852e-06
5.20821e-06
5.20919e-06
5.21081e-06
5.21258e-06
5.21428e-06
5.21586e-06
5.21733e-06
5.21872e-06
5.22004e-06
5.22131e-06
5.22251e-06
5.22366e-06
5.22476e-06
5.22581e-06
5.22682e-06
5.22779e-06
5.22872e-06
5.22962e-06
5.23049e-06
5.23133e-06
5.23214e-06
5.23293e-06
5.23369e-06
5.23443e-06
5.23515e-06
5.23586e-06
5.23655e-06
5.23722e-06
5.23788e-06
5.23853e-06
5.23917e-06
5.23979e-06
5.24041e-06
5.24102e-06
5.24162e-06
5.24222e-06
5.24281e-06
5.24339e-06
5.24397e-06
5.24455e-06
5.24512e-06
5.24569e-06
5.24626e-06
5.24683e-06
5.24739e-06
5.24795e-06
5.24851e-06
5.24906e-06
5.24961e-06
5.25016e-06
5.25071e-06
5.25126e-06
5.25175e-06
5.25239e-06
5.25261e-06
5.2534e-06
5.21173e-06
5.21055e-06
5.2107e-06
5.21144e-06
5.21101e-06
5.20973e-06
5.20845e-06
5.20822e-06
5.20925e-06
5.21089e-06
5.21265e-06
5.21433e-06
5.21589e-06
5.21735e-06
5.21873e-06
5.22004e-06
5.2213e-06
5.22249e-06
5.22363e-06
5.22472e-06
5.22576e-06
5.22676e-06
5.22772e-06
5.22864e-06
5.22953e-06
5.23039e-06
5.23122e-06
5.23202e-06
5.2328e-06
5.23356e-06
5.23429e-06
5.235e-06
5.2357e-06
5.23638e-06
5.23704e-06
5.2377e-06
5.23834e-06
5.23896e-06
5.23958e-06
5.24019e-06
5.2408e-06
5.24139e-06
5.24198e-06
5.24256e-06
5.24314e-06
5.24371e-06
5.24428e-06
5.24485e-06
5.24541e-06
5.24597e-06
5.24653e-06
5.24709e-06
5.24764e-06
5.24819e-06
5.24875e-06
5.2493e-06
5.24984e-06
5.25039e-06
5.25093e-06
5.25147e-06
5.25196e-06
5.2526e-06
5.25282e-06
5.2536e-06
5.21163e-06
5.21035e-06
5.21062e-06
5.21134e-06
5.21089e-06
5.20961e-06
5.20838e-06
5.20824e-06
5.20932e-06
5.21096e-06
5.21271e-06
5.21438e-06
5.21592e-06
5.21737e-06
5.21874e-06
5.22004e-06
5.22128e-06
5.22247e-06
5.2236e-06
5.22468e-06
5.22571e-06
5.2267e-06
5.22765e-06
5.22856e-06
5.22945e-06
5.2303e-06
5.23112e-06
5.23191e-06
5.23268e-06
5.23342e-06
5.23415e-06
5.23485e-06
5.23554e-06
5.23621e-06
5.23687e-06
5.23751e-06
5.23814e-06
5.23877e-06
5.23938e-06
5.23998e-06
5.24057e-06
5.24116e-06
5.24174e-06
5.24231e-06
5.24288e-06
5.24345e-06
5.24401e-06
5.24457e-06
5.24512e-06
5.24568e-06
5.24623e-06
5.24678e-06
5.24733e-06
5.24788e-06
5.24843e-06
5.24897e-06
5.24952e-06
5.25006e-06
5.2506e-06
5.25114e-06
5.25168e-06
5.25217e-06
5.2528e-06
5.25301e-06
5.2538e-06
5.21153e-06
5.21017e-06
5.21055e-06
5.21124e-06
5.21077e-06
5.2095e-06
5.20832e-06
5.20826e-06
5.20938e-06
5.21103e-06
5.21277e-06
5.21442e-06
5.21595e-06
5.21738e-06
5.21874e-06
5.22004e-06
5.22127e-06
5.22245e-06
5.22357e-06
5.22464e-06
5.22566e-06
5.22664e-06
5.22758e-06
5.22849e-06
5.22936e-06
5.2302e-06
5.23101e-06
5.2318e-06
5.23256e-06
5.23329e-06
5.23401e-06
5.23471e-06
5.23539e-06
5.23605e-06
5.2367e-06
5.23733e-06
5.23796e-06
5.23857e-06
5.23917e-06
5.23976e-06
5.24035e-06
5.24093e-06
5.2415e-06
5.24207e-06
5.24263e-06
5.24319e-06
5.24374e-06
5.24429e-06
5.24484e-06
5.24539e-06
5.24593e-06
5.24648e-06
5.24702e-06
5.24757e-06
5.24811e-06
5.24865e-06
5.24919e-06
5.24973e-06
5.25027e-06
5.25081e-06
5.25134e-06
5.25188e-06
5.25236e-06
5.25299e-06
5.2532e-06
5.25398e-06
5.21142e-06
5.21e-06
5.21048e-06
5.21114e-06
5.21065e-06
5.20939e-06
5.20826e-06
5.20828e-06
5.20944e-06
5.2111e-06
5.21283e-06
5.21446e-06
5.21597e-06
5.2174e-06
5.21875e-06
5.22003e-06
5.22125e-06
5.22242e-06
5.22353e-06
5.22459e-06
5.22561e-06
5.22658e-06
5.22751e-06
5.22841e-06
5.22927e-06
5.23011e-06
5.23091e-06
5.23169e-06
5.23244e-06
5.23317e-06
5.23387e-06
5.23456e-06
5.23523e-06
5.23589e-06
5.23653e-06
5.23715e-06
5.23777e-06
5.23837e-06
5.23897e-06
5.23955e-06
5.24013e-06
5.2407e-06
5.24126e-06
5.24182e-06
5.24238e-06
5.24293e-06
5.24347e-06
5.24402e-06
5.24456e-06
5.2451e-06
5.24564e-06
5.24618e-06
5.24671e-06
5.24725e-06
5.24779e-06
5.24832e-06
5.24886e-06
5.24939e-06
5.24993e-06
5.25047e-06
5.251e-06
5.25153e-06
5.25207e-06
5.25255e-06
5.25317e-06
5.25337e-06
5.25415e-06
5.21131e-06
5.20985e-06
5.21041e-06
5.21105e-06
5.21054e-06
5.2093e-06
5.20821e-06
5.2083e-06
5.2095e-06
5.21116e-06
5.21288e-06
5.21449e-06
5.216e-06
5.21741e-06
5.21875e-06
5.22002e-06
5.22124e-06
5.2224e-06
5.2235e-06
5.22455e-06
5.22556e-06
5.22652e-06
5.22744e-06
5.22833e-06
5.22919e-06
5.23001e-06
5.23081e-06
5.23157e-06
5.23232e-06
5.23304e-06
5.23374e-06
5.23442e-06
5.23508e-06
5.23573e-06
5.23636e-06
5.23698e-06
5.23758e-06
5.23818e-06
5.23877e-06
5.23934e-06
5.23991e-06
5.24048e-06
5.24103e-06
5.24158e-06
5.24213e-06
5.24267e-06
5.24321e-06
5.24374e-06
5.24428e-06
5.24481e-06
5.24534e-06
5.24587e-06
5.2464e-06
5.24693e-06
5.24747e-06
5.248e-06
5.24853e-06
5.24906e-06
5.24959e-06
5.25012e-06
5.25065e-06
5.25118e-06
5.25171e-06
5.25224e-06
5.25272e-06
5.25334e-06
5.25354e-06
5.25432e-06
5.2112e-06
5.2097e-06
5.21035e-06
5.21096e-06
5.21043e-06
5.2092e-06
5.20817e-06
5.20833e-06
5.20956e-06
5.21122e-06
5.21292e-06
5.21453e-06
5.21602e-06
5.21742e-06
5.21875e-06
5.22002e-06
5.22122e-06
5.22237e-06
5.22346e-06
5.22451e-06
5.22551e-06
5.22646e-06
5.22738e-06
5.22826e-06
5.2291e-06
5.22992e-06
5.23071e-06
5.23147e-06
5.2322e-06
5.23291e-06
5.2336e-06
5.23427e-06
5.23493e-06
5.23557e-06
5.23619e-06
5.2368e-06
5.2374e-06
5.23799e-06
5.23857e-06
5.23914e-06
5.2397e-06
5.24025e-06
5.2408e-06
5.24134e-06
5.24188e-06
5.24241e-06
5.24295e-06
5.24347e-06
5.244e-06
5.24452e-06
5.24505e-06
5.24557e-06
5.2461e-06
5.24662e-06
5.24714e-06
5.24767e-06
5.24819e-06
5.24872e-06
5.24925e-06
5.24977e-06
5.2503e-06
5.25083e-06
5.25136e-06
5.25188e-06
5.25241e-06
5.25289e-06
5.25351e-06
5.2537e-06
5.25448e-06
5.21108e-06
5.20957e-06
5.21029e-06
5.21087e-06
5.21033e-06
5.20912e-06
5.20813e-06
5.20836e-06
5.20962e-06
5.21128e-06
5.21297e-06
5.21456e-06
5.21604e-06
5.21743e-06
5.21875e-06
5.22001e-06
5.2212e-06
5.22234e-06
5.22343e-06
5.22447e-06
5.22545e-06
5.2264e-06
5.22731e-06
5.22818e-06
5.22902e-06
5.22983e-06
5.23061e-06
5.23136e-06
5.23208e-06
5.23279e-06
5.23347e-06
5.23413e-06
5.23478e-06
5.23541e-06
5.23603e-06
5.23663e-06
5.23722e-06
5.2378e-06
5.23837e-06
5.23894e-06
5.23949e-06
5.24003e-06
5.24057e-06
5.24111e-06
5.24164e-06
5.24216e-06
5.24269e-06
5.24321e-06
5.24373e-06
5.24424e-06
5.24476e-06