/*--------------------------------*- C++ -*----------------------------------*\
  =========                 |
  \\      /  F ield         | OpenFOAM: The Open Source CFD Toolbox
   \\    /   O peration     | Website:  https://openfoam.org
    \\  /    A nd           | Version:  7
     \\/     M anipulation  |
\*---------------------------------------------------------------------------*/
FoamFile
{
    version     2.0;
    format      ascii;
    class       volScalarField;
    location    "1600";
    object      p;
}
// * * * * * * * * * * * * * * * * * * * * * * * * * * * * * * * * * * * * * //

dimensions      [0 2 -2 0 0 0 0];

internalField   nonuniform List<scalar> 
23117
(
2.2761
6.44394
0.555824
9.82987
2.10259
0.646264
12.3933
4.22942
2.15486
0.761237
14.5317
6.02874
4.02951
2.37596
0.664785
16.3676
7.62913
5.69195
4.30994
2.02814
0.668541
17.9941
9.00771
7.25907
5.9919
3.86646
1.91389
0.692425
19.4595
10.2198
8.68329
7.57336
5.48024
3.70415
1.86035
0.698799
20.797
11.2923
9.99247
9.01796
7.02373
5.27389
3.63599
1.79523
0.697463
22.0274
12.251
11.1966
10.3535
8.44624
6.80035
5.17642
3.55262
1.76042
0.685725
23.1673
13.1141
12.3113
11.5869
9.77386
8.22086
6.68851
5.06795
3.49558
1.74637
0.667095
24.2279
13.8957
13.3481
12.7306
11.0104
9.56021
8.10218
6.56793
4.9915
3.45676
1.73814
0.650713
25.2184
14.6067
14.3175
13.7937
12.1663
10.8184
9.44393
7.97576
6.48182
4.93836
3.42417
1.73011
0.642214
26.146
15.2559
15.2274
14.7851
13.249
12.0037
10.7115
9.31964
7.88627
6.41983
4.89542
3.39653
1.71879
0.642269
27.0159
15.8501
16.0849
15.7117
14.2659
13.1216
11.9122
10.5959
9.23359
7.82155
6.36927
4.85983
3.3724
1.7034
0.648298
27.8345
16.3954
16.8955
16.5798
15.2232
14.1781
13.0501
11.8109
10.5189
9.17174
7.76913
6.32742
4.82855
3.35011
1.6855
0.656703
28.6052
16.896
17.6638
17.3944
16.1265
15.1781
14.1304
12.9683
11.7483
10.465
9.12208
7.72594
6.29091
4.79883
3.32872
1.66694
0.664701
29.3319
17.3561
18.3939
18.16
16.9803
16.1261
15.157
14.072
12.9242
11.7068
10.4226
9.08146
7.68805
6.25661
4.76923
3.3075
1.64884
0.67101
30.0178
17.7791
19.0887
18.8804
17.7889
17.026
16.134
15.1258
14.0505
12.8993
11.6758
10.3886
9.04561
7.65197
6.22259
4.73896
3.28585
1.63147
0.675532
30.6659
18.1681
19.7511
19.5586
18.5557
17.8814
17.0648
16.1329
15.13
14.0457
12.8835
11.6521
10.3583
9.0109
7.61551
6.18753
4.70749
3.26332
1.6146
0.678736
31.2786
18.5257
20.3835
20.1975
19.2837
18.695
17.9525
17.0962
16.1656
15.1485
14.0486
12.8737
11.6309
10.3282
8.975
7.5772
6.15057
4.67446
3.23965
1.5978
0.681161
31.8583
18.8542
20.9879
20.7995
19.9755
19.4695
18.7996
18.0185
17.1598
16.2102
15.1732
14.0558
12.8649
11.6086
10.2958
8.93628
7.53604
6.11112
4.63962
3.21468
1.58074
0.68318
32.4073
19.1558
21.5663
21.3667
20.6335
20.207
19.6084
18.902
18.1149
17.233
16.2594
15.2005
14.0625
12.8534
11.5826
10.2593
8.89362
7.49138
6.06885
4.60277
3.18835
1.5632
0.684984
32.9275
19.4322
22.1201
21.901
21.2597
20.9094
20.381
19.7484
19.0328
18.2187
17.3093
16.3098
15.2257
14.0651
12.8369
11.5513
10.2176
8.8463
7.44283
6.02355
4.56384
3.16069
1.54511
0.686643
33.4209
19.6852
22.6508
22.4042
21.8559
21.5785
21.119
20.5596
19.915
19.1692
18.3245
17.3852
16.3563
15.2452
14.061
12.8136
11.5133
10.17
8.79387
7.39018
5.97516
4.5228
3.13175
1.52647
0.688172
33.8891
19.9164
23.1598
22.8779
22.4239
22.2158
21.8242
21.3371
20.763
20.0855
19.3063
18.4282
17.4557
16.3956
15.2565
14.0485
12.782
11.4679
10.1159
8.73612
7.33338
5.92372
4.47973
3.10163
1.50732
0.689582
34.3338
20.1272
23.6483
23.3234
22.965
22.8227
22.4979
22.0821
21.578
20.9689
20.2557
19.4401
18.5252
17.5174
16.425
15.2576
14.0262
12.7414
11.4145
10.0551
8.67302
7.27251
5.86938
4.43475
3.07043
1.48773
0.690899
34.7564
20.319
24.1172
23.7421
23.4806
23.4004
23.1414
22.7959
22.3612
21.8205
21.1738
20.4215
19.5658
18.6119
17.5677
16.4426
15.2472
13.9931
12.6913
11.353
9.98758
8.60468
7.20774
5.81233
4.38804
3.03831
1.46776
0.692157
35.1585
20.493
24.5677
24.1354
23.972
23.9501
23.7558
23.4793
23.1134
22.6411
22.0614
21.3734
20.5781
19.6799
18.6857
17.6045
16.4469
15.2244
13.9487
12.6314
11.2833
9.91358
8.53134
7.13934
5.75281
4.3398
3.00539
1.44747
0.6934
35.5413
20.6504
25.0006
24.5043
24.4404
24.4727
24.3421
24.1335
23.8355
23.4314
22.9192
22.2963
21.5628
20.722
19.7797
18.7444
17.6263
16.437
15.1884
13.8929
12.5617
11.2057
9.83335
8.45334
7.06762
5.69111
4.29024
2.97184
1.42693
0.694672
35.9061
20.7923
25.4169
24.85
24.8868
24.9693
24.9015
24.7591
24.5282
24.1921
23.7475
23.1907
22.5203
21.7385
20.8502
19.8629
18.7864
17.632
16.4121
15.1393
13.8257
12.4826
11.1205
9.74729
8.37105
6.99294
5.6275
4.23959
2.93782
1.4062
0.696019
36.2541
20.9198
25.8173
25.1736
25.3123
25.4408
25.4348
25.357
25.1923
24.9237
24.5469
24.0568
23.4508
22.7298
21.8975
20.9604
19.9278
18.8105
17.6209
16.3722
15.0769
13.7473
12.3945
11.0282
9.65586
8.28492
6.91566
5.56231
4.18807
2.90347
1.38534
0.69748
36.5865
21.0338
26.2025
25.4761
25.7179
25.8881
25.9429
25.928
25.8284
25.6268
25.3178
24.895
24.3546
23.696
22.9216
22.0371
21.0507
19.973
18.816
17.5929
16.3172
15.0016
13.6583
12.2978
10.9293
9.55959
8.19539
6.83618
5.49584
4.13591
2.86895
1.36442
0.699099
36.9042
21.1352
26.5733
25.7586
26.1043
26.312
26.4267
26.4728
26.4371
26.3017
26.0605
25.7055
25.2316
24.6369
23.9226
23.0931
22.1555
21.1197
19.9977
18.8025
17.5478
16.2474
14.914
13.5592
12.1932
10.8244
9.45901
8.10295
6.75488
5.42838
4.08331
2.83441
1.34349
0.700914
37.2083
21.225
26.9303
26.022
26.4726
26.7135
26.887
26.992
27.019
26.949
26.7752
26.4883
26.0818
25.5526
24.9003
24.128
23.2419
22.2509
21.1665
20.0016
18.7701
17.4861
16.1635
14.8146
13.4508
12.0813
10.7142
9.35468
8.00806
6.67213
5.36024
4.03049
2.79997
1.3226
0.702967
37.4996
21.3039
27.2743
26.2673
26.8235
27.0933
27.3247
27.4865
27.5747
27.5692
27.4623
27.2435
26.9052
26.4428
25.8544
25.1418
24.3098
23.3664
22.3224
21.1905
19.9845
18.719
17.4083
16.066
14.7043
13.3337
11.963
10.5993
9.24716
7.91119
6.58831
5.29168
3.97764
2.76578
1.3018
0.705289
37.779
21.3729
27.6056
26.4954
27.1577
27.4522
27.7404
27.9567
28.1049
28.1626
28.122
27.9712
27.7018
27.3073
26.7846
26.1338
25.3586
24.4659
23.4654
22.3693
21.1916
19.9468
18.6498
17.3151
15.9559
14.5838
13.2088
11.8389
10.4804
9.13701
7.81278
6.50377
5.22298
3.92493
2.73194
1.28114
0.707921
38.0474
21.4327
27.9248
26.7071
27.4762
27.7911
28.1351
28.4035
28.6101
28.7298
28.7546
28.6717
28.4713
28.1457
27.6903
27.1037
26.388
25.5488
24.595
23.538
22.3913
21.1699
19.8888
18.5632
17.2074
15.834
14.4542
13.077
11.7098
10.3581
9.02476
7.71327
6.41882
5.15436
3.87253
2.69857
1.26064
0.710899
38.3054
21.4839
28.2326
26.9034
27.7794
28.1106
28.5094
28.8276
29.0909
29.2711
29.3604
29.3449
29.2137
28.9579
28.5712
28.0508
27.3972
26.6146
25.7106
24.696
23.5838
22.3885
21.1259
19.8115
18.4602
17.0861
15.7014
14.3162
12.9392
11.5765
10.233
8.91092
7.61305
6.33379
5.08607
3.82059
2.66578
1.24034
0.714256
38.5537
21.5273
28.5293
27.0851
28.0682
28.4115
28.8641
29.2295
29.548
29.7872
29.9399
29.9911
29.929
29.7434
29.4267
28.9744
28.3854
27.6624
26.8117
25.8429
24.7685
23.6027
22.3613
21.0604
19.7156
18.3418
16.9524
15.559
14.171
12.796
11.4396
10.1057
8.79597
7.51249
6.24895
5.0183
3.76924
2.63364
1.22026
0.718025
38.7932
21.5636
28.8153
27.253
28.3432
28.6947
29.2
29.6101
29.9821
30.2785
30.4933
30.6103
30.6171
30.5022
30.2565
29.8739
29.3518
28.6913
27.8972
26.9779
25.9449
24.8122
23.5952
22.3104
20.9742
19.6023
18.2091
16.8073
15.4079
14.0194
12.6485
11.2998
9.97689
8.68037
7.41196
6.16456
4.95123
3.7186
2.60225
1.20042
0.722239
39.0243
21.5934
29.0911
27.4079
28.6049
28.9609
29.5178
29.97
30.3937
30.7456
31.0211
31.203
31.2781
31.2339
31.0599
30.7487
30.2957
29.7005
28.9663
28.1001
27.1123
26.0162
24.8272
23.5617
22.2366
20.8685
19.4728
18.0633
16.6521
15.2492
13.8623
12.4973
11.1579
9.84698
8.56452
7.31177
6.08085
4.88505
3.66877
2.57166
1.18083
0.726928
39.2476
21.6172
29.357
27.5506
28.8539
29.2107
29.8183
30.31
30.7836
31.1891
31.5238
31.7693
31.9121
31.9384
31.8368
31.598
31.2161
30.6888
30.0177
29.2083
28.2696
27.2142
26.0569
24.8141
23.503
22.141
20.7444
19.3283
17.9057
16.4879
15.084
13.7008
12.3432
11.0145
9.71651
8.44881
7.2122
5.99803
4.81988
3.61984
2.54196
1.1615
0.732115
39.4636
21.6357
29.6135
27.6819
29.0909
29.4449
30.102
30.6307
31.1525
31.6096
32.0019
32.3097
32.5191
32.6157
32.5866
32.4213
32.1123
31.6553
31.0504
30.3013
29.4158
28.4051
27.2835
26.0672
24.7735
23.4204
22.025
20.6034
19.1702
17.7375
16.3158
14.9132
13.5356
12.1871
10.8701
9.58592
8.3336
7.1135
5.91629
4.75587
3.57189
2.51318
1.14242
0.737829
39.6729
21.6495
29.8607
27.8024
29.3162
29.6643
30.3698
30.9328
31.5011
32.0078
32.4558
32.8244
33.0995
33.2656
33.3091
33.2181
32.9833
32.599
32.0631
31.3779
30.5494
29.5877
28.5061
27.3203
26.0478
24.7067
23.315
21.8899
20.4469
18.9998
17.56
16.137
14.7379
13.3675
12.0294
10.7252
9.45563
8.21918
7.01592
5.83577
4.69311
3.52498
2.48539
1.1236
0.744092
39.8759
21.659
30.0989
27.9129
29.5304
29.8695
30.6223
31.2172
31.83
32.3843
32.8862
33.314
33.6534
33.8883
34.0042
33.9877
33.8284
33.5187
33.0547
32.4367
31.6692
30.7607
29.7235
28.5726
27.3252
25.9996
24.6147
23.1882
21.7371
20.2762
18.8186
17.3745
15.9526
14.5588
13.1974
11.8709
10.5803
9.32601
8.10584
6.91966
5.75663
4.63173
3.47915
2.45861
1.10503
0.750917
40.0731
21.6647
30.3286
28.014
29.734
30.0613
30.8602
31.4844
32.1401
32.7397
33.2938
33.7789
34.1812
34.4839
34.6715
34.7299
34.647
34.4135
34.0238
33.4763
32.7736
31.9227
30.9344
29.8229
28.6049
27.2989
25.924
24.4989
23.0415
21.5682
20.0929
18.6278
17.1822
15.7635
14.3771
13.0259
11.7121
10.436
9.1974
7.99383
6.82489
5.67899
4.57178
3.43445
2.43288
1.0867
0.758318
40.265
21.6671
30.5498
28.1065
29.9273
30.2402
31.0841
31.7353
32.432
33.0748
33.6791
34.2197
34.6832
35.0524
35.3112
35.4443
35.4383
35.2825
34.9693
34.4953
33.8611
33.0719
32.1372
31.0698
29.8859
28.6038
27.2426
25.8221
24.3609
22.8766
21.3847
19.8985
18.4288
16.9842
15.5709
14.1933
12.8538
11.5536
10.2925
9.0701
7.88336
6.73177
5.60294
4.51334
3.3909
2.40822
1.06861
0.766304
40.4517
21.6666
30.7627
28.1909
30.1109
30.407
31.2946
31.9705
32.7064
33.3904
34.0428
34.6369
35.1601
35.5943
35.9233
36.1307
36.2019
36.1248
35.8901
35.4923
34.9302
34.2069
33.3302
32.3118
31.1669
29.9132
28.5701
27.1577
25.6956
24.2024
22.6951
21.1883
19.6943
18.2229
16.7816
15.3756
14.0084
12.6816
11.3957
10.1503
8.94437
7.77463
6.64043
5.52857
4.45647
3.34853
2.38465
1.05074
0.774872
40.6338
21.6637
30.9677
28.2677
30.285
30.5622
31.4925
32.1906
32.9641
33.6871
34.3856
35.0313
35.6122
36.1099
36.5078
36.7888
36.9374
36.9398
36.7851
36.466
35.9791
35.3258
34.5117
33.5472
32.4463
31.226
29.9055
28.5052
27.0455
25.546
24.025
22.4986
20.9804
19.4817
18.0113
16.5754
15.1785
13.823
12.5098
11.239
10.0096
8.82045
7.66779
6.55097
5.45594
4.4012
3.30734
2.36218
1.03308
0.78402
40.8115
21.6588
31.1649
28.3377
30.4501
30.7066
31.6781
32.3965
33.2058
33.9656
34.7083
35.4034
36.0401
36.5996
37.065
37.4187
37.6442
37.7266
37.6533
37.415
37.0064
36.4268
35.6799
34.7743
33.7224
32.5407
31.2477
29.864
28.4105
26.9078
25.3753
23.8306
22.2887
20.7626
19.2622
17.7951
16.3667
14.9803
13.6377
12.339
11.0838
9.87083
8.69853
7.56298
6.46349
5.38511
4.34757
3.26735
2.34082
1.01562
0.793739
40.9851
21.6521
31.3544
28.4014
30.6065
30.8407
31.8522
32.5888
33.4322
34.2267
35.0115
35.754
36.4444
37.0638
37.5952
38.0205
38.3224
38.4848
38.4937
38.3381
38.0106
37.5082
36.8328
35.9909
34.9934
33.8555
32.5953
31.233
29.79
28.2876
26.7463
25.1851
23.6207
22.0672
20.5363
19.0369
17.5755
16.1564
14.7819
13.4531
12.1696
10.9305
9.73409
8.57877
7.46032
6.37806
5.31611
4.2956
3.22855
2.32056
0.998354
0.804005
41.1551
21.6442
31.5363
28.4593
30.7545
30.965
32.0153
32.7681
33.644
34.4712
35.2961
36.0838
36.8258
37.5031
38.0987
38.5942
38.9716
39.2139
39.3056
39.2341
38.99
38.5683
37.9685
37.195
36.2573
35.1688
33.9467
32.611
31.1831
29.6851
28.1383
26.563
24.9774
23.3973
21.8356
20.303
18.8072
17.3535
15.9452
14.5839
13.2698
12.002
10.7793
9.59963
8.46132
7.35989
6.29474
5.24898
4.2453
3.19093
2.3014
0.981272
0.814798
41.3216
21.6351
31.7108
28.5118
30.8944
31.0803
32.168
32.9351
33.8419
34.6997
35.5627
36.3934
37.185
37.9182
38.5761
39.1402
39.592
39.9136
40.0884
40.102
39.9434
39.6053
39.0849
38.3847
37.5118
36.4783
35.3001
33.9965
32.5889
31.0996
29.5511
27.9646
26.3597
24.754
23.1619
21.5955
20.064
18.5741
17.13
15.734
14.3869
13.0882
11.8366
10.6305
9.46764
8.34632
7.26177
6.21357
5.18374
4.19668
3.15448
2.28331
0.964369
0.826084
41.485
21.6253
31.8781
28.5595
31.0266
31.1869
32.3106
33.0905
34.0265
34.913
35.8122
36.6838
37.5228
38.3096
39.0278
39.6587
40.1836
40.5837
40.8414
40.941
40.8695
40.6175
40.1803
39.5576
38.7548
37.7819
36.6534
35.3877
34.0058
32.5303
30.9842
29.3899
27.7683
26.1385
24.5166
22.9164
21.3483
19.8206
18.3387
16.9058
15.5234
14.1914
12.9088
11.6736
10.4842
9.33826
8.23383
7.16601
6.13459
5.12038
4.14973
3.11919
2.2663
0.947645
0.837829
41.6453
21.615
32.0382
28.6028
31.1513
31.2855
32.4438
33.2348
34.1985
35.1118
36.0452
36.9556
37.8398
38.678
39.4545
40.1503
40.7466
41.2241
41.5643
41.7502
41.767
41.6035
41.2526
40.7118
39.984
39.0772
38.0044
36.7827
35.4323
33.9759
32.4369
30.8387
29.2035
27.5516
25.9011
24.2672
22.6622
21.0955
19.574
18.102
16.6819
15.3141
13.9979
12.7318
11.5134
10.3408
9.21161
8.12395
7.07267
6.05781
5.0589
4.10445
3.08504
2.25032
0.931098
0.849987
41.8029
21.6045
32.1912
28.6421
31.2687
31.3765
32.5681
33.3686
34.3585
35.2969
36.2625
37.2096
38.1368
39.0242
39.8567
40.6153
41.2813
41.8349
42.2568
42.529
42.635
42.5618
42.3
41.8449
41.1969
40.3619
39.3507
38.1791
36.8665
35.435
33.9083
32.3105
30.6652
28.994
27.3165
25.6497
24.0075
22.4009
20.8382
19.3251
17.8649
16.4588
15.1066
13.8069
12.5576
11.3561
10.2003
9.08778
8.01673
6.98177
5.98323
4.99931
4.06081
3.052
2.23535
0.914735
0.862508
41.958
21.594
32.3373
28.6779
31.3791
31.4604
32.6838
33.4925
34.5073
35.4688
36.4649
37.4466
38.4146
39.349
40.2351
41.0545
41.7881
42.4162
42.9188
43.2768
43.4725
43.4911
43.3209
42.955
42.3914
41.6334
40.6898
39.5747
38.3061
36.9056
35.3969
33.8047
32.1532
30.4658
28.7635
27.065
25.3859
23.739
22.134
20.5779
19.0752
17.6282
16.2373
14.9015
13.6187
12.3864
11.2019
10.0629
8.96686
7.91221
6.89331
5.91087
4.94158
4.0188
3.02007
2.22137
0.898562
0.875345
42.1107
21.5836
32.4764
28.7104
31.4829
31.5376
32.7914
33.6072
34.6453
35.6283
36.6531
37.6673
38.674
39.6531
40.5906
41.4683
42.2675
42.9682
43.5501
43.9933
44.2788
44.3901
44.3137
44.0401
43.565
42.8892
42.0191
40.9668
39.7488
38.3858
36.9012
35.3199
33.667
31.9671
30.2427
28.5142
26.7991
25.1117
23.4634
21.8628
20.3155
18.825
17.3926
16.0179
14.6991
13.4336
12.2186
11.051
9.92861
8.8489
7.81042
6.80732
5.84071
4.8857
3.97838
2.9892
2.20832
0.882589
0.888438
42.2613
21.5736
32.6087
28.7402
31.5801
31.6087
32.8913
33.713
34.7732
35.7761
36.8278
37.8726
38.9158
39.9373
40.9238
41.8576
42.7201
43.4914
44.151
44.6783
45.0533
45.2579
45.2769
45.0984
44.7155
44.1267
43.3359
42.3527
41.192
39.8733
38.4193
36.8548
35.2057
33.4975
31.7543
29.9982
28.2482
26.5207
24.8287
23.1822
21.5885
20.0521
18.5754
17.1588
15.8011
14.4998
13.252
12.0543
10.9035
9.79756
8.73394
7.71138
6.72378
5.77273
4.83163
3.93953
2.95939
2.19618
0.866829
0.901729
42.41
21.5642
32.7342
28.7674
31.671
31.674
32.9841
33.8106
34.8915
35.9128
36.9897
38.0631
39.1408
40.2024
41.2356
42.223
43.1465
43.9862
44.7217
45.3317
45.7955
46.0937
46.2091
46.128
45.8409
45.3435
44.6373
43.7296
42.633
41.3655
39.9488
38.4076
36.7681
35.0565
33.2984
31.5174
29.7344
27.9676
26.2318
24.5386
22.8968
21.3124
19.7888
18.3272
16.9274
15.5874
14.3041
13.074
11.8936
10.7596
9.6698
8.622
7.61508
6.64267
5.70691
4.77936
3.90221
2.9306
2.1849
0.851298
0.915159
42.5569
21.5555
32.8531
28.7925
31.7559
31.7339
33.0699
33.9004
35.0007
36.0389
37.1394
38.2397
39.3498
40.4492
41.5268
42.5653
43.5473
44.4532
45.2624
45.9535
46.5051
46.8966
47.1092
47.1272
46.9388
46.5371
45.9208
45.0945
44.0688
42.8596
41.4874
39.9763
38.3525
36.643
34.8745
33.072
31.2584
29.4536
27.6743
25.934
24.243
22.6086
21.0355
19.5262
18.0811
16.6989
15.3771
14.1121
12.8998
11.7366
10.6192
9.54538
8.51309
7.52151
6.56399
5.64323
4.72885
3.86638
2.90282
2.17444
0.836011
0.928666
42.702
21.5475
32.9653
28.8157
31.8349
31.7888
33.1493
33.9829
35.1014
36.1552
37.2777
38.403
39.5435
40.6787
41.7982
42.8854
43.9234
44.893
45.7737
46.5441
47.182
47.6661
47.9763
48.0948
48.0076
47.7052
47.1836
46.4447
45.4964
44.3527
43.0324
41.5585
39.9572
38.2558
36.4819
34.662
32.8207
30.9798
29.1579
27.3704
25.6292
23.9432
22.3186
20.7588
19.2653
17.8376
16.4738
15.1706
13.924
12.7297
11.5836
10.4824
9.42429
8.40721
7.43067
6.48771
5.58165
4.68006
3.832
2.876
2.16475
0.820989
0.942192
42.8455
21.5405
33.071
28.8372
31.9083
31.8391
33.2225
34.0586
35.1941
36.2621
37.4052
38.5538
39.7228
40.8915
42.0506
43.184
44.2755
45.3063
46.2561
47.1035
47.8263
48.402
48.8095
49.0293
49.0453
48.8455
48.4231
47.7771
46.9127
45.8416
44.5806
43.1516
41.58
39.8932
38.1196
36.287
34.4216
32.547
30.6839
28.8494
27.0576
25.3188
23.6406
22.0279
20.4831
19.0066
17.5973
16.2524
14.9683
13.7402
12.5637
11.4345
10.3493
9.30656
8.30435
7.34253
6.4138
5.52213
4.63296
3.79903
2.85014
2.15578
0.806247
0.955678
42.9878
21.5346
33.1702
28.8573
31.9763
31.8851
33.2899
34.1279
35.2793
36.3602
37.5225
38.6926
39.8884
41.0885
42.285
43.4621
44.6045
45.6938
46.7102
47.6324
48.4379
49.1039
49.6081
49.9297
50.0504
49.9559
49.6366
49.0887
48.3146
47.3231
46.1291
44.7527
43.2183
41.5532
39.7863
37.9463
36.0609
34.1557
32.2532
30.3728
28.5302
26.7377
25.0044
23.3365
21.7377
20.2093
18.7509
17.3606
16.0351
14.7702
13.5607
12.4019
11.2893
10.2199
9.19217
8.2045
7.25707
6.34221
5.46464
4.5875
3.76742
2.82521
2.1475
0.791806
0.969062
43.1293
21.5296
33.263
28.8763
32.039
31.927
33.3519
34.1911
35.3574
36.4502
37.6302
38.8204
40.0409
41.2705
42.5021
43.7206
44.9112
46.0563
47.1367
48.1312
49.0173
49.7719
50.3719
50.7951
51.0215
51.0345
50.8218
50.3768
49.6989
48.794
47.6745
46.3586
44.8694
43.2336
41.4801
39.6387
37.7382
35.8061
33.8669
31.9418
30.0488
28.202
26.4124
24.6874
23.032
21.4487
19.938
18.4986
17.128
15.8222
14.5766
13.3857
12.2444
11.1482
10.0942
9.08111
8.10761
7.17423
6.27292
5.40913
4.54366
3.73713
2.80118
2.13984
0.77769
0.982291
43.2694
21.5254
33.3496
28.8944
32.0967
31.9653
33.4087
34.2488
35.4289
36.5324
37.7289
38.9375
40.1812
41.4383
42.7028
43.9602
45.1965
46.3948
47.5364
48.6005
49.5649
50.4061
51.1004
51.6247
51.9572
52.0794
51.9764
51.6386
51.0624
50.2508
49.2133
47.9659
46.53
44.9315
43.199
41.3627
39.4528
37.4981
35.5253
33.5576
31.615
29.7139
27.8668
26.0831
24.369
22.7281
21.1618
19.6699
18.2502
16.8997
15.6139
14.3877
13.2152
12.0912
11.0111
9.97213
8.97334
8.01365
7.09399
6.20587
5.35555
4.50138
3.70809
2.77803
2.13277
0.763914
0.995315
43.4062
21.5227
33.43
28.9117
32.1495
32.0002
33.4606
34.3013
35.4941
36.6074
37.8191
39.0448
40.31
41.5926
42.8879
44.1819
45.4614
46.7101
47.9101
49.0411
50.0811
51.0066
51.7936
52.418
52.8567
53.0891
53.0982
52.8714
52.4021
51.69
50.742
49.5712
48.1971
46.6441
44.9405
43.1166
41.2034
39.2313
37.2286
35.221
33.2303
31.2751
29.3701
27.5262
25.7513
24.0503
22.4256
20.8778
19.4055
18.0062
16.6761
15.4104
14.2035
13.0494
11.9424
10.8781
9.85372
8.86884
7.92259
7.0163
6.14104
5.30386
4.46062
3.68028
2.75574
2.12623
0.750496
1.00809
43.5408
21.5225
33.5042
28.9283
32.1977
32.0319
33.508
34.3488
35.5534
36.6756
37.9013
39.1427
40.4278
41.7341
43.0582
44.3865
45.7066
47.0032
48.2588
49.4538
50.5666
51.574
52.4516
53.1747
53.7191
54.0624
54.1853
54.0727
53.7149
53.1085
52.2569
51.1707
49.8668
48.3681
46.7018
44.8981
42.9886
41.0048
38.9769
36.9325
34.8958
32.8875
30.9243
29.0192
27.1818
25.4184
23.7325
22.1256
20.5972
19.1453
17.7668
16.4574
15.2119
14.0243
12.8882
11.7979
10.749
9.73892
8.76757
7.83438
6.94112
6.07836
5.25401
4.42135
3.65364
2.73428
2.12019
0.737453
1.02056
43.6822
21.5243
33.5715
28.9446
32.2414
32.0607
33.5511
34.3919
35.6074
36.7375
37.9761
39.2319
40.5354
41.8638
43.2146
44.5748
45.9332
47.2749
48.5832
49.8393
51.0222
52.1087
53.0746
53.8946
54.5437
54.998
55.2361
55.2403
54.9981
54.5027
53.7544
52.7606
51.5356
50.1
48.4797
46.7045
44.8063
42.8174
40.7696
38.6924
36.6123
34.5523
32.5313
30.5645
28.663
26.835
25.0854
23.4164
21.8286
20.3206
18.8897
17.5323
16.2437
15.0184
13.8499
12.7317
11.6578
10.6239
9.62769
8.66947
7.74897
6.8684
6.01778
5.20594
4.38351
3.62813
2.71363
2.11461
0.7248
1.0327
43.8329
21.5223
33.6325
28.9609
32.2808
32.0868
33.5902
34.4307
35.6562
36.7934
38.044
39.313
40.6334
41.9821
43.3578
44.7479
46.142
47.5261
48.8844
50.1987
51.4485
52.6113
53.6629
54.5778
55.3301
55.8949
56.2489
56.3721
56.2489
55.8696
55.231
54.3371
53.1993
51.8359
50.2709
48.533
46.6541
44.6674
42.6057
40.5005
38.3805
36.2708
34.193
32.1641
30.1976
28.3032
26.4872
24.7534
23.103
21.5353
20.0484
18.639
17.303
16.0353
14.83
13.6805
12.5799
11.5221
10.5028
9.51997
8.5745
7.66631
6.79806
5.95926
5.15962
4.34707
3.60369
2.69377
2.10943
0.71255
1.04446
43.9642
21.515
33.6904
28.9773
32.3159
32.1104
33.6254
34.4656
35.7003
36.8439
38.1053
39.3863
40.7224
42.0898
43.4885
44.9064
46.334
47.7579
49.1633
50.5328
51.8466
53.0827
54.2171
55.2244
56.0783
56.7526
57.2226
57.4661
57.4649
57.206
56.6829
55.8962
54.8541
53.5718
52.0714
50.3802
48.5294
46.5527
44.4841
42.3564
40.2005
38.0441
35.9107
33.8202
31.7879
29.8255
27.9411
26.1396
24.4235
22.7929
21.2464
19.7812
18.3936
17.0791
15.8322
14.6469
13.5161
12.4328
11.3906
10.3855
9.41572
8.48259
7.58633
6.73008
5.90276
5.11498
4.31198
3.58027
2.67467
2.10463
0.700713
1.05583
44.0398
21.5217
33.7463
28.9922
32.347
32.1319
33.6572
34.4968
35.7399
36.8892
38.1606
39.4525
40.8029
42.1875
43.6075
45.0512
46.5099
47.9712
49.421
50.8427
52.2173
53.5235
54.7378
55.8349
56.788
57.5705
58.1561
58.5208
58.6438
58.5091
58.1069
57.4342
56.4957
55.3035
53.8772
52.2423
50.4291
48.471
46.4029
44.2591
42.0723
39.8726
37.6859
35.5345
33.4362
31.4046
29.4498
27.5781
25.7933
24.0965
22.4868
20.9622
19.5192
18.1536
16.8606
15.6346
14.469
13.3567
12.2902
11.2633
10.272
9.31487
8.39367
7.50898
6.6644
5.84821
5.07197
4.2782
3.55785
2.65632
2.10016
0.6893
1.06676
44.1355
21.5665
33.7892
29.0054
32.375
32.1513
33.6855
34.5247
35.7753
36.9298
38.2102
39.512
40.8755
42.2759
43.7155
45.183
46.6708
48.1669
49.6583
51.1292
52.5616
53.9348
55.2258
56.4096
57.4596
58.3483
59.0486
59.5347
59.7835
59.7762
59.4995
58.9471
58.1199
57.0268
55.6842
54.1155
52.3496
50.4194
48.36
46.2072
43.9954
41.7566
39.5196
37.3088
35.1447
33.0432
31.0162
29.072
27.2156
25.4493
23.7731
22.1854
20.6832
19.2627
17.9193
16.6478
15.4424
14.2964
13.2022
12.1523
11.1403
10.1623
9.21733
8.30769
7.43422
6.60095
5.79556
5.03055
4.24569
3.53636
2.63868
2.09599
0.678315
1.07726
44.3267
21.5981
33.8055
29.0225
32.4003
32.1684
33.7108
34.5495
35.807
36.9659
38.2545
39.5653
40.9407
42.3556
43.8132
45.3027
46.8173
48.3459
49.8763
51.3936
52.8806
54.3174
55.6819
56.9494
58.0933
59.0861
59.8996
60.5066
60.8822
61.0047
60.8578
60.4313
59.7227
58.7371
57.4878
55.9954
54.2869
52.3944
50.353
48.199
45.9687
43.6961
41.4122
39.1443
36.9153
34.7435
32.6432
30.6243
28.6936
26.8546
25.1084
23.454
21.889
20.4098
19.0119
17.6907
16.4406
15.2557
14.1289
13.0526
12.0189
11.0213
10.0563
9.12307
8.2246
7.36197
6.53968
5.74477
4.99065
4.2144
3.51576
2.62175
2.0921
0.667763
1.08728
44.3887
21.5245
33.8244
29.0504
32.4204
32.1833
33.7332
34.5714
35.8351
36.9979
38.2939
39.6128
40.999
42.4271
43.9012
45.411
46.9504
48.5092
50.0759
51.6367
53.1752
54.6725
56.107
57.4549
58.6897
59.7839
60.7087
61.4358
61.9384
62.1925
62.1787
61.8833
61.2999
60.4301
59.2834
57.8774
56.2369
54.3924
52.3786
50.2323
47.9908
45.6904
43.3642
41.0421
38.7497
36.508
34.3333
32.2381
30.2306
28.3159
26.4962
24.7715
23.1399
21.5982
20.1422
18.7672
17.4681
16.2392
15.0745
13.9667
12.9078
11.8899
10.9064
9.95385
9.032
8.14432
7.29217
6.48054
5.69577
4.95224
4.18429
3.49603
2.60549
2.08844
0.657645
1.09684
44.453
21.4999
33.8863
29.0742
32.432
32.1976
33.7531
34.5904
35.8598
37.0262
38.3287
39.6549
41.0509
42.491
43.9802
45.5086
47.0709
48.6576
50.2582
51.8596
53.4466
55.0009
56.5022
57.9269
59.2495
60.4421
61.4759
62.3216
62.9508
63.3376
63.4595
63.2996
62.8477
62.1013
61.0663
59.7569
58.195
56.4093
54.4334
52.3042
50.0601
47.7386
45.3754
43.003
40.6494
38.3385
36.0892
33.9161
31.8296
29.8363
27.9398
26.1412
24.4392
22.8311
21.3132
19.8806
18.5285
17.2514
16.0436
14.8988
13.8096
12.7679
11.7653
10.7954
9.85495
8.94405
8.06677
7.22477
6.42345
5.64853
4.91526
4.15533
3.4771
2.58988
2.08499
0.647962
1.10591
44.5173
21.4746
33.9057
29.061
32.4426
32.2133
33.7702
34.6068
35.8814
37.0509
38.3594
39.692
41.0969
42.5477
44.0507
45.5961
47.1795
48.792
50.424
52.0634
53.6957
55.304
56.8684
58.3666
59.7732
61.0612
62.2012
63.1635
63.9186
64.4383
64.6979
64.6771
64.3621
63.7464
62.8318
61.6288
60.1564
58.4405
56.5134
54.4116
52.1739
49.8392
47.4453
45.0271
42.6155
40.2369
37.9132
35.6613
33.4938
31.4193
29.4429
27.5666
25.7904
24.1121
22.5282
21.0344
19.6254
18.296
17.0407
15.8536
14.7285
13.6576
12.6325
11.645
10.6883
9.75949
8.85914
7.9919
7.15969
6.36838
5.60297
4.87966
4.12747
3.45896
2.57491
2.08173
0.638711
1.1145
44.5822
21.4496
33.9255
29.0562
32.4607
32.2261
33.7841
34.6214
35.9
37.0721
38.3862
39.7246
41.1373
42.5979
44.1133
45.6742
47.2769
48.9132
50.5743
52.249
53.9238
55.5827
57.2069
58.7748
60.262
61.6418
62.885
63.9616
64.8409
65.4933
65.8917
66.013
65.8396
65.3611
64.5752
63.4884
62.1159
60.4812
58.6143
56.5508
54.3294
51.9903
49.573
47.1144
44.6486
42.2048
39.8075
37.4763
35.2264
33.0683
31.0088
29.0515
27.1972
25.4446
23.7907
22.2316
20.762
19.3765
18.0698
16.836
15.6694
14.5635
13.5105
12.5019
11.5288
10.5849
9.66737
8.77718
7.91963
7.09688
6.31525
5.55906
4.84539
4.10068
3.44155
2.56055
2.07863
0.629886
1.12261
44.6474
21.4251
33.9448
29.0511
32.466
32.2254
33.7958
34.6352
35.9163
37.0902
38.4092
39.7528
41.1726
42.6419
44.1686
45.7436
47.3639
49.022
50.7099
52.4174
54.1318
55.8381
57.5186
59.1527
60.7168
62.1847
63.5278
64.7157
65.7173
66.5015
67.0392
67.3045
67.2767
66.9412
66.2917
65.3304
64.0685
62.5262
60.7313
58.7175
56.5234
54.1894
51.7567
49.2646
46.7493
44.2433
41.7739
39.3637
37.0303
34.7866
32.6412
30.5994
28.6632
26.8323
25.1043
23.4756
21.9414
20.4961
19.1342
17.8499
16.6374
15.4909
14.4039
13.3684
12.3757
11.4168
10.4852
9.57853
8.69812
7.84989
7.03627
6.26402
5.51675
4.81242
4.07492
3.42484
2.54677
2.07567
0.621483
1.13023
44.7124
21.4009
33.9634
29.0463
32.4711
32.2248
33.8039
34.6461
35.9307
37.106
38.4286
39.7768
41.2032
42.6803
44.217
45.8048
47.4412
49.1192
50.8319
52.5696
54.3208
56.0715
57.8049
59.5015
61.1386
62.6909
64.1302
65.4263
66.5476
67.462
68.1388
68.5496
68.6703
68.483
67.9768
67.1497
66.0088
64.5704
62.8592
60.9072
58.7517
56.4335
53.9946
51.4763
48.9174
46.3532
43.8142
41.3258
38.9084
36.5773
34.3435
32.214
30.1922
28.2789
26.4726
24.7701
23.167
21.6579
20.2371
18.8985
17.6362
16.4447
15.318
14.2494
13.2312
12.2539
11.3088
10.3891
9.49287
8.62186
7.78261
6.97781
6.21463
5.47598
4.78068
4.05014
3.4088
2.53356
2.07283
0.613494
1.13738
44.7764
21.377
33.982
29.0414
32.4762
32.2239
33.806
34.6482
35.9422
37.1205
38.4455
39.7969
41.2291
42.7134
44.2593
45.8584
47.5093
49.2056
50.941
52.7066
54.4919
56.2838
58.0668
59.8223
61.5287
63.1614
64.6931
66.0938
67.3318
68.3744
69.1893
69.7461
70.0178
69.9827
69.6261
68.9414
67.9313
66.608
64.9927
63.1147
61.0101
58.7189
56.2839
53.748
51.1525
48.5351
45.9296
43.3645
40.8632
38.4437
36.1193
33.8991
31.7881
29.7884
27.8994
26.1188
24.4424
22.8652
21.3814
19.9848
18.6693
17.4289
16.2579
15.1505
14.1002
13.0986
12.1365
11.2047
10.2965
9.4103
8.54832
7.71772
6.92143
6.16701
5.4367
4.75014
4.02632
3.3934
2.52089
2.0701
0.605908
1.14406
44.8418
21.3525
34.0004
29.0373
32.4811
32.2231
33.8079
34.6482
35.9463
37.1316
38.4607
39.8143
41.2507
42.7414
44.2956
45.905
47.569
49.2819
51.0379
52.8292
54.646
56.4763
58.3056
60.1164
61.8881
63.5974
65.2174
66.7189
68.0702
69.2384
70.1899
70.8924
71.3165
71.437
71.2353
70.7005
69.8306
68.6333
67.126
65.3348
63.2935
61.0415
58.6216
56.0777
53.4533
50.7888
48.121
45.4816
42.8972
40.3887
37.972
35.6583
33.4547
31.3647
29.3889
27.5256
25.7714
24.1215
22.5705
21.1119
19.7395
18.4468
17.2278
16.077
14.9886
13.9559
12.9707
12.0233
11.1043
10.2073
9.33074
8.47744
7.65516
6.86707
6.12113
5.39887
4.72075
4.00341
3.37861
2.50875
2.06746
0.598717
1.15029
44.9079
21.3292
34.0181
29.0335
32.486
32.2225
33.8098
34.6482
35.9469
37.1337
38.4721
39.8301
41.2693
42.7645
44.3262
45.9452
47.621
49.3487
51.1236
52.9384
54.7843
56.6501
58.5224
60.385
62.2183
63.9999
65.7042
67.3025
68.7635
70.054
71.1398
71.9872
72.5643
72.843
72.8008
72.4224
71.7013
70.6406
69.2531
67.5615
65.5968
63.3966
61.0037
58.4626
55.8183
53.1138
50.389
47.6787
45.0127
42.4151
39.9049
37.4954
35.196
33.0119
30.9449
28.9945
27.1579
25.4308
23.8079
22.283
20.8497
19.5011
18.2309
17.033
15.9019
14.832
13.8166
12.8473
11.9141
11.0077
10.1214
9.2541
8.40914
7.59486
6.81468
6.07692
5.36244
4.69247
3.98139
3.36438
2.4971
2.0649
0.591908
1.15607
44.9738
21.3065
34.0356
29.0296
32.4907
32.2218
33.8117
34.6481
35.9475
37.1335
38.4745
39.8417
41.2861
42.7843
44.3514
45.9788
47.6657
49.4069
51.1987
53.0349
54.9075
56.8061
58.7185
60.6293
62.5204
64.3704
66.1548
67.8456
69.4122
70.8215
72.0389
73.0294
73.7594
74.1978
74.3188
74.1026
73.5382
72.6239
71.368
69.7887
67.914
65.7792
63.4259
60.8992
58.2452
55.5091
52.7334
49.9565
47.2115
44.5257
41.921
39.414
37.0159
34.734
32.5718
30.5298
28.6061
26.7969
25.0974
23.5016
22.003
20.5946
19.2696
18.0215
16.8442
15.7325
14.6806
13.6821
12.7282
11.809
10.9146
10.0387
9.18029
8.34332
7.53675
6.76418
6.03433
5.32737
4.66526
3.96021
3.35071
2.48594
2.0624
0.58547
1.16144
45.0402
21.284
34.0526
29.026
32.4952
32.2211
33.8134
34.6481
35.9481
37.1334
38.4745
39.8431
41.2983
42.8023
44.3729
46.0065
47.7031
49.4569
51.2642
53.1198
55.0166
56.9455
58.8948
60.8506
62.7957
64.7101
66.5702
68.3493
70.0173
71.5415
72.8871
74.0185
74.9003
75.4993
75.786
75.737
75.3365
74.5778
73.4644
72.0102
70.239
68.1835
65.8835
63.3836
60.731
57.9728
55.1538
52.3157
49.495