/*--------------------------------*- C++ -*----------------------------------*\
  =========                 |
  \\      /  F ield         | OpenFOAM: The Open Source CFD Toolbox
   \\    /   O peration     | Website:  https://openfoam.org
    \\  /    A nd           | Version:  7
     \\/     M anipulation  |
\*---------------------------------------------------------------------------*/
FoamFile
{
    version     2.0;
    format      ascii;
    class       surfaceScalarField;
    location    "1600";
    object      phi;
}
// * * * * * * * * * * * * * * * * * * * * * * * * * * * * * * * * * * * * * //

dimensions      [0 3 -1 0 0 0 0];

internalField   nonuniform List<scalar> 
45906
(
-0.301705
0.0678771
-0.301473
0.0657075
-0.290121
0.0677163
-0.301345
0.0635997
-0.289969
0.0655559
-0.278779
0.0675761
-0.301263
0.0615414
-0.289831
0.0634617
-0.278651
0.0654281
-0.267895
0.0674227
-0.301206
0.0595463
-0.28972
0.0614301
-0.278531
0.0633424
-0.26776
0.0652923
-0.257384
0.0672783
-0.301163
0.0576163
-0.28963
0.0594562
-0.278425
0.0613241
-0.267635
0.063218
-0.257245
0.0651528
-0.247111
0.0671245
-0.30113
0.0557773
-0.289555
0.0575417
-0.278331
0.0593622
-0.267521
0.0612098
-0.257109
0.0630817
-0.246959
0.0650003
-0.237195
0.0669575
-0.301102
0.0540018
-0.289492
0.0557137
-0.278248
0.0574579
-0.267414
0.0592554
-0.256978
0.0610787
-0.246808
0.0629311
-0.23703
0.0648357
-0.227621
0.0667873
-0.301079
0.0522751
-0.289436
0.0539461
-0.278172
0.0556378
-0.267313
0.0573572
-0.256851
0.0591289
-0.246661
0.0609318
-0.23687
0.0627715
-0.227457
0.0646717
-0.218442
0.0666259
-0.301059
0.0506221
-0.289386
0.0522252
-0.278102
0.0538761
-0.267217
0.0555417
-0.256728
0.0572347
-0.246518
0.0589859
-0.236716
0.0607776
-0.227302
0.0626157
-0.218292
0.0645216
-0.209608
0.0664822
-0.301041
0.0490153
-0.28934
0.0505763
-0.278036
0.0521594
-0.267124
0.0537833
-0.256609
0.0554225
-0.24638
0.0570962
-0.236568
0.0588382
-0.227154
0.06063
-0.218152
0.0624754
-0.209478
0.0643918
-0.201212
0.066358
-0.301025
0.0474667
-0.289297
0.0489725
-0.277973
0.0505134
-0.267034
0.0520689
-0.256493
0.0536669
-0.246246
0.0552887
-0.236428
0.0569554
-0.227016
0.0586997
-0.218021
0.0604993
-0.209357
0.0623545
-0.201101
0.0642808
-0.193161
0.0662489
-0.301011
0.0459755
-0.289257
0.0474261
-0.277912
0.0489115
-0.266945
0.0504243
-0.256379
0.0519552
-0.246117
0.053538
-0.236294
0.0551552
-0.226886
0.056826
-0.2179
0.0585786
-0.209245
0.0603871
-0.200996
0.0622493
-0.193062
0.0641819
-0.185447
0.0661486
-0.300997
0.0445278
-0.289218
0.0459363
-0.277852
0.0473661
-0.266857
0.0488234
-0.256268
0.0503132
-0.245993
0.0518313
-0.236168
0.053412
-0.226766
0.0550347
-0.217788
0.0567139
-0.209141
0.0584744
-0.200897
0.0602883
-0.192966
0.0621532
-0.185353
0.0640881
-0.178036
0.0660518
-0.300985
0.0431439
-0.289179
0.0444895
-0.277793
0.0458768
-0.266769
0.0472787
-0.256159
0.0487148
-0.245874
0.0501945
-0.23605
0.0517129
-0.226654
0.0533002
-0.217684
0.054931
-0.209044
0.0566167
-0.200803
0.0583808
-0.192874
0.0601962
-0.185261
0.0620604
-0.177943
0.0639953
-0.17091
0.065956
-0.300973
0.0417879
-0.289141
0.043106
-0.277733
0.0444301
-0.266682
0.04579
-0.256054
0.0471729
-0.245761
0.0486016
-0.235939
0.0500836
-0.22655
0.0516092
-0.217588
0.0532039
-0.208952
0.0548398
-0.200714
0.0565276
-0.192785
0.0582915
-0.18517
0.0601058
-0.177851
0.0619682
-0.170817
0.0639024
-0.164053
0.0658609
-0.300962
0.0404854
-0.289104
0.0417501
-0.277674
0.0430464
-0.266596
0.0443439
-0.255951
0.0456871
-0.245654
0.0470653
-0.235835
0.048498
-0.226454
0.0499874
-0.217498
0.0515195
-0.208866
0.0531177
-0.200628
0.0547541
-0.192698
0.0564407
-0.185081
0.0582027
-0.17776
0.0600153
-0.170726
0.0618763
-0.16396
0.0638101
-0.157471
0.0657673
-0.300951
0.0392217
-0.289066
0.0404475
-0.277614
0.0416902
-0.266511
0.0429608
-0.255851
0.0442442
-0.245552
0.0455851
-0.235739
0.0469686
-0.226365
0.0484087
-0.217414
0.0499034
-0.208784
0.0514375
-0.200546
0.0530349
-0.192613
0.0546692
-0.184994
0.0563535
-0.177671
0.0581136
-0.170636
0.0599252
-0.16387
0.0617858
-0.157381
0.0637198
-0.151139
0.0656764
-0.300941
0.0380015
-0.289027
0.0391833
-0.277553
0.0403872
-0.266426
0.0416055
-0.255755
0.0428646
-0.245455
0.0441479
-0.235649
0.0454951
-0.226281
0.0468855
-0.217335
0.0483295
-0.208705
0.0498248
-0.200465
0.051357
-0.19253
0.0529516
-0.184908
0.0545833
-0.177583
0.0562659
-0.170547
0.0580252
-0.163781
0.0598368
-0.157292
0.0616977
-0.151052
0.0636325
-0.145065
0.0655886
-0.30093
0.0368194
-0.288988
0.0379626
-0.277493
0.0391227
-0.266342
0.0403036
-0.255662
0.0415131
-0.245365
0.042774
-0.235565
0.0440641
-0.226204
0.0454174
-0.21726
0.0468103
-0.208629
0.0482536
-0.200386
0.049746
-0.192448
0.0512751
-0.184824
0.052867
-0.177497
0.0544973
-0.17046
0.0561792
-0.163695
0.0579387
-0.157207
0.0597509
-0.150967
0.0616127
-0.144981
0.0635486
-0.139235
0.0655044
-0.30092
0.035675
-0.288949
0.0367798
-0.277432
0.0379018
-0.26626
0.0390405
-0.255574
0.0402151
-0.24528
0.041428
-0.235487
0.0426959
-0.226131
0.0439912
-0.217188
0.0453456
-0.208556
0.0467366
-0.200309
0.0481763
-0.192367
0.0496654
-0.184741
0.0511919
-0.177413
0.0527824
-0.170375
0.0544123
-0.16361
0.0560946
-0.157123
0.0578549
-0.150884
0.0596682
-0.144899
0.0615311
-0.139154
0.0634683
-0.133629
0.0654236
-0.300909
0.0345695
-0.288909
0.0356347
-0.277371
0.0367188
-0.26618
0.0378213
-0.255489
0.0389562
-0.2452
0.0401355
-0.235414
0.0413552
-0.226062
0.042627
-0.217119
0.0439222
-0.208484
0.0452736
-0.200233
0.0466607
-0.192288
0.0480969
-0.184659
0.0495835
-0.17733
0.0511088
-0.170292
0.0526992
-0.163527
0.0543295
-0.157041
0.0560128
-0.150803
0.0577743
-0.14482
0.0595888
-0.139076
0.0614529
-0.133552
0.0633915
-0.128253
0.0653463
-0.300898
0.0334972
-0.288867
0.0345283
-0.27731
0.0355737
-0.266101
0.0366403
-0.255409
0.0377412
-0.245126
0.0388818
-0.235346
0.0400674
-0.225997
0.0412899
-0.217053
0.0425603
-0.208413
0.0438517
-0.200158
0.0451989
-0.192209
0.0465824
-0.184578
0.0480163
-0.177248
0.0495019
-0.17021
0.0510271
-0.163446
0.0526181
-0.156961
0.0542495
-0.150725
0.055934
-0.144742
0.0576968
-0.139
0.0595127
-0.133477
0.0613779
-0.128179
0.0633179
-0.123097
0.0652723
-0.300887
0.0324595
-0.288826
0.0334553
-0.277249
0.0344676
-0.266025
0.0354975
-0.255334
0.0365646
-0.245056
0.0376717
-0.235282
0.038818
-0.225934
0.0400052
-0.216988
0.0412251
-0.208344
0.0424911
-0.200085
0.043778
-0.192132
0.0451217
-0.184499
0.0465031
-0.177168
0.0479362
-0.17013
0.0494217
-0.163367
0.0509476
-0.156882
0.0525396
-0.150647
0.0541723
-0.144667
0.0558583
-0.138926
0.0576225
-0.133404
0.0594397
-0.128108
0.0613062
-0.123027
0.0632476
-0.118137
0.0652016
-0.300875
0.0314535
-0.288783
0.0324168
-0.277189
0.033395
-0.265951
0.0343938
-0.255262
0.0354261
-0.244992
0.0364998
-0.235222
0.0376118
-0.225875
0.0387584
-0.216925
0.039942
-0.208276
0.0411571
-0.200012
0.0424185
-0.192056
0.0437021
-0.184421
0.0450438
-0.177089
0.0464244
-0.170052
0.0478575
-0.163289
0.0493437
-0.156805
0.0508706
-0.150572
0.0524638
-0.144592
0.054098
-0.138853
0.0557855
-0.133333
0.0575512
-0.128038
0.0593698
-0.122958
0.0612375
-0.11807
0.0631803
-0.113382
0.0651339
-0.300863
0.0304816
-0.28874
0.0314101
-0.277129
0.0323572
-0.26588
0.033324
-0.255195
0.0343269
-0.244931
0.0353658
-0.235166
0.0364434
-0.225817
0.0375544
-0.216863
0.0386967
-0.208209
0.0398751
-0.199941
0.0410856
-0.191981
0.0423438
-0.184345
0.0436255
-0.177012
0.0449664
-0.169974
0.046347
-0.163212
0.0477807
-0.15673
0.0492679
-0.150497
0.0507961
-0.144519
0.0523908
-0.138781
0.0540265
-0.133263
0.0557157
-0.12797
0.0574829
-0.122891
0.059303
-0.118004
0.0611719
-0.113317
0.0631161
-0.108817
0.0650693
-0.30085
0.0295373
-0.288696
0.0304376
-0.277071
0.0313514
-0.265812
0.0322891
-0.255133
0.0332613
-0.244875
0.0342706
-0.235112
0.0353123
-0.225762
0.0363879
-0.216803
0.037494
-0.208143
0.0386309
-0.19987
0.0398048
-0.191908
0.0410122
-0.184269
0.0422685
-0.176936
0.0435495
-0.169898
0.0448903
-0.163136
0.0462715
-0.156655
0.047706
-0.150424
0.0491944
-0.144447
0.0507241
-0.138711
0.0523205
-0.133194
0.0539579
-0.127903
0.0556487
-0.122826
0.0574175
-0.11794
0.0592391
-0.113255
0.0611093
-0.108756
0.0630548
-0.104433
0.0650077
-0.300837
0.0286257
-0.288651
0.0294928
-0.277013
0.03038
-0.265747
0.0312863
-0.255074
0.0322306
-0.244822
0.0332088
-0.235061
0.0342198
-0.225708
0.0352586
-0.216744
0.0363287
-0.208079
0.0374294
-0.199801
0.0385618
-0.191836
0.0397327
-0.184195
0.0409383
-0.176861
0.0421938
-0.169823
0.0434746
-0.163062
0.0448158
-0.156581
0.0461978
-0.150351
0.0476336
-0.144376
0.0491234
-0.138642
0.0506548
-0.133127
0.0522528
-0.127837
0.0538921
-0.122762
0.0555847
-0.117878
0.0573551
-0.113194
0.0591782
-0.108696
0.0610495
-0.104375
0.0629964
-0.100231
0.0649489
-0.300823
0.0277401
-0.288606
0.0285808
-0.276957
0.0294365
-0.265685
0.0303181
-0.25502
0.0312318
-0.244773
0.0321815
-0.235013
0.0331604
-0.225656
0.0341676
-0.216686
0.0352006
-0.208015
0.0362653
-0.199733
0.0373616
-0.191765
0.038491
-0.184123
0.0396601
-0.176788
0.0408648
-0.169749
0.04212
-0.162988
0.0434011
-0.156508
0.044743
-0.15028
0.0461261
-0.144306
0.0475633
-0.138573
0.0490549
-0.13306
0.050588
-0.127772
0.052188
-0.122699
0.053829
-0.117816
0.0555234
-0.113134
0.0572955
-0.108638
0.0591201
-0.104318
0.0609926
-0.100175
0.0629407
-0.0961935
0.0648929
-0.300808
0.0268831
-0.288561
0.0276949
-0.276902
0.028526
-0.265626
0.0293778
-0.254969
0.0302675
-0.244727
0.0311858
-0.234967
0.0321352
-0.225605
0.0331097
-0.216629
0.0341109
-0.207953
0.0351384
-0.199667
0.0361988
-0.191696
0.0372922
-0.184052
0.0384198
-0.176715
0.0395878
-0.169677
0.040792
-0.162916
0.0420473
-0.156436
0.0433291
-0.150209
0.0446721
-0.144237
0.0460566
-0.138505
0.0474955
-0.132994
0.0489888
-0.127708
0.0505239
-0.122637
0.0521258
-0.117756
0.0537688
-0.113076
0.055465
-0.108581
0.0572387
-0.104263
0.0590647
-0.100121
0.0609384
-0.0961405
0.0628878
-0.0923223
0.0648395
-0.300793
0.0260533
-0.288516
0.0268378
-0.276849
0.0276418
-0.265571
0.0284705
-0.254922
0.0293308
-0.244684
0.0302243
-0.234922
0.0311415
-0.225556
0.0320858
-0.216573
0.0330541
-0.207892
0.0340499
-0.199602
0.0350734
-0.191628
0.0361309
-0.183982
0.0372223
-0.176644
0.0383487
-0.169605
0.0395161
-0.162844
0.0407203
-0.156365
0.0419761
-0.150138
0.0432588
-0.144168
0.0446032
-0.138438
0.0459893
-0.132928
0.04743
-0.127644
0.0489253
-0.122575
0.0504625
-0.117697
0.0520664
-0.113018
0.0537113
-0.108526
0.0554093
-0.104209
0.0571845
-0.100068
0.059012
-0.0960889
0.0608868
-0.0922719
0.0628374
-0.0885971
0.0647887
-0.300777
0.0252482
-0.288471
0.0260081
-0.276797
0.0267865
-0.265518
0.0275895
-0.254878
0.0284269
-0.244643
0.0292902
-0.23488
0.0301817
-0.225508
0.0310934
-0.216519
0.0320315
-0.207832
0.0329946
-0.199539
0.0339864
-0.191561
0.035007
-0.183913
0.0360624
-0.176574
0.0371524
-0.169534
0.038278
-0.162773
0.0394452
-0.156295
0.0406498
-0.150069
0.0419064
-0.144099
0.0431904
-0.138371
0.0445363
-0.132863
0.0459243
-0.127581
0.047367
-0.122515
0.0488644
-0.117638
0.0504037
-0.112962
0.0520096
-0.108471
0.0536564
-0.104156
0.0553562
-0.100016
0.057133
-0.0960387
0.0589619
-0.0922228
0.0608377
-0.0885491
0.0627894
-0.0850329
0.0647404
-0.300759
0.0244688
-0.288425
0.0252031
-0.276748
0.0259587
-0.265469
0.0267374
-0.254838
0.0275492
-0.244605
0.0283886
-0.234839
0.0292492
-0.225461
0.0301348
-0.216466
0.0310404
-0.207774
0.0319735
-0.199477
0.0329326
-0.191497
0.0339215
-0.183846
0.0349398
-0.176506
0.0359937
-0.169465
0.0370828
-0.162703
0.038208
-0.156225
0.0393754
-0.149999
0.0405806
-0.144031
0.0418384
-0.138305
0.0431239
-0.132799
0.0444717
-0.127519
0.0458617
-0.122454
0.0473065
-0.11758
0.0488061
-0.112905
0.0503475
-0.108417
0.0519554
-0.104103
0.0536042
-0.0999659
0.0553057
-0.0959897
0.057084
-0.0921752
0.0589142
-0.0885025
0.060791
-0.0849873
0.0627438
-0.0816045
0.0646943
-0.300741
0.0237127
-0.288381
0.0244241
-0.276701
0.0251557
-0.265423
0.0259127
-0.254801
0.0267001
-0.244569
0.027513
-0.234799
0.0283491
-0.225415
0.0292036
-0.216414
0.0300833
-0.207718
0.0309839
-0.199416
0.0319131
-0.191433
0.0328692
-0.18378
0.0338557
-0.176438
0.0348724
-0.169396
0.0359251
-0.162634
0.0370136
-0.156156
0.0381388
-0.149931
0.0393068
-0.143964
0.0405131
-0.138238
0.0417722
-0.132734
0.0430595
-0.127456
0.0444093
-0.122394
0.0458014
-0.117522
0.0472485
-0.11285
0.0487503
-0.108363
0.0502938
-0.104052
0.0519038
-0.0999162
0.0535544
-0.0959417
0.0552577
-0.0921286
0.0570374
-0.0884572
0.0588689
-0.0849429
0.0607466
-0.0815612
0.0627005
-0.0783222
0.0646505
-0.300723
0.0229798
-0.288337
0.0236685
-0.276655
0.0243788
-0.26538
0.0251128
-0.254766
0.0258782
-0.244535
0.0266658
-0.234761
0.0274749
-0.225371
0.0283048
-0.216364
0.0291535
-0.207663
0.0300283
-0.199357
0.0309251
-0.191371
0.0318512
-0.183716
0.0328049
-0.176372
0.0337895
-0.169329
0.0348048
-0.162566
0.0358568
-0.156087
0.0369451
-0.149863
0.0380707
-0.143896
0.0392396
-0.138173
0.0404472
-0.13267
0.041708
-0.127394
0.0429973
-0.122334
0.0443492
-0.117464
0.0457436
-0.112794
0.047193
-0.10831
0.048697
-0.104001
0.0502427
-0.0998671
0.0518547
-0.0958944
0.0535071
-0.0920829
0.055212
-0.0884129
0.0569932
-0.0848999
0.0588258
-0.081519
0.0607044
-0.078281
0.0626593
-0.0751607
0.0646088
-0.300703
0.0222714
-0.288293
0.0229363
-0.276612
0.0236253
-0.26534
0.0243388
-0.254734
0.0250808
-0.244502
0.0258456
-0.234724
0.0266289
-0.225328
0.0274318
-0.216316
0.0282561
-0.20761
0.0291001
-0.1993
0.0299711
-0.191311
0.0308648
-0.183653
0.0317884
-0.176307
0.0327399
-0.169262
0.0337231
-0.162498
0.0347374
-0.156019
0.035789
-0.149795
0.0368775
-0.14383
0.0380039
-0.138107
0.0391739
-0.132606
0.0403832
-0.127332
0.0416459
-0.122274
0.0429374
-0.117406
0.0442915
-0.112739
0.0456882
-0.108257
0.0471399
-0.10395
0.0486461
-0.0998183
0.050194
-0.0958477
0.0518079
-0.092038
0.0534622
-0.0883695
0.0551686
-0.0848578
0.0569511
-0.0814782
0.0587849
-0.078241
0.0606643
-0.0751216
0.0626202
-0.0721352
0.0645692
-0.300682
0.0215836
-0.28825
0.0222286
-0.276571
0.0228952
-0.265303
0.0235882
-0.254705
0.0243091
-0.244471
0.0250498
-0.234689
0.02581
-0.225286
0.0265872
-0.216268
0.0273846
-0.207558
0.0282044
-0.199245
0.0290446
-0.191252
0.0299125
-0.183592
0.0308035
-0.176243
0.0317247
-0.169197
0.0326746
-0.162432
0.0336566
-0.155952
0.0346703
-0.149728
0.0357219
-0.143763
0.0368111
-0.138041
0.0379385
-0.132542
0.03911
-0.12727
0.0403211
-0.122214
0.0415859
-0.117348
0.0428797
-0.112683
0.0442361
-0.108204
0.0456352
-0.103899
0.0470892
-0.0997699
0.0485977
-0.0958013
0.0501476
-0.0919935
0.0517635
-0.0883269
0.0534195
-0.0848167
0.0551275
-0.0814383
0.0569113
-0.0782022
0.0587461
-0.0750835
0.0606263
-0.072098
0.0625831
-0.0692306
0.0645315
-0.300661
0.0209163
-0.288208
0.0215417
-0.276532
0.0221897
-0.265269
0.0228607
-0.254677
0.0235606
-0.244441
0.0242796
-0.234654
0.0250154
-0.225246
0.0257696
-0.216223
0.0265415
-0.207508
0.0273346
-0.199191
0.0281506
-0.191195
0.0289876
-0.183532
0.0298526
-0.176181
0.0307412
-0.169133
0.0316606
-0.162366
0.0326091
-0.155886
0.0335903
-0.149662
0.0346039
-0.143697
0.0356559
-0.137976
0.0367459
-0.132479
0.0378747
-0.127208
0.0390479
-0.122154
0.0402611
-0.11729
0.0415281
-0.112628
0.0428242
-0.10815
0.0441831
-0.103848
0.0455846
-0.0997216
0.0470409
-0.0957552
0.0485516
-0.0919495
0.0501036
-0.0882847
0.0517213
-0.0847762
0.053379
-0.0813992
0.0550884
-0.0781643
0.0568734
-0.0750467
0.0587093
-0.0720619
0.0605901
-0.0691953
0.0625478
-0.0664418
0.0644956
-0.300639
0.0202709
-0.288168
0.0208755
-0.276495
0.0215049
-0.265237
0.0221578
-0.254651
0.0228351
-0.244413
0.0235323
-0.234621
0.0242464
-0.225207
0.0249763
-0.216179
0.0257255
-0.207459
0.0264932
-0.199139
0.0272825
-0.19114
0.0280952
-0.183474
0.0289293
-0.17612
0.0297918
-0.16907
0.0306783
-0.162302
0.0315961
-0.155821
0.0325436
-0.149596
0.0335244
-0.143631
0.0345382
-0.137911
0.0355909
-0.132415
0.0366822
-0.127146
0.0378126
-0.122094
0.0389878
-0.117233
0.0402031
-0.112572
0.0414725
-0.108097
0.0427711
-0.103798
0.0441324
-0.0996733
0.0455363
-0.0957092
0.0469949
-0.0919056
0.0485077
-0.0882428
0.0500617
-0.0847361
0.0516813
-0.0813608
0.0533406
-0.0781273
0.0550514
-0.0750108
0.0568375
-0.072027
0.0586744
-0.069161
0.0605558
-0.0664083
0.0625143
-0.0637638
0.0644614
-0.300615
0.0196447
-0.288128
0.0202312
-0.276461
0.0208408
-0.265207
0.0214754
-0.254628
0.0221339
-0.244386
0.0228081
-0.234589
0.0235004
-0.225169
0.0242087
-0.216136
0.0249338
-0.207413
0.0256788
-0.199089
0.0264429
-0.191086
0.0272288
-0.183417
0.0280385
-0.176061
0.0288699
-0.169008
0.0297301
-0.162238
0.0306148
-0.155756
0.0315315
-0.149531
0.0324784
-0.143566
0.0334592
-0.137847
0.0344736
-0.132351
0.0355273
-0.127084
0.03662
-0.122033
0.0377523
-0.117174
0.0389296
-0.112516
0.0401473
-0.108044
0.0414191
-0.103747
0.0427202
-0.0996249
0.044084
-0.0956632
0.0454903
-0.0918619
0.0469511
-0.0882012
0.0484661
-0.0846964
0.050022
-0.0813228
0.0516433
-0.0780908
0.0533041
-0.0749757
0.0550163
-0.0719929
0.0568035
-0.0691278
0.0586412
-0.0663757
0.0605232
-0.063732
0.0624824
-0.0611967
0.064429
-0.300591
0.0190379
-0.288089
0.0196064
-0.276428
0.0201986
-0.26518
0.0208136
-0.254605
0.0214531
-0.24436
0.0221081
-0.234559
0.0227773
-0.225133
0.023464
-0.216095
0.0241677
-0.207368
0.0248889
-0.19904
0.0256302
-0.191034
0.0263909
-0.183362
0.0271737
-0.176003
0.0279805
-0.168948
0.0288095
-0.162176
0.0296678
-0.155692
0.0305512
-0.149466
0.031467
-0.143502
0.0324137
-0.137782
0.0333949
-0.132288
0.03441
-0.127021
0.0354651
-0.121973
0.0365596
-0.117116
0.0376939
-0.11246
0.0388735
-0.10799
0.0400936
-0.103696
0.041368
-0.0995762
0.0426716
-0.095617
0.0440378
-0.0918181
0.0454465
-0.0881596
0.0469095
-0.0846569
0.0484265
-0.0812852
0.0499844
-0.0780549
0.0516073
-0.0749412
0.0532696
-0.0719597
0.054983
-0.0690955
0.0567712
-0.0663443
0.0586098
-0.0637011
0.0604923
-0.0611665
0.0624522
-0.0587304
0.064398
-0.300567
0.018449
-0.288052
0.0190009
-0.276397
0.0195757
-0.265155
0.0201735
-0.254584
0.0207927
-0.244335
0.0214284
-0.234529
0.0220784
-0.225098
0.0227423
-0.216056
0.0234247
-0.207325
0.0241245
-0.198993
0.024842
-0.190984
0.0255799
-0.183308
0.0263373
-0.175946
0.0271173
-0.168889
0.0279216
-0.162115
0.0287485
-0.15563
0.0296052
-0.149403
0.0304875
-0.143437
0.0314029
-0.137718
0.0323497
-0.132224
0.0333315
-0.126959
0.0343479
-0.121912
0.0354045
-0.117057
0.0365009
-0.112404
0.0376375
-0.107936
0.0388195
-0.103644
0.0400421
-0.0995273
0.041319
-0.0955706
0.0426252
-0.0917741
0.0439938
-0.0881179
0.0454048
-0.0846174
0.0468701
-0.0812477
0.048389
-0.0780192
0.0499487
-0.0749071
0.0515732
-0.071927
0.0532369
-0.069064
0.0549515
-0.0663137
0.0567406
-0.0636713
0.05858
-0.0611371
0.0604629
-0.0587017
0.0624235
-0.0563597
0.0643686
-0.300541
0.0178794
-0.288017
0.0184134
-0.276369
0.0189721
-0.265132
0.0195526
-0.254565
0.0201539
-0.244312
0.020769
-0.2345
0.0213998
-0.225064
0.0220448
-0.216018
0.0227045
-0.207283
0.0233831
-0.198948
0.0240793
-0.190935
0.0247934
-0.183256
0.025528
-0.175891
0.0262825
-0.168831
0.0270597
-0.162055
0.0278618
-0.155568
0.0286869
-0.14934
0.0295423
-0.143374
0.030424
-0.137655
0.0313393
-0.132161
0.0322866
-0.126897
0.0332693
-0.121851
0.0342871
-0.116998
0.0353456
-0.112347
0.0364442
-0.107882
0.0375831
-0.103592
0.0387676
-0.0994779
0.0399928
-0.0955238
0.0412723
-0.0917298
0.0425809
-0.0880761
0.043952
-0.0845778
0.0453652
-0.0812102
0.0468326
-0.0779836
0.0483535
-0.0748733
0.0499148
-0.0718947
0.0515409
-0.069033
0.0532059
-0.0662838
0.0549216
-0.0636423
0.0567116
-0.0611088
0.0585517
-0.0586738
0.060435
-0.0563325
0.0623963
-0.0540949
0.0643406
-0.300515
0.0173277
-0.287983
0.0178454
-0.276342
0.0183865
-0.26511
0.0189508
-0.254547
0.0195342
-0.244289
0.0201312
-0.234473
0.0207416
-0.225032
0.0213676
-0.215982
0.0220086
-0.207243
0.0226646
-0.198905
0.0233396
-0.190889
0.0240324
-0.183206
0.0247432
-0.175838
0.0254747
-0.168775
0.0262264
-0.161997
0.0270012
-0.155508
0.0278013
-0.149278
0.028625
-0.143311
0.0294795
-0.137592
0.0303609
-0.132098
0.0312764
-0.126835
0.0322244
-0.121791
0.0332084
-0.116939
0.0342279
-0.11229
0.0352885
-0.107827
0.0363893
-0.10354
0.0375307
-0.0994282
0.0387178
-0.0954766
0.0399456
-0.0916852
0.0412277
-0.088034
0.0425388
-0.0845381
0.0439122
-0.0811726
0.0453277
-0.0779481
0.0467971
-0.0748396
0.0483198
-0.0718626
0.0498828
-0.0690025
0.0515103
-0.0662545
0.0531766
-0.063614
0.0548933
-0.0610814
0.0566841
-0.058647
0.0585249
-0.056306
0.0604084
-0.054069
0.0623704
-0.0519157
0.0643139
-0.300488
0.0167915
-0.287951
0.0172953
-0.276316
0.0178201
-0.265091
0.0183669
-0.254529
0.0189335
-0.244267
0.0195124
-0.234447
0.0201049
-0.225001
0.0207107
-0.215947
0.0213329
-0.207205
0.0219703
-0.198863
0.0226228
-0.190843
0.0232944
-0.183158
0.0239839
-0.175786
0.0246915
-0.16872
0.0254202
-0.161939
0.0261693
-0.155448
0.026942
-0.149217
0.0277404
-0.143249
0.0285629
-0.137529
0.0294169
-0.132036
0.0302983
-0.126773
0.0312143
-0.12173
0.0321634
-0.11688
0.033149
-0.112232
0.0341704
-0.107772
0.0352332
-0.103487
0.0363365
-0.0993779
0.0374804
-0.095429
0.0386702
-0.0916402
0.0399006
-0.0879915
0.0411852
-0.084498
0.0424988
-0.0811349
0.0438745
-0.0779124
0.0452921
-0.0748059
0.0467634
-0.0718307
0.0482879
-0.0689722
0.0498525
-0.0662255
0.0514814
-0.0635862
0.0531488
-0.0610546
0.0548665
-0.0586209
0.056658
-0.0562806
0.0584994
-0.0540438
0.0603833
-0.0518911
0.0623458
-0.0498222
0.0642885
-0.300461
0.016272
-0.28792
0.0167608
-0.276293
0.0172717
-0.265073
0.0178021
-0.254513
0.0183506
-0.244246
0.0189126
-0.234422
0.0194872
-0.224971
0.0200753
-0.215914
0.0206775
-0.207168
0.0212962
-0.198823
0.0219302
-0.1908
0.0225793
-0.183111
0.0232476
-0.175736
0.0239338
-0.168667
0.0246384
-0.161884
0.0253645
-0.15539
0.0261113
-0.149157
0.0268821
-0.143188
0.0276792
-0.137467
0.028501
-0.131973
0.0293547
-0.126711
0.0302364
-0.121669
0.0311533
-0.11682
0.0321038
-0.112175
0.0330911
-0.107716
0.0341146
-0.103434
0.0351798
-0.099327
0.0362856
-0.0953808
0.0374322
-0.0915946
0.0386246
-0.0879485
0.0398576
-0.0844576
0.0411447
-0.0810968
0.0424607
-0.0778766
0.0438387
-0.0747722
0.0452583
-0.0717989
0.0467315
-0.068942
0.0482577
-0.0661969
0.0498238
-0.0635588
0.051454
-0.0610283
0.0531225
-0.0585955
0.0548412
-0.0562559
0.0566333
-0.0540197
0.0584753
-0.0518672
0.0603593
-0.0497988
0.0623225
-0.0478143
0.0642643
-0.300432
0.0157692
-0.287891
0.0162429
-0.27627
0.0167386
-0.265056
0.0172552
-0.254497
0.0177867
-0.244226
0.0183305
-0.234397
0.0188885
-0.224943
0.0194589
-0.215882
0.0200436
-0.207133
0.0206424
-0.198784
0.0212578
-0.190758
0.0218883
-0.183066
0.0225342
-0.175688
0.0231992
-0.168616
0.0238824
-0.16183
0.0245842
-0.155334
0.0253078
-0.149098
0.0260526
-0.143128
0.0268219
-0.137406
0.0276179
-0.131912
0.0284392
-0.126649
0.029293
-0.121608
0.0301754
-0.11676
0.0310934
-0.112116
0.0320455
-0.10766
0.0330348
-0.10338
0.0340607
-0.0992756
0.0351283
-0.0953319
0.0362368
-0.0915485
0.0373861
-0.087905
0.0385811
-0.0844166
0.0398167
-0.0810584
0.0411063
-0.0778405
0.0424246
-0.0747382
0.0438047
-0.0717669
0.0452263
-0.0689118
0.0467013
-0.0661683
0.0482291
-0.0635317
0.0497967
-0.0610024
0.0514281
-0.0585707
0.0530977
-0.0562319
0.0548171
-0.0539963
0.0566099
-0.0518443
0.0584524
-0.0497761
0.0603366
-0.0477921
0.0623003
-0.045892
0.0642412
-0.300404
0.0152806
-0.287863
0.0157419
-0.27625
0.0162222
-0.265041
0.0167235
-0.254483
0.0172405
-0.244207
0.0177675
-0.234374
0.0183075
-0.224916
0.0188615
-0.215852
0.0194287
-0.207099
0.0200101
-0.198747
0.0206056
-0.190718
0.0212176
-0.183022
0.0218449
-0.175641
0.0224874
-0.168566
0.0231493
-0.161777
0.0238297
-0.155278
0.0245289
-0.149041
0.0252503
-0.143068
0.0259933
-0.137345
0.0267613
-0.13185
0.0275567
-0.126588
0.0283778
-0.121547
0.0292321
-0.1167
0.0301154
-0.112058
0.0310349
-0.107603
0.0319888
-0.103325
0.0329803
-0.0992235
0.0340086
-0.0952824
0.0350788
-0.0915017
0.03619
-0.0878609
0.037342
-0.0843752
0.0385397
-0.0810195
0.0397778
-0.077804
0.0410698
-0.074704
0.0423904
-0.0717347
0.0437725
-0.0688815
0.0451961
-0.0661397
0.0466728
-0.0635047
0.0482021
-0.0609767
0.049771
-0.0585462
0.0514036
-0.0562083
0.0530741
-0.0539736
0.0547944
-0.0518221
0.0565877
-0.0497544
0.0584307
-0.0477705
0.0603149
-0.0458709
0.0622793
-0.0440402
0.0642192
-0.300374
0.0148087
-0.287838
0.015255
-0.27623
0.0157224
-0.265028
0.0162084
-0.254469
0.0167096
-0.244189
0.0172222
-0.234352
0.0177455
-0.22489
0.0182818
-0.215823
0.0188327
-0.207067
0.0193966
-0.198712
0.0199748
-0.190679
0.020567
-0.18298
0.0211758
-0.175596
0.0217998
-0.168518
0.0224392
-0.161726
0.0230982
-0.155225
0.0237758
-0.148985
0.0244727
-0.14301
0.0251921
-0.137286
0.0259336
-0.13179
0.0267007
-0.126527
0.0274957
-0.121486
0.028317
-0.11664
0.029172
-0.111999
0.0300565
-0.107546
0.0309777
-0.10327
0.0319337
-0.0991707
0.0329276
-0.0952323
0.0339584
-0.0914542
0.0350313
-0.0878162
0.0361452
-0.0843331
0.0372999
-0.08098
0.0385002
-0.077767
0.0397409
-0.0746694
0.0410352
-0.0717023
0.0423579
-0.0688511
0.0437421
-0.0661111
0.0451674
-0.0634777
0.0466458
-0.0609512
0.0481766
-0.0585219
0.0497467
-0.0561852
0.0513804
-0.0539513
0.0530519
-0.0518006
0.0547729
-0.0497334
0.0565667
-0.0477499
0.0584101
-0.0458504
0.0602944
-0.0440203
0.0622593
-0.0422641
0.0641982
-0.300345
0.0143509
-0.287814
0.0147848
-0.276212
0.0152367
-0.265015
0.0157098
-0.254456
0.0161951
-0.244171
0.0166921
-0.234331
0.0172012
-0.224866
0.017721
-0.215796
0.0182543
-0.207037
0.0188021
-0.198678
0.0193629
-0.190642
0.0199379
-0.18294
0.0205269
-0.175553
0.0211324
-0.168471
0.0217532
-0.161676
0.0223896
-0.155172
0.0230458
-0.14893
0.0237209
-0.142953
0.0244157
-0.137227
0.0251334
-0.13173
0.0258737
-0.126466
0.0266402
-0.121425
0.0274351
-0.11658
0.0282569
-0.11194
0.0291129
-0.107488
0.029999
-0.103214
0.0309221
-0.0991174
0.0318804
-0.0951814
0.0328767
-0.0914059
0.0339102
-0.0877707
0.0349858
-0.0842903
0.0361024
-0.0809399
0.0372598
-0.0777295
0.0384627
-0.0746343
0.0397058
-0.0716694
0.0410023
-0.0688203
0.0423272
-0.0660823
0.0437133
-0.0634506
0.0451403
-0.0609257
0.0466202
-0.0584978
0.0481524
-0.0561623
0.0497238
-0.0539294
0.0513585
-0.0517796
0.0530308
-0.049713
0.0547525
-0.04773
0.0565468
-0.0458308
0.0583906
-0.0440007
0.0602748
-0.0422451
0.0622403
-0.0405685
0.0641782
-0.300314
0.013906
-0.287792
0.0143288
-0.276195
0.0147676
-0.265003
0.0152252
-0.254443
0.0156972
-0.244154
0.0161784
-0.234311
0.0166721
-0.224842
0.0171779
-0.215769
0.0176948
-0.207008
0.0182252
-0.198646
0.0187699
-0.190607
0.0193276
-0.182902
0.0198994
-0.175511
0.0204852
-0.168426
0.0210875
-0.161628
0.0217053
-0.155121
0.0223388
-0.148876
0.0229923
-0.142897
0.0236651
-0.137169
0.024358
-0.131671
0.0250743
-0.126406
0.0258137
-0.121365
0.0265799
-0.11652
0.027375
-0.111881
0.0281977
-0.10743
0.029055
-0.103158
0.0299428
-0.0990633
0.0308681
-0.0951298
0.0318287
-0.0913569
0.0328277
-0.0877244
0.0338639
-0.0842468
0.0349423
-0.0808991
0.0360616
-0.0776914
0.0372216
-0.0745986
0.038427
-0.0716362
0.0396725
-0.0687892
0.0409712
-0.0660532
0.0422981
-0.0634233
0.043686
-0.0609
0.0451147
-0.0584736
0.0465961
-0.0561394
0.0481296
-0.0539078
0.0497021
-0.0517589
0.0513378
-0.0496931
0.0530109
-0.0477107
0.0547332
-0.0458119
0.0565279
-0.0439822
0.0583721
-0.0422265
0.0602562
-0.0405504
0.0622222
-0.0389283
0.0641591
-0.300284
0.0134766
-0.287771
0.0138857
-0.276179
0.0143127
-0.264993
0.0147572
-0.254431
0.0152131
-0.244138
0.0156812
-0.234292
0.0161594
-0.22482
0.0166499
-0.215745
0.017153
-0.20698
0.0176671
-0.198616
0.0181945
-0.190573
0.0187362
-0.182865
0.0192907
-0.175471
0.0198593
-0.168383
0.0204419
-0.161582
0.0210411
-0.155072
0.0216559
-0.148824
0.0222867
-0.142843
0.0229378
-0.137112
0.0236085
-0.131613
0.0242997
-0.126347
0.0250149
-0.121305
0.0257538
-0.11646
0.02652
-0.111821
0.0273157
-0.107372
0.0281395
-0.103102
0.0289984
-0.0990087
0.0298882
-0.0950775
0.0308157
-0.0913071
0.031779
-0.0876773
0.0327806
-0.0842025
0.0338196
-0.0808576
0.0349008
-0.0776525
0.0360228
-0.0745624
0.0371854
-0.0716024
0.0383932
-0.0687577
0.039641
-0.0660238
0.0409418
-0.0633958
0.0422706
-0.0608743
0.0436602
-0.0584494
0.0450905
-0.0561166
0.0465733
-0.0538862
0.048108
-0.0517384
0.0496816
-0.0496735
0.0513182
-0.0476918
0.0529921
-0.0457937
0.054715
-0.0439643
0.0565099
-0.0422089
0.0583545
-0.0405327
0.0602385
-0.0389111
0.062205
-0.0373637
0.0641409
-0.300253
0.0130588
-0.287753
0.013458
-0.276163
0.0138704
-0.264983
0.0143031
-0.254419
0.0147456
-0.244123
0.015198
-0.234274
0.0156631
-0.224799
0.0161383
-0.215721
0.0166263
-0.206954
0.0171266
-0.198586
0.0176379
-0.190541
0.0181623
-0.182829
0.0187009
-0.175433
0.0192523
-0.168342
0.0198177
-0.161537
0.0203972
-0.155024
0.0209934
-0.148774
0.0216054
-0.14279
0.0222335
-0.137057
0.0228823
-0.131555
0.0235512
-0.126289
0.0242411
-0.121246
0.0249555
-0.116401
0.0256942
-0.111762
0.0264607
-0.107314
0.0272573
-0.103045
0.0280824
-0.0989535
0.0289431
-0.0950244
0.0298352
-0.0912566
0.0307652
-0.0876294
0.031731
-0.0841573
0.0327354
-0.0808152
0.0337772
-0.0776129
0.0348611
-0.0745254
0.0359858
-0.0715679
0.037151
-0.0687257
0.0383612
-0.0659939
0.0396111
-0.063368
0.040914
-0.0608483
0.0422446
-0.0584251
0.0436359
-0.0560937
0.0450676
-0.0538646
0.0465517
-0.051718
0.0480876
-0.0496541
0.0496623
-0.0476733
0.0512997
-0.0457759
0.0529742
-0.043947
0.0546977
-0.0421919
0.056493
-0.040516
0.0583378
-0.0388943
0.0602216
-0.0373474
0.0621887
-0.0358544
0.0641235
-0.300221
0.0126539
-0.287736
0.0130419
-0.276149
0.0134436
-0.264975
0.0138617
-0.254408
0.014292
-0.244109
0.0147312
-0.234257
0.0151807
-0.224779
0.0156431
-0.215699
0.0161159
-0.206928
0.0166012
-0.198559
0.0170988
-0.19051
0.0176071
-0.182796
0.0181285
-0.175396
0.0186641
-0.168302
0.0192124
-0.161494
0.0197747
-0.154978
0.0203511
-0.148725
0.0209443
-0.142738
0.0215536
-0.137003
0.0221794
-0.131499
0.0228261
-0.126231
0.0234935
-0.121187
0.0241823
-0.116341
0.0248962
-0.111703
0.025635
-0.107255
0.0264021
-0.102987
0.0271999
-0.0988977
0.0280266
-0.0949707
0.0288894
-0.0912052
0.0297838
-0.0875806