/*--------------------------------*- C++ -*----------------------------------*\
  =========                 |
  \\      /  F ield         | OpenFOAM: The Open Source CFD Toolbox
   \\    /   O peration     | Website:  https://openfoam.org
    \\  /    A nd           | Version:  7
     \\/     M anipulation  |
\*---------------------------------------------------------------------------*/
FoamFile
{
    version     2.0;
    format      ascii;
    class       volVectorField;
    location    "1600";
    object      U;
}
// * * * * * * * * * * * * * * * * * * * * * * * * * * * * * * * * * * * * * //

dimensions      [0 1 -1 0 0 0 0];

internalField   nonuniform List<vector> 
23117
(
(49.9689 13.1517 0)
(49.9156 13.0935 0)
(50.0589 13.1479 0)
(49.8933 13.0574 0)
(50.0189 13.1423 0)
(50.1213 13.1232 0)
(49.8755 13.0224 0)
(50.0001 13.1296 0)
(50.0881 13.1161 0)
(50.1872 13.0864 0)
(49.8647 12.9924 0)
(49.9772 13.1145 0)
(50.0709 13.1062 0)
(50.1501 13.0756 0)
(50.2334 13.0605 0)
(49.8565 12.9661 0)
(49.9607 13.1003 0)
(50.0492 13.0948 0)
(50.1314 13.0645 0)
(50.1929 13.0533 0)
(50.2615 13.0325 0)
(49.8503 12.943 0)
(49.9465 13.0876 0)
(50.0318 13.0829 0)
(50.1076 13.0531 0)
(50.1723 13.0432 0)
(50.215 13.0249 0)
(50.2717 13.0007 0)
(49.8452 12.9226 0)
(49.9348 13.0766 0)
(50.0158 13.0711 0)
(50.0875 13.0417 0)
(50.1445 13.0329 0)
(50.1913 13.0144 0)
(50.2186 12.9919 0)
(50.2678 12.9675 0)
(49.8411 12.9047 0)
(49.9246 13.0673 0)
(50.0016 13.06 0)
(50.068 13.0306 0)
(50.12 13.0222 0)
(50.159 13.0039 0)
(50.1924 12.9808 0)
(50.2113 12.9584 0)
(50.259 12.9348 0)
(49.8375 12.8888 0)
(49.9155 13.0596 0)
(49.9885 13.0497 0)
(50.0497 13.0199 0)
(50.0955 13.0117 0)
(50.1302 12.9929 0)
(50.1568 12.97 0)
(50.1848 12.9476 0)
(50.2037 12.9265 0)
(50.2544 12.9048 0)
(49.8344 12.8748 0)
(49.9073 13.0533 0)
(49.9764 13.0401 0)
(50.032 13.01 0)
(50.072 13.0015 0)
(50.1014 12.9821 0)
(50.1256 12.9591 0)
(50.1487 12.9373 0)
(50.1792 12.9166 0)
(50.2035 12.8983 0)
(50.2582 12.8789 0)
(49.8316 12.8625 0)
(49.8997 13.0484 0)
(49.9649 13.0314 0)
(50.0149 13.0008 0)
(50.049 12.9917 0)
(50.0737 12.9715 0)
(50.0947 12.9484 0)
(50.118 12.927 0)
(50.1453 12.9074 0)
(50.1819 12.8896 0)
(50.2124 12.8744 0)
(50.2697 12.8566 0)
(49.8291 12.8517 0)
(49.8926 13.0446 0)
(49.9538 13.0235 0)
(49.9981 12.9924 0)
(50.0266 12.9825 0)
(50.047 12.9613 0)
(50.0657 12.9382 0)
(50.0881 12.9173 0)
(50.1173 12.8983 0)
(50.1515 12.8815 0)
(50.1933 12.8665 0)
(50.2275 12.8538 0)
(50.285 12.8366 0)
(49.8268 12.8423 0)
(49.8857 13.0419 0)
(49.9429 13.0163 0)
(49.9815 12.9847 0)
(50.0047 12.9739 0)
(50.0213 12.9518 0)
(50.0382 12.9286 0)
(50.0606 12.9081 0)
(50.0902 12.8898 0)
(50.1264 12.8737 0)
(50.1655 12.8594 0)
(50.2095 12.8461 0)
(50.244 12.8348 0)
(50.3003 12.8177 0)
(49.8247 12.8341 0)
(49.879 13.0401 0)
(49.9322 13.0097 0)
(49.9651 12.9777 0)
(49.9832 12.9659 0)
(49.9966 12.9429 0)
(50.0123 12.9197 0)
(50.035 12.8997 0)
(50.0656 12.8819 0)
(50.1021 12.8663 0)
(50.1424 12.8524 0)
(50.1828 12.8394 0)
(50.2258 12.8268 0)
(50.2584 12.8162 0)
(50.3129 12.7991 0)
(49.8227 12.8271 0)
(49.8725 13.0392 0)
(49.9215 13.0038 0)
(49.9488 12.9715 0)
(49.9623 12.9586 0)
(49.973 12.9347 0)
(49.988 12.9116 0)
(50.0112 12.892 0)
(50.0426 12.8747 0)
(50.0796 12.8594 0)
(50.1194 12.8456 0)
(50.16 12.8326 0)
(50.1988 12.8201 0)
(50.2394 12.8078 0)
(50.2692 12.7976 0)
(50.3221 12.7805 0)
(49.8208 12.8212 0)
(49.866 13.039 0)
(49.9108 12.9985 0)
(49.9326 12.966 0)
(49.9419 12.952 0)
(49.9506 12.9273 0)
(49.9653 12.9043 0)
(49.9892 12.8851 0)
(50.0212 12.8681 0)
(50.0584 12.853 0)
(50.0977 12.8391 0)
(50.1369 12.8258 0)
(50.1753 12.8131 0)
(50.2114 12.8008 0)
(50.2494 12.7887 0)
(50.2766 12.779 0)
(50.3284 12.7622 0)
(49.819 12.8162 0)
(49.8595 13.0394 0)
(49.9001 12.9936 0)
(49.9165 12.9612 0)
(49.9221 12.9461 0)
(49.9293 12.9208 0)
(49.9441 12.898 0)
(49.9687 12.879 0)
(50.0013 12.8623 0)
(50.0383 12.8471 0)
(50.0767 12.8329 0)
(50.1146 12.8193 0)
(50.1512 12.8061 0)
(50.1868 12.7935 0)
(50.2204 12.7815 0)
(50.2563 12.7698 0)
(50.2816 12.7607 0)
(50.3326 12.7442 0)
(49.8173 12.8121 0)
(49.8529 13.0405 0)
(49.8893 12.9893 0)
(49.9005 12.957 0)
(49.903 12.9408 0)
(49.9091 12.915 0)
(49.9243 12.8925 0)
(49.9497 12.8738 0)
(49.9826 12.8571 0)
(50.0191 12.8417 0)
(50.0563 12.8271 0)
(50.0927 12.813 0)
(50.1278 12.7993 0)
(50.1616 12.7862 0)
(50.1948 12.7739 0)
(50.2265 12.7624 0)
(50.2611 12.7513 0)
(50.2851 12.7429 0)
(50.3356 12.7269 0)
(49.8155 12.8088 0)
(49.8462 13.042 0)
(49.8785 12.9853 0)
(49.8847 12.9534 0)
(49.8846 12.9362 0)
(49.8901 12.9102 0)
(49.9059 12.8879 0)
(49.932 12.8694 0)
(49.9649 12.8526 0)
(50.0006 12.8369 0)
(50.0364 12.8217 0)
(50.0713 12.8069 0)
(50.1047 12.7927 0)
(50.1372 12.7791 0)
(50.1688 12.7664 0)
(50.2004 12.7546 0)
(50.2308 12.7438 0)
(50.2646 12.7334 0)
(50.2877 12.7257 0)
(50.3377 12.7102 0)
(49.8138 12.8063 0)
(49.8395 13.044 0)
(49.8675 12.9817 0)
(49.8692 12.9504 0)
(49.8669 12.9323 0)
(49.8722 12.9061 0)
(49.8888 12.8842 0)
(49.9154 12.8658 0)
(49.948 12.8487 0)
(49.9827 12.8325 0)
(50.017 12.8167 0)
(50.0501 12.8012 0)
(50.082 12.7863 0)
(50.1131 12.7721 0)
(50.1437 12.759 0)
(50.174 12.7469 0)
(50.2046 12.7358 0)
(50.2342 12.7258 0)
(50.2673 12.7162 0)
(50.2897 12.7093 0)
(50.3392 12.6942 0)
(49.812 12.8044 0)
(49.8326 13.0463 0)
(49.8566 12.9785 0)
(49.8539 12.948 0)
(49.85 12.9291 0)
(49.8555 12.9028 0)
(49.8728 12.8813 0)
(49.8998 12.8629 0)
(49.9319 12.8455 0)
(49.9652 12.8287 0)
(49.9979 12.8121 0)
(50.0293 12.7958 0)
(50.0596 12.7802 0)
(50.0894 12.7654 0)
(50.1189 12.7517 0)
(50.1484 12.7393 0)
(50.1779 12.7279 0)
(50.2079 12.7177 0)
(50.2368 12.7085 0)
(50.2694 12.6997 0)
(50.2912 12.6936 0)
(50.3403 12.6789 0)
(49.8102 12.8032 0)
(49.8255 13.049 0)
(49.8456 12.9757 0)
(49.839 12.9461 0)
(49.834 12.9265 0)
(49.8398 12.9003 0)
(49.8579 12.8791 0)
(49.885 12.8606 0)
(49.9163 12.8429 0)
(49.9482 12.8254 0)
(49.9791 12.808 0)
(50.0088 12.7909 0)
(50.0376 12.7745 0)
(50.0661 12.759 0)
(50.0946 12.7448 0)
(50.1233 12.7318 0)
(50.1521 12.7202 0)
(50.1811 12.7097 0)
(50.2105 12.7003 0)
(50.2389 12.692 0)
(50.271 12.6839 0)
(50.2922 12.6785 0)
(50.3409 12.6642 0)
(49.8084 12.8026 0)
(49.8184 13.0519 0)
(49.8347 12.9731 0)
(49.8245 12.9448 0)
(49.8188 12.9245 0)
(49.8252 12.8985 0)
(49.844 12.8776 0)
(49.871 12.8591 0)
(49.9012 12.8408 0)
(49.9314 12.8226 0)
(49.9605 12.8043 0)
(49.9885 12.7864 0)
(50.016 12.7692 0)
(50.0433 12.753 0)
(50.0708 12.7381 0)
(50.0987 12.7246 0)
(50.1268 12.7125 0)
(50.1552 12.7017 0)
(50.1837 12.6921 0)
(50.2127 12.6836 0)
(50.2405 12.6761 0)
(50.2721 12.6687 0)
(50.2928 12.6641 0)
(50.3411 12.6502 0)
(49.8065 12.8024 0)
(49.8111 13.0551 0)
(49.8238 12.9708 0)
(49.8105 12.944 0)
(49.8044 12.9231 0)
(49.8116 12.8974 0)
(49.8309 12.8769 0)
(49.8575 12.8581 0)
(49.8865 12.8393 0)
(49.915 12.8203 0)
(49.9423 12.8012 0)
(49.9686 12.7824 0)
(49.9947 12.7643 0)
(50.0209 12.7474 0)
(50.0474 12.7318 0)
(50.0745 12.7177 0)
(50.102 12.7051 0)
(50.1297 12.6939 0)
(50.1578 12.684 0)
(50.1858 12.6753 0)
(50.2143 12.6676 0)
(50.2417 12.6608 0)
(50.2729 12.6542 0)
(50.293 12.6504 0)
(50.3409 12.6367 0)
(49.8046 12.8028 0)
(49.8037 13.0585 0)
(49.813 12.9688 0)
(49.7969 12.9437 0)
(49.7909 12.9222 0)
(49.7989 12.897 0)
(49.8186 12.8767 0)
(49.8446 12.8577 0)
(49.8722 12.8383 0)
(49.8988 12.8185 0)
(49.9243 12.7985 0)
(49.949 12.7788 0)
(49.9737 12.76 0)
(49.9988 12.7423 0)
(50.0245 12.726 0)
(50.0508 12.7112 0)
(50.0776 12.6979 0)
(50.1047 12.6862 0)
(50.1322 12.6759 0)
(50.1598 12.6669 0)
(50.1875 12.6591 0)
(50.2156 12.6522 0)
(50.2425 12.6463 0)
(50.2732 12.6404 0)
(50.2929 12.6372 0)
(50.3404 12.6239 0)
(49.8025 12.8035 0)
(49.7961 13.062 0)
(49.8023 12.967 0)
(49.7839 12.9438 0)
(49.7783 12.9219 0)
(49.787 12.8972 0)
(49.8069 12.8771 0)
(49.8322 12.8578 0)
(49.8581 12.8377 0)
(49.8829 12.8172 0)
(49.9066 12.7963 0)
(49.9298 12.7758 0)
(49.9531 12.7561 0)
(49.9772 12.7376 0)
(50.0019 12.7205 0)
(50.0274 12.705 0)
(50.0535 12.691 0)
(50.0801 12.6787 0)
(50.1071 12.6679 0)
(50.1342 12.6585 0)
(50.1615 12.6505 0)
(50.1887 12.6435 0)
(50.2164 12.6375 0)
(50.243 12.6323 0)
(50.2733 12.6271 0)
(50.2925 12.6246 0)
(50.3396 12.6117 0)
(49.8004 12.8046 0)
(49.7885 13.0656 0)
(49.7919 12.9655 0)
(49.7714 12.9444 0)
(49.7664 12.9221 0)
(49.776 12.8979 0)
(49.7959 12.878 0)
(49.8201 12.8583 0)
(49.8444 12.8377 0)
(49.8673 12.8163 0)
(49.8892 12.7947 0)
(49.9108 12.7733 0)
(49.9329 12.7528 0)
(49.9559 12.7334 0)
(49.9797 12.7155 0)
(50.0044 12.6992 0)
(50.0298 12.6845 0)
(50.0559 12.6715 0)
(50.0823 12.6601 0)
(50.109 12.6502 0)
(50.1358 12.6418 0)
(50.1628 12.6347 0)
(50.1897 12.6287 0)
(50.217 12.6234 0)
(50.2431 12.619 0)
(50.2731 12.6145 0)
(50.2919 12.6127 0)
(50.3387 12.6 0)
(49.7981 12.806 0)
(49.7808 13.0693 0)
(49.7816 12.9642 0)
(49.7595 12.9455 0)
(49.7554 12.9227 0)
(49.7657 12.8991 0)
(49.7854 12.8794 0)
(49.8084 12.8593 0)
(49.8309 12.838 0)
(49.8519 12.816 0)
(49.8721 12.7935 0)
(49.8922 12.7714 0)
(49.9131 12.75 0)
(49.9349 12.7298 0)
(49.9578 12.711 0)
(49.9817 12.6938 0)
(50.0065 12.6783 0)
(50.0319 12.6645 0)
(50.0578 12.6525 0)
(50.0841 12.6421 0)
(50.1106 12.6332 0)
(50.1372 12.6258 0)
(50.1639 12.6196 0)
(50.1904 12.6144 0)
(50.2174 12.61 0)
(50.2431 12.6063 0)
(50.2727 12.6024 0)
(50.2911 12.6012 0)
(50.3375 12.5889 0)
(49.7957 12.8078 0)
(49.773 13.0731 0)
(49.7716 12.9631 0)
(49.7482 12.9469 0)
(49.7452 12.9237 0)
(49.756 12.9009 0)
(49.7754 12.8811 0)
(49.7971 12.8607 0)
(49.8177 12.8388 0)
(49.8369 12.8161 0)
(49.8553 12.7929 0)
(49.874 12.7699 0)
(49.8936 12.7478 0)
(49.9143 12.7267 0)
(49.9363 12.707 0)
(49.9593 12.6889 0)
(49.9833 12.6725 0)
(50.0081 12.6579 0)
(50.0336 12.6451 0)
(50.0594 12.6341 0)
(50.0856 12.6247 0)
(50.1119 12.6169 0)
(50.1383 12.6105 0)
(50.1647 12.6052 0)
(50.1909 12.6008 0)
(50.2175 12.5972 0)
(50.2428 12.5943 0)
(50.2721 12.5909 0)
(50.2901 12.5904 0)
(50.3362 12.5783 0)
(49.7932 12.8097 0)
(49.7652 13.0768 0)
(49.7619 12.9622 0)
(49.7374 12.9487 0)
(49.7357 12.9252 0)
(49.7469 12.903 0)
(49.7658 12.8833 0)
(49.786 12.8625 0)
(49.8048 12.84 0)
(49.8221 12.8166 0)
(49.8389 12.7927 0)
(49.8562 12.7691 0)
(49.8745 12.7461 0)
(49.8941 12.7242 0)
(49.915 12.7036 0)
(49.9372 12.6845 0)
(49.9605 12.6672 0)
(49.9847 12.6517 0)
(50.0096 12.6381 0)
(50.035 12.6264 0)
(50.0608 12.6164 0)
(50.0869 12.6081 0)
(50.113 12.6012 0)
(50.1391 12.5957 0)
(50.1653 12.5914 0)
(50.1912 12.5879 0)
(50.2175 12.585 0)
(50.2424 12.5827 0)
(50.2713 12.58 0)
(50.289 12.58 0)
(50.3347 12.5682 0)
(49.7906 12.8119 0)
(49.7574 13.0807 0)
(49.7525 12.9615 0)
(49.7273 12.9509 0)
(49.7268 12.9269 0)
(49.7384 12.9055 0)
(49.7566 12.8857 0)
(49.7753 12.8646 0)
(49.7922 12.8416 0)
(49.8077 12.8176 0)
(49.8228 12.7931 0)
(49.8387 12.7687 0)
(49.8557 12.7449 0)
(49.8742 12.7221 0)
(49.8941 12.7006 0)
(49.9153 12.6806 0)
(49.9378 12.6624 0)
(49.9614 12.646 0)
(49.9857 12.6315 0)
(50.0108 12.6189 0)
(50.0363 12.6082 0)
(50.0621 12.5993 0)
(50.088 12.592 0)
(50.114 12.5862 0)
(50.1399 12.5817 0)
(50.1657 12.5782 0)
(50.1913 12.5755 0)
(50.2173 12.5734 0)
(50.2419 12.5718 0)
(50.2704 12.5696 0)
(50.2878 12.5702 0)
(50.3332 12.5585 0)
(49.7878 12.8143 0)
(49.7496 13.0845 0)
(49.7435 12.961 0)
(49.7179 12.9534 0)
(49.7187 12.929 0)
(49.7304 12.9083 0)
(49.7478 12.8885 0)
(49.7648 12.867 0)
(49.7798 12.8435 0)
(49.7936 12.819 0)
(49.8072 12.7939 0)
(49.8216 12.7688 0)
(49.8373 12.7443 0)
(49.8546 12.7207 0)
(49.8734 12.6983 0)
(49.8937 12.6773 0)
(49.9154 12.658 0)
(49.9382 12.6406 0)
(49.9621 12.6252 0)
(49.9867 12.6117 0)
(50.0119 12.6003 0)
(50.0375 12.5907 0)
(50.0632 12.5829 0)
(50.0891 12.5767 0)
(50.1148 12.5719 0)
(50.1405 12.5683 0)
(50.1661 12.5656 0)
(50.1914 12.5638 0)
(50.217 12.5623 0)
(50.2413 12.5613 0)
(50.2695 12.5597 0)
(50.2864 12.5608 0)
(50.3315 12.5494 0)
(49.7849 12.8168 0)
(49.7419 13.0882 0)
(49.7348 12.9607 0)
(49.7089 12.9562 0)
(49.7111 12.9314 0)
(49.7229 12.9114 0)
(49.7393 12.8915 0)
(49.7546 12.8697 0)
(49.7678 12.8458 0)
(49.7798 12.8208 0)
(49.7919 12.7951 0)
(49.8049 12.7695 0)
(49.8193 12.7442 0)
(49.8354 12.7198 0)
(49.8531 12.6964 0)
(49.8724 12.6745 0)
(49.8932 12.6542 0)
(49.9153 12.6358 0)
(49.9386 12.6193 0)
(49.9627 12.6049 0)
(49.9876 12.5926 0)
(50.0129 12.5823 0)
(50.0386 12.5738 0)
(50.0643 12.5671 0)
(50.09 12.562 0)
(50.1156 12.5582 0)
(50.141 12.5555 0)
(50.1663 12.5537 0)
(50.1913 12.5526 0)
(50.2166 12.5518 0)
(50.2405 12.5514 0)
(50.2684 12.5503 0)
(50.2851 12.5519 0)
(50.3298 12.5407 0)
(49.7819 12.8195 0)
(49.7342 13.092 0)
(49.7264 12.9606 0)
(49.7006 12.9593 0)
(49.7041 12.934 0)
(49.7157 12.9148 0)
(49.731 12.8947 0)
(49.7447 12.8726 0)
(49.7561 12.8484 0)
(49.7665 12.823 0)
(49.777 12.7968 0)
(49.7886 12.7706 0)
(49.8017 12.7447 0)
(49.8165 12.7194 0)
(49.833 12.6952 0)
(49.8513 12.6722 0)
(49.8712 12.6509 0)
(49.8926 12.6314 0)
(49.9152 12.6139 0)
(49.9389 12.5985 0)
(49.9634 12.5853 0)
(49.9885 12.5741 0)
(50.014 12.5649 0)
(50.0396 12.5576 0)
(50.0653 12.552 0)
(50.0909 12.5479 0)
(50.1163 12.5451 0)
(50.1415 12.5433 0)
(50.1665 12.5423 0)
(50.1911 12.5419 0)
(50.2161 12.5418 0)
(50.2397 12.542 0)
(50.2673 12.5414 0)
(50.2836 12.5435 0)
(50.3281 12.5324 0)
(49.7787 12.8222 0)
(49.7266 13.0957 0)
(49.7185 12.9606 0)
(49.6929 12.9626 0)
(49.6976 12.9368 0)
(49.7089 12.9184 0)
(49.7231 12.8982 0)
(49.735 12.8758 0)
(49.7447 12.8513 0)
(49.7535 12.8255 0)
(49.7625 12.7989 0)
(49.7727 12.7722 0)
(49.7844 12.7456 0)
(49.798 12.7196 0)
(49.8133 12.6944 0)
(49.8305 12.6705 0)
(49.8494 12.6482 0)
(49.87 12.6276 0)
(49.892 12.609 0)
(49.9151 12.5926 0)
(49.9393 12.5783 0)
(49.9641 12.5662 0)
(49.9895 12.5562 0)
(50.015 12.5482 0)
(50.0407 12.5421 0)
(50.0663 12.5376 0)
(50.0918 12.5345 0)
(50.117 12.5326 0)
(50.1419 12.5317 0)
(50.1666 12.5315 0)
(50.1909 12.5318 0)
(50.2156 12.5323 0)
(50.2388 12.5331 0)
(50.2661 12.5329 0)
(50.2821 12.5354 0)
(50.3263 12.5245 0)
(49.7754 12.825 0)
(49.7192 13.0993 0)
(49.7109 12.9608 0)
(49.6856 12.9661 0)
(49.6916 12.9397 0)
(49.7024 12.9221 0)
(49.7154 12.9017 0)
(49.7257 12.8792 0)
(49.7337 12.8544 0)
(49.7409 12.8284 0)
(49.7485 12.8015 0)
(49.7572 12.7742 0)
(49.7676 12.747 0)
(49.7798 12.7203 0)
(49.7939 12.6943 0)
(49.81 12.6694 0)
(49.8279 12.646 0)
(49.8476 12.6244 0)
(49.8688 12.6047 0)
(49.8915 12.5871 0)
(49.9152 12.5718 0)
(49.9398 12.5587 0)
(49.9649 12.5478 0)
(49.9905 12.539 0)
(50.0161 12.5322 0)
(50.0418 12.5272 0)
(50.0673 12.5238 0)
(50.0926 12.5217 0)
(50.1176 12.5208 0)
(50.1422 12.5207 0)
(50.1666 12.5212 0)
(50.1907 12.5222 0)
(50.215 12.5233 0)
(50.2379 12.5246 0)
(50.2649 12.5248 0)
(50.2806 12.5278 0)
(50.3245 12.517 0)
(49.7719 12.8279 0)
(49.7119 13.1029 0)
(49.7037 12.9611 0)
(49.6789 12.9699 0)
(49.686 12.9429 0)
(49.6963 12.926 0)
(49.708 12.9055 0)
(49.7166 12.8828 0)
(49.723 12.8579 0)
(49.7287 12.8315 0)
(49.7348 12.8043 0)
(49.7422 12.7767 0)
(49.7512 12.7489 0)
(49.762 12.7215 0)
(49.7748 12.6946 0)
(49.7897 12.6688 0)
(49.8066 12.6444 0)
(49.8254 12.6217 0)
(49.8459 12.6008 0)
(49.8679 12.5821 0)
(49.8912 12.5657 0)
(49.9154 12.5515 0)
(49.9404 12.5397 0)
(49.9659 12.53 0)
(49.9916 12.5225 0)
(50.0173 12.5169 0)
(50.0429 12.513 0)
(50.0683 12.5106 0)
(50.0934 12.5095 0)
(50.1181 12.5095 0)
(50.1425 12.5102 0)
(50.1666 12.5115 0)
(50.1903 12.5131 0)
(50.2144 12.5148 0)
(50.2369 12.5165 0)
(50.2637 12.5172 0)
(50.2791 12.5206 0)
(50.3227 12.5099 0)
(49.7683 12.8308 0)
(49.7047 13.1064 0)
(49.6969 12.9616 0)
(49.6727 12.9737 0)
(49.6808 12.9461 0)
(49.6904 12.9301 0)
(49.7009 12.9093 0)
(49.7078 12.8866 0)
(49.7127 12.8615 0)
(49.7169 12.835 0)
(49.7216 12.8075 0)
(49.7276 12.7795 0)
(49.7352 12.7513 0)
(49.7446 12.7232 0)
(49.7561 12.6956 0)
(49.7698 12.6689 0)
(49.7855 12.6434 0)
(49.8033 12.6196 0)
(49.823 12.5976 0)
(49.8444 12.5777 0)
(49.8671 12.5601 0)
(49.8911 12.5448 0)
(49.9159 12.5319 0)
(49.9412 12.5213 0)
(49.9669 12.5129 0)
(49.9928 12.5066 0)
(50.0185 12.5022 0)
(50.0441 12.4994 0)
(50.0693 12.4981 0)
(50.0942 12.4979 0)
(50.1187 12.4987 0)
(50.1428 12.5003 0)
(50.1666 12.5022 0)
(50.19 12.5045 0)
(50.2137 12.5067 0)
(50.2359 12.5089 0)
(50.2624 12.5099 0)
(50.2775 12.5137 0)
(50.3209 12.5031 0)
(49.7645 12.8337 0)
(49.6978 13.1099 0)
(49.6905 12.9623 0)
(49.667 12.9778 0)
(49.676 12.9494 0)
(49.6848 12.9342 0)
(49.694 12.9132 0)
(49.6994 12.8905 0)
(49.7027 12.8653 0)
(49.7055 12.8387 0)
(49.7088 12.8111 0)
(49.7134 12.7827 0)
(49.7196 12.754 0)
(49.7276 12.7253 0)
(49.7378 12.697 0)
(49.7502 12.6694 0)
(49.7648 12.643 0)
(49.7815 12.618 0)
(49.8003 12.5949 0)
(49.821 12.5738 0)
(49.8432 12.555 0)
(49.8667 12.5385 0)
(49.8912 12.5245 0)
(49.9165 12.5129 0)
(49.9422 12.5036 0)
(49.9682 12.4965 0)
(49.9941 12.4914 0)
(50.0198 12.4881 0)
(50.0453 12.4865 0)
(50.0704 12.4861 0)
(50.095 12.4869 0)
(50.1192 12.4886 0)
(50.143 12.4908 0)
(50.1665 12.4935 0)
(50.1896 12.4963 0)
(50.213 12.499 0)
(50.2349 12.5016 0)
(50.2611 12.503 0)
(50.2759 12.5072 0)
(50.319 12.4966 0)
(49.7606 12.8367 0)
(49.691 13.1132 0)
(49.6844 12.963 0)
(49.6617 12.9819 0)
(49.6715 12.9528 0)
(49.6794 12.9384 0)
(49.6873 12.9173 0)
(49.6912 12.8946 0)
(49.6931 12.8694 0)
(49.6945 12.8427 0)
(49.6965 12.8149 0)
(49.6996 12.7863 0)
(49.7044 12.7572 0)
(49.711 12.728 0)
(49.7198 12.6989 0)
(49.7309 12.6705 0)
(49.7443 12.6431 0)
(49.7599 12.6171 0)
(49.7778 12.5928 0)
(49.7976 12.5705 0)
(49.8192 12.5504 0)
(49.8423 12.5328 0)
(49.8666 12.5175 0)
(49.8917 12.5048 0)
(49.9174 12.4945 0)
(49.9434 12.4865 0)
(49.9695 12.4807 0)
(49.9955 12.4769 0)
(50.0212 12.4747 0)
(50.0465 12.4741 0)
(50.0714 12.4748 0)
(50.0958 12.4765 0)
(50.1197 12.4789 0)
(50.1432 12.4819 0)
(50.1664 12.4852 0)
(50.1892 12.4885 0)
(50.2123 12.4917 0)
(50.2339 12.4947 0)
(50.2598 12.4964 0)
(50.2744 12.5009 0)
(50.3172 12.4905 0)
(49.7566 12.8396 0)
(49.6845 13.1165 0)
(49.6787 12.9639 0)
(49.6568 12.9861 0)
(49.6673 12.9562 0)
(49.6743 12.9427 0)
(49.6809 12.9213 0)
(49.6833 12.8988 0)
(49.6839 12.8736 0)
(49.684 12.8469 0)
(49.6846 12.819 0)
(49.6863 12.7902 0)
(49.6897 12.7608 0)
(49.6949 12.731 0)
(49.7023 12.7014 0)
(49.712 12.6722 0)
(49.7241 12.6439 0)
(49.7386 12.6168 0)
(49.7554 12.5913 0)
(49.7744 12.5678 0)
(49.7954 12.5465 0)
(49.8179 12.5275 0)
(49.8418 12.5111 0)
(49.8668 12.4972 0)
(49.8924 12.4858 0)
(49.9185 12.4768 0)
(49.9448 12.4702 0)
(49.971 12.4656 0)
(49.997 12.463 0)
(50.0226 12.462 0)
(50.0478 12.4624 0)
(50.0724 12.464 0)
(50.0966 12.4666 0)
(50.1203 12.4698 0)
(50.1434 12.4734 0)
(50.1663 12.4773 0)
(50.1887 12.4812 0)
(50.2115 12.4848 0)
(50.2328 12.4882 0)
(50.2585 12.4902 0)
(50.2728 12.4951 0)
(50.3154 12.4846 0)
(49.7524 12.8425 0)
(49.6783 13.1197 0)
(49.6734 12.9649 0)
(49.6522 12.9903 0)
(49.6634 12.9597 0)
(49.6693 12.947 0)
(49.6748 12.9254 0)
(49.6757 12.903 0)
(49.675 12.8779 0)
(49.6738 12.8513 0)
(49.6731 12.8234 0)
(49.6735 12.7944 0)
(49.6754 12.7647 0)
(49.6792 12.7345 0)
(49.6851 12.7043 0)
(49.6934 12.6744 0)
(49.7042 12.6452 0)
(49.7175 12.6171 0)
(49.7333 12.5905 0)
(49.7514 12.5657 0)
(49.7715 12.5431 0)
(49.7935 12.5229 0)
(49.817 12.5051 0)
(49.8417 12.4899 0)
(49.8673 12.4774 0)
(49.8935 12.4674 0)
(49.9199 12.4598 0)
(49.9463 12.4545 0)
(49.9726 12.4512 0)
(49.9986 12.4497 0)
(50.0241 12.4498 0)
(50.0491 12.4513 0)
(50.0735 12.4538 0)
(50.0974 12.4571 0)
(50.1207 12.4611 0)
(50.1436 12.4654 0)
(50.1662 12.4698 0)
(50.1883 12.4742 0)
(50.2108 12.4782 0)
(50.2318 12.482 0)
(50.2572 12.4843 0)
(50.2712 12.4895 0)
(50.3136 12.4791 0)
(49.7481 12.8453 0)
(49.6723 13.1228 0)
(49.6684 12.966 0)
(49.6481 12.9946 0)
(49.6597 12.9632 0)
(49.6646 12.9513 0)
(49.6688 12.9296 0)
(49.6685 12.9074 0)
(49.6665 12.8823 0)
(49.664 12.8559 0)
(49.662 12.8279 0)
(49.661 12.7989 0)
(49.6615 12.7689 0)
(49.6639 12.7384 0)
(49.6684 12.7077 0)
(49.6753 12.6771 0)
(49.6847 12.647 0)
(49.6968 12.618 0)
(49.7114 12.5903 0)
(49.7285 12.5643 0)
(49.7478 12.5404 0)
(49.7691 12.5188 0)
(49.7922 12.4997 0)
(49.8166 12.4832 0)
(49.8421 12.4694 0)
(49.8682 12.4583 0)
(49.8948 12.4497 0)
(49.9215 12.4435 0)
(49.9481 12.4394 0)
(49.9744 12.4374 0)
(50.0003 12.4371 0)
(50.0256 12.4383 0)
(50.0504 12.4407 0)
(50.0746 12.4441 0)
(50.0982 12.4482 0)
(50.1212 12.4529 0)
(50.1438 12.4578 0)
(50.166 12.4628 0)
(50.1878 12.4676 0)
(50.21 12.472 0)
(50.2307 12.4762 0)
(50.2559 12.4786 0)
(50.2697 12.4841 0)
(50.3118 12.4738 0)
(49.7437 12.8481 0)
(49.6665 13.1258 0)
(49.6637 12.9673 0)
(49.6443 12.999 0)
(49.6562 12.9666 0)
(49.6601 12.9556 0)
(49.6632 12.9338 0)
(49.6615 12.9118 0)
(49.6584 12.8869 0)
(49.6546 12.8606 0)
(49.6514 12.8327 0)
(49.649 12.8036 0)
(49.6481 12.7735 0)
(49.6491 12.7427 0)
(49.6521 12.7115 0)
(49.6576 12.6802 0)
(49.6656 12.6494 0)
(49.6763 12.6194 0)
(49.6897 12.5907 0)
(49.7057 12.5635 0)
(49.7242 12.5383 0)
(49.7448 12.5153 0)
(49.7673 12.4949 0)
(49.7913 12.4771 0)
(49.8166 12.462 0)
(49.8428 12.4496 0)
(49.8694 12.4399 0)
(49.8964 12.4327 0)
(49.9233 12.4278 0)
(49.95 12.4251 0)
(49.9763 12.4243 0)
(50.002 12.4251 0)
(50.0272 12.4273 0)
(50.0517 12.4307 0)
(50.0757 12.4349 0)
(50.099 12.4398 0)
(50.1217 12.4451 0)
(50.1439 12.4506 0)
(50.1659 12.4561 0)
(50.1873 12.4613 0)
(50.2092 12.4661 0)
(50.2296 12.4706 0)
(50.2546 12.4733 0)
(50.2681 12.4791 0)
(50.3101 12.4687 0)
(49.7392 12.8509 0)
(49.6611 13.1288 0)
(49.6593 12.9686 0)
(49.6408 13.0033 0)
(49.6529 12.9701 0)
(49.6557 12.9599 0)
(49.6577 12.9379 0)
(49.6548 12.9163 0)
(49.6506 12.8915 0)
(49.6457 12.8654 0)
(49.6411 12.8376 0)
(49.6375 12.8085 0)
(49.6352 12.7783 0)
(49.6347 12.7473 0)
(49.6363 12.7157 0)
(49.6403 12.6839 0)
(49.6469 12.6524 0)
(49.6562 12.6215 0)
(49.6684 12.5917 0)
(49.6832 12.5633 0)
(49.7006 12.5368 0)
(49.7204 12.5125 0)
(49.7423 12.4907 0)
(49.766 12.4714 0)
(49.791 12.455 0)
(49.8171 12.4413 0)
(49.8439 12.4304 0)
(49.871 12.4221 0)
(49.8982 12.4163 0)
(49.9253 12.4128 0)
(49.952 12.4114 0)
(49.9782 12.4118 0)
(50.0039 12.4137 0)
(50.0288 12.4169 0)
(50.0531 12.4211 0)
(50.0767 12.4262 0)
(50.0997 12.4318 0)
(50.1222 12.4377 0)
(50.1441 12.4438 0)
(50.1657 12.4497 0)
(50.1868 12.4554 0)
(50.2084 12.4605 0)
(50.2286 12.4653 0)
(50.2533 12.4682 0)
(50.2666 12.4743 0)
(50.3084 12.4639 0)
(49.7346 12.8536 0)
(49.6559 13.1316 0)
(49.6552 12.97 0)
(49.6375 13.0076 0)
(49.6498 12.9735 0)
(49.6516 12.9642 0)
(49.6525 12.9421 0)
(49.6484 12.9208 0)
(49.6431 12.8963 0)
(49.6371 12.8703 0)
(49.6313 12.8427 0)
(49.6264 12.8137 0)
(49.6227 12.7834 0)
(49.6208 12.7522 0)
(49.6209 12.7202 0)
(49.6234 12.688 0)
(49.6286 12.6558 0)
(49.6365 12.6241 0)
(49.6473 12.5933 0)
(49.6609 12.5638 0)
(49.6773 12.5361 0)
(49.6962 12.5104 0)
(49.7174 12.4871 0)
(49.7405 12.4664 0)
(49.7652 12.4485 0)
(49.7912 12.4335 0)
(49.818 12.4213 0)
(49.8453 12.4119 0)
(49.8729 12.405 0)
(49.9003 12.4007 0)
(49.9275 12.3985 0)
(49.9542 12.3983 0)
(49.9803 12.3999 0)
(50.0057 12.4028 0)
(50.0305 12.407 0)
(50.0545 12.4121 0)
(50.0778 12.4179 0)
(50.1005 12.4242 0)
(50.1226 12.4308 0)
(50.1442 12.4373 0)
(50.1655 12.4437 0)
(50.1863 12.4498 0)
(50.2077 12.4552 0)
(50.2275 12.4603 0)
(50.252 12.4634 0)
(50.2651 12.4698 0)
(50.3067 12.4593 0)
(49.7299 12.8562 0)
(49.6511 13.1343 0)
(49.6513 12.9714 0)
(49.6346 13.0118 0)
(49.6469 12.9769 0)
(49.6476 12.9684 0)
(49.6475 12.9463 0)
(49.6423 12.9253 0)
(49.636 12.901 0)
(49.6288 12.8754 0)
(49.6219 12.8479 0)
(49.6157 12.819 0)
(49.6107 12.7887 0)
(49.6073 12.7574 0)
(49.606 12.7252 0)
(49.607 12.6925 0)
(49.6107 12.6598 0)
(49.6171 12.6273 0)
(49.6266 12.5956 0)
(49.6389 12.565 0)
(49.6541 12.536 0)
(49.6721 12.5089 0)
(49.6924 12.4842 0)
(49.715 12.4621 0)
(49.7393 12.4427 0)
(49.7651 12.4262 0)
(49.7919 12.4126 0)
(49.8193 12.402 0)
(49.8472 12.394 0)
(49.875 12.3887 0)
(49.9026 12.3857 0)
(49.9298 12.3849 0)
(49.9565 12.3859 0)
(49.9824 12.3886 0)
(50.0077 12.3926 0)
(50.0322 12.3977 0)
(50.0559 12.4036 0)
(50.0789 12.4101 0)
(50.1013 12.4171 0)
(50.1231 12.4242 0)
(50.1443 12.4313 0)
(50.1653 12.4381 0)
(50.1858 12.4445 0)
(50.2069 12.4502 0)
(50.2264 12.4555 0)
(50.2508 12.4588 0)
(50.2636 12.4654 0)
(50.3051 12.455 0)
(49.7251 12.8588 0)
(49.6465 13.137 0)
(49.6477 12.973 0)
(49.6319 13.016 0)
(49.6441 12.9803 0)
(49.6438 12.9726 0)
(49.6427 12.9504 0)
(49.6365 12.9299 0)
(49.6292 12.9058 0)
(49.621 12.8805 0)
(49.6129 12.8532 0)
(49.6055 12.8245 0)
(49.5992 12.7943 0)
(49.5944 12.7628 0)
(49.5916 12.7305 0)
(49.5911 12.6975 0)
(49.5932 12.6642 0)
(49.5982 12.631 0)
(49.6062 12.5984 0)
(49.6172 12.5668 0)
(49.6312 12.5365 0)
(49.648 12.5082 0)
(49.6675 12.482 0)
(49.6894 12.4584 0)
(49.7132 12.4375 0)
(49.7387 12.4195 0)
(49.7655 12.4045 0)
(49.793 12.3925 0)
(49.8211 12.3833 0)
(49.8493 12.3769 0)
(49.8774 12.373 0)
(49.9051 12.3714 0)
(49.9323 12.3719 0)
(49.9589 12.3741 0)
(49.9846 12.3778 0)
(50.0096 12.3828 0)
(50.0338 12.3888 0)
(50.0573 12.3955 0)
(50.08 12.4027 0)
(50.102 12.4103 0)
(50.1235 12.4179 0)
(50.1444 12.4255 0)
(50.1651 12.4327 0)
(50.1853 12.4395 0)
(50.2061 12.4455 0)
(50.2254 12.451 0)
(50.2496 12.4545 0)
(50.2622 12.4613 0)
(50.3034 12.4508 0)
(49.7202 12.8612 0)
(49.6422 13.1395 0)
(49.6443 12.9746 0)
(49.6294 13.0202 0)
(49.6415 12.9836 0)
(49.6401 12.9768 0)
(49.6382 12.9545 0)
(49.631 12.9344 0)
(49.6227 12.9106 0)
(49.6135 12.8856 0)
(49.6043 12.8586 0)
(49.5957 12.8301 0)
(49.5881 12.8 0)
(49.5819 12.7685 0)
(49.5776 12.736 0)
(49.5756 12.7028 0)
(49.5762 12.669 0)
(49.5797 12.6352 0)
(49.5862 12.6018 0)
(49.5958 12.5692 0)
(49.6085 12.5378 0)
(49.6242 12.5081 0)
(49.6427 12.4805 0)
(49.6638 12.4554 0)
(49.6871 12.4329 0)
(49.7122 12.4134 0)
(49.7388 12.3969 0)
(49.7664 12.3834 0)
(49.7947 12.373 0)
(49.8232 12.3654 0)
(49.8518 12.3605 0)
(49.88 12.358 0)
(49.9078 12.3578 0)
(49.935 12.3595 0)
(49.9613 12.3629 0)
(49.9869 12.3677 0)
(50.0116 12.3736 0)
(50.0355 12.3804 0)
(50.0587 12.3879 0)
(50.0811 12.3958 0)
(50.1028 12.4039 0)
(50.1239 12.4121 0)
(50.1445 12.42 0)
(50.1649 12.4276 0)
(50.1848 12.4347 0)
(50.2053 12.441 0)
(50.2244 12.4468 0)
(50.2483 12.4503 0)
(50.2607 12.4574 0)
(50.3019 12.4468 0)
(49.7153 12.8637 0)
(49.6383 13.142 0)
(49.6411 12.9763 0)
(49.6272 13.0243 0)
(49.6389 12.9869 0)
(49.6366 12.9809 0)
(49.6338 12.9586 0)
(49.6257 12.939 0)
(49.6165 12.9155 0)
(49.6063 12.8908 0)
(49.5961 12.8641 0)
(49.5863 12.8358 0)
(49.5774 12.8058 0)
(49.5699 12.7745 0)
(49.5642 12.7419 0)
(49.5607 12.7084 0)
(49.5597 12.6743 0)
(49.5617 12.6399 0)
(49.5666 12.6058 0)
(49.5747 12.5722 0)
(49.5861 12.5397 0)
(49.6005 12.5088 0)
(49.618 12.4798 0)
(49.6382 12.4531 0)
(49.6608 12.4291 0)
(49.6855 12.408 0)
(49.7119 12.3899 0)
(49.7395 12.3749 0)
(49.7679 12.3631 0)
(49.7968 12.3542 0)
(49.8257 12.3481 0)
(49.8545 12.3447 0)
(49.8829 12.3437 0)
(49.9107 12.3448 0)
(49.9377 12.3478 0)
(49.9639 12.3523 0)
(49.9892 12.358 0)
(50.0137 12.3649 0)
(50.0373 12.3725 0)
(50.0601 12.3806 0)
(50.0821 12.3892 0)
(50.1035 12.3978 0)
(50.1243 12.4065 0)
(50.1446 12.4149 0)
(50.1647 12.4228 0)
(50.1843 12.4302 0)
(50.2046 12.4367 0)
(50.2233 12.4427 0)
(50.2472 12.4464 0)
(50.2593 12.4537 0)
(50.3003 12.443 0)
(49.7102 12.866 0)
(49.6346 13.1444 0)
(49.6381 12.978 0)
(49.6251 13.0282 0)
(49.6365 12.9901 0)
(49.6333 12.9849 0)
(49.6297 12.9626 0)
(49.6207 12.9435 0)
(49.6107 12.9203 0)
(49.5995 12.896 0)
(49.5883 12.8696 0)
(49.5773 12.8416 0)
(49.5672 12.8118 0)
(49.5583 12.7806 0)
(49.5512 12.748 0)
(49.5462 12.7144 0)
(49.5437 12.68 0)
(49.5441 12.6451 0)
(49.5475 12.6103 0)
(49.5541 12.5759 0)
(49.564 12.5423 0)
(49.5771 12.5101 0)
(49.5934 12.4797 0)
(49.6127 12.4516 0)
(49.6345 12.426 0)
(49.6587 12.4032 0)
(49.6847 12.3835 0)
(49.7122 12.367 0)
(49.7407 12.3536 0)
(49.7698 12.3434 0)
(49.7992 12.3361 0)
(49.8286 12.3316 0)
(49.8575 12.3297 0)
(49.886 12.3301 0)
(49.9136 12.3325 0)
(49.9405 12.3366 0)
(49.9665 12.3422 0)
(49.9915 12.3489 0)
(50.0157 12.3566 0)
(50.039 12.365 0)
(50.0614 12.3738 0)
(50.0832 12.3829 0)
(50.1042 12.3921 0)
(50.1247 12.4012 0)
(50.1447 12.41 0)
(50.1644 12.4183 0)
(50.1838 12.426 0)
(50.2038 12.4326 0)
(50.2223 12.4389 0)
(50.246 12.4426 0)
(50.2579 12.4502 0)
(50.2988 12.4394 0)
(49.7051 12.8683 0)
(49.6312 13.1466 0)
(49.6353 12.9797 0)
(49.6232 13.0321 0)
(49.6342 12.9932 0)
(49.6302 12.9889 0)
(49.6257 12.9666 0)
(49.6159 12.948 0)
(49.6051 12.9251 0)
(49.593 12.9012 0)
(49.5808 12.8752 0)
(49.5687 12.8474 0)
(49.5574 12.8179 0)
(49.5472 12.7868 0)
(49.5387 12.7543 0)
(49.5323 12.7206 0)
(49.5282 12.686 0)
(49.527 12.6507 0)
(49.5288 12.6153 0)
(49.5338 12.5801 0)
(49.5422 12.5456 0)
(49.554 12.5122 0)
(49.569 12.4805 0)
(49.5872 12.4508 0)
(49.6082 12.4236 0)
(49.6317 12.3992 0)
(49.6573 12.3778 0)
(49.6846 12.3596 0)
(49.7131 12.3447 0)
(49.7425 12.333 0)
(49.7723 12.3244 0)
(49.8021 12.3188 0)
(49.8317 12.3158 0)
(49.8608 12.3154 0)
(49.8892 12.3171 0)
(49.9167 12.3208 0)
(49.9434 12.326 0)
(49.9691 12.3326 0)
(49.9939 12.3403 0)
(50.0177 12.3488 0)
(50.0407 12.3579 0)
(50.0628 12.3673 0)
(50.0842 12.377 0)
(50.1049 12.3867 0)
(50.1251 12.3963 0)
(50.1448 12.4054 0)
(50.1642 12.414 0)
(50.1833 12.4219 0)
(50.2031 12.4288 0)
(50.2213 12.4352 0)
(50.2448 12.4391 0)
(50.2566 12.4468 0)
(50.2973 12.436 0)
(49.6999 12.8704 0)
(49.6282 13.1488 0)
(49.6327 12.9815 0)
(49.6215 13.0359 0)
(49.632 12.9963 0)
(49.6272 12.9928 0)
(49.622 12.9705 0)
(49.6114 12.9524 0)
(49.5998 12.9299 0)
(49.5869 12.9064 0)
(49.5737 12.8807 0)
(49.5605 12.8533 0)
(49.548 12.8241 0)
(49.5366 12.7932 0)
(49.5267 12.7608 0)
(49.5188 12.7271 0)
(49.5132 12.6923 0)
(49.5104 12.6568 0)
(49.5106 12.6208 0)
(49.514 12.5849 0)
(49.5209 12.5494 0)
(49.5312 12.5149 0)
(49.5449 12.4819 0)
(49.5618 12.4508 0)
(49.5819 12.422 0)
(49.6046 12.3959 0)
(49.6297 12.3728 0)
(49.6567 12.353 0)
(49.6852 12.3364 0)
(49.7147 12.3231 0)
(49.7448 12.3131 0)
(49.7751 12.3061 0)
(49.8053 12.3021 0)
(49.8351 12.3007 0)
(49.8642 12.3017 0)
(49.8925 12.3048 0)
(49.9199 12.3097 0)
(49.9463 12.316 0)
(49.9718 12.3236 0)
(49.9962 12.3321 0)
(50.0197 12.3414 0)
(50.0423 12.3512 0)
(50.0641 12.3612 0)
(50.0852 12.3715 0)
(50.1056 12.3816 0)
(50.1255 12.3916 0)
(50.1448 12.4011 0)
(50.164 12.4099 0)
(50.1828 12.4181 0)
(50.2023 12.4252 0)