/*--------------------------------*- C++ -*----------------------------------*\
  =========                 |
  \\      /  F ield         | OpenFOAM: The Open Source CFD Toolbox
   \\    /   O peration     | Website:  https://openfoam.org
    \\  /    A nd           | Version:  7
     \\/     M anipulation  |
\*---------------------------------------------------------------------------*/
FoamFile
{
    version     2.0;
    format      ascii;
    class       volScalarField;
    location    "1600";
    object      yPlus;
}
// * * * * * * * * * * * * * * * * * * * * * * * * * * * * * * * * * * * * * //

dimensions      [0 0 0 0 0 0 0];

internalField   uniform 0;

boundaryField
{
    inlet-l
    {
        type            calculated;
        value           uniform 0;
    }
    airfoil-l1
    {
        type            calculated;
        value           nonuniform 0();
    }
    empty-1
    {
        type            empty;
    }
    empty-2
    {
        type            empty;
    }
    wall-l1
    {
        type            calculated;
        value           nonuniform List<scalar> 
67
(
135.685
135.539
135.19
134.894
134.651
134.417
134.171
133.928
133.69
133.458
133.23
133.005
132.791
132.58
132.367
132.158
131.961
131.765
131.566
131.373
131.191
131.009
130.825
130.651
130.482
130.314
130.152
129.985
129.829
129.677
129.524
129.379
129.233
129.094
128.949
128.816
128.685
128.555
128.43
128.308
128.188
128.07
127.957
127.845
127.738
127.631
127.527
127.427
127.329
127.235
127.143
127.051
126.966
126.881
126.798
126.718
126.64
126.564
126.493
126.416
126.349
126.282
126.218
126.159
126.098
126.042
125.988
)
;
    }
    airfoil-l2
    {
        type            calculated;
        value           nonuniform List<scalar> 
66
(
21.5954
21.8695
22.1001
22.2964
22.4653
22.6109
22.7419
22.8588
22.96
23.0497
23.128
23.1982
23.2645
23.3219
23.3734
23.4197
23.4614
23.499
23.5343
23.5662
23.5926
23.62
23.6425
23.6639
23.6844
23.7005
23.7147
23.7285
23.7405
23.7487
23.7592
23.7659
23.7712
23.7753
23.7798
23.7859
23.7873
23.7826
23.7819
23.7847
23.7812
23.779
23.7758
23.7687
23.7607
23.7543
23.7464
23.7349
23.722
23.7082
23.6948
23.6822
23.6653
23.6438
23.62
23.5937
23.5641
23.531
23.4949
23.4541
23.4062
23.348
23.2848
23.1905
23.1331
22.7879
)
;
    }
    empty-3
    {
        type            empty;
    }
    empty-4
    {
        type            empty;
    }
    wall-l2
    {
        type            calculated;
        value           nonuniform List<scalar> 
74
(
125.873
125.786
125.722
125.646
125.577
125.529
125.501
125.491
125.497
125.522
125.565
125.628
125.711
125.813
125.935
126.078
126.241
126.424
126.628
126.851
127.095
127.359
127.641
127.942
128.261
128.597
128.95
129.317
129.698
130.091
130.495
130.908
131.329
131.755
132.183
132.613
133.04
133.463
133.878
134.282
134.672
135.045
135.396
135.723
136.02
136.283
136.508
136.689
136.822
136.902
136.921
136.874
136.755
136.557
136.271
135.89
135.405
134.805
134.081
133.22
132.208
131.032
129.672
128.11
126.322
124.282
121.958
119.319
116.331
112.993
109.334
105.711
102.907
102.756
)
;
    }
    outlet-l
    {
        type            calculated;
        value           uniform 0;
    }
    empty-5
    {
        type            empty;
    }
    empty-6
    {
        type            empty;
    }
    outlet-h
    {
        type            calculated;
        value           nonuniform 0();
    }
    wall-h2
    {
        type            calculated;
        value           nonuniform 0();
    }
    empty-7
    {
        type            empty;
    }
    empty-8
    {
        type            empty;
    }
    airfoil-h2
    {
        type            calculated;
        value           nonuniform 0();
    }
    wall-h1
    {
        type            calculated;
        value           nonuniform 0();
    }
    empty-9
    {
        type            empty;
    }
    empty-10
    {
        type            empty;
    }
    inlet-h
    {
        type            calculated;
        value           nonuniform 0();
    }
    airfoil-h1
    {
        type            calculated;
        value           nonuniform 0();
    }
    empty-11
    {
        type            empty;
    }
    empty-12
    {
        type            empty;
    }
    procBoundary1to0
    {
        type            processor;
        value           uniform 0;
    }
    procBoundary1to2
    {
        type            processor;
        value           uniform 0;
    }
}


// ************************************************************************* //
