# Force coefficient bins
# bins        : 31
# start       : 1.922210e-04
# delta       : 3.191833e-02
# direction   : (1.000000e+00 0.000000e+00 0.000000e+00)
# x co-ords  :	3.211055e-02	6.402888e-02	9.594721e-02	1.278655e-01	1.597839e-01	1.917022e-01	2.236205e-01	2.555389e-01	2.874572e-01	3.193755e-01	3.512938e-01	3.832122e-01	4.151305e-01	4.470488e-01	4.789672e-01	5.108855e-01	5.428038e-01	5.747222e-01	6.066405e-01	6.385588e-01	6.704771e-01	7.023955e-01	7.343138e-01	7.662321e-01	7.981505e-01	8.300688e-01	8.619871e-01	8.939054e-01	9.258238e-01	9.577421e-01	9.896604e-01
# y co-ords  :	0.000000e+00	0.000000e+00	0.000000e+00	0.000000e+00	0.000000e+00	0.000000e+00	0.000000e+00	0.000000e+00	0.000000e+00	0.000000e+00	0.000000e+00	0.000000e+00	0.000000e+00	0.000000e+00	0.000000e+00	0.000000e+00	0.000000e+00	0.000000e+00	0.000000e+00	0.000000e+00	0.000000e+00	0.000000e+00	0.000000e+00	0.000000e+00	0.000000e+00	0.000000e+00	0.000000e+00	0.000000e+00	0.000000e+00	0.000000e+00	0.000000e+00
# z co-ords  :	0.000000e+00	0.000000e+00	0.000000e+00	0.000000e+00	0.000000e+00	0.000000e+00	0.000000e+00	0.000000e+00	0.000000e+00	0.000000e+00	0.000000e+00	0.000000e+00	0.000000e+00	0.000000e+00	0.000000e+00	0.000000e+00	0.000000e+00	0.000000e+00	0.000000e+00	0.000000e+00	0.000000e+00	0.000000e+00	0.000000e+00	0.000000e+00	0.000000e+00	0.000000e+00	0.000000e+00	0.000000e+00	0.000000e+00	0.000000e+00	0.000000e+00
# Time        	Cm(0)         	Cd(0)         	Cl(0)         	Cm(1)         	Cd(1)         	Cl(1)         	Cm(2)         	Cd(2)         	Cl(2)         	Cm(3)         	Cd(3)         	Cl(3)         	Cm(4)         	Cd(4)         	Cl(4)         	Cm(5)         	Cd(5)         	Cl(5)         	Cm(6)         	Cd(6)         	Cl(6)         	Cm(7)         	Cd(7)         	Cl(7)         	Cm(8)         	Cd(8)         	Cl(8)         	Cm(9)         	Cd(9)         	Cl(9)         	Cm(10)        	Cd(10)        	Cl(10)        	Cm(11)        	Cd(11)        	Cl(11)        	Cm(12)        	Cd(12)        	Cl(12)        	Cm(13)        	Cd(13)        	Cl(13)        	Cm(14)        	Cd(14)        	Cl(14)        	Cm(15)        	Cd(15)        	Cl(15)        	Cm(16)        	Cd(16)        	Cl(16)        	Cm(17)        	Cd(17)        	Cl(17)        	Cm(18)        	Cd(18)        	Cl(18)        	Cm(19)        	Cd(19)        	Cl(19)        	Cm(20)        	Cd(20)        	Cl(20)        	Cm(21)        	Cd(21)        	Cl(21)        	Cm(22)        	Cd(22)        	Cl(22)        	Cm(23)        	Cd(23)        	Cl(23)        	Cm(24)        	Cd(24)        	Cl(24)        	Cm(25)        	Cd(25)        	Cl(25)        	Cm(26)        	Cd(26)        	Cl(26)        	Cm(27)        	Cd(27)        	Cl(27)        	Cm(28)        	Cd(28)        	Cl(28)        	Cm(29)        	Cd(29)        	Cl(29)        	Cm(30)        	Cd(30)        	Cl(30)        
0             	-1.002794e-05	1.602593e-04	1.325650e-06	-1.603002e-05	2.533540e-04	7.261332e-06	-1.975914e-05	3.204870e-04	1.223762e-05	-2.203610e-05	3.708591e-04	1.617687e-05	-2.340538e-05	4.099221e-04	1.930331e-05	-2.435275e-05	4.481071e-04	2.239468e-05	-2.497421e-05	5.034284e-04	2.690292e-05	-2.497421e-05	5.034284e-04	2.690292e-05	-2.486744e-05	5.425279e-04	3.009495e-05	-2.432264e-05	5.809075e-04	3.322641e-05	-2.336372e-05	6.185940e-04	3.629691e-05	-2.201348e-05	6.556077e-04	3.930702e-05	-2.029372e-05	6.919666e-04	4.225787e-05	-1.822514e-05	7.276847e-04	4.515078e-05	-1.582748e-05	7.627767e-04	4.798720e-05	-1.311966e-05	7.972527e-04	5.076834e-05	-1.011971e-05	8.311251e-04	5.349561e-05	-3.311913e-06	8.970994e-04	5.879332e-05	4.635327e-07	9.292212e-04	6.136598e-05	4.466454e-06	9.607806e-04	6.388939e-05	8.681885e-06	9.917843e-04	6.636431e-05	1.309593e-05	1.022242e-03	6.879176e-05	1.769530e-05	1.052162e-03	7.117265e-05	2.739901e-05	1.110427e-03	7.579836e-05	3.247946e-05	1.138790e-03	7.804506e-05	3.769691e-05	1.166648e-03	8.024872e-05	4.850013e-05	1.220885e-03	8.453023e-05	5.406609e-05	1.247281e-03	8.661000e-05	6.548078e-05	1.298669e-03	9.065228e-05	7.131211e-05	1.323677e-03	9.261658e-05	8.318344e-05	1.372356e-03	9.643631e-05
1             	-9.918825e-02	9.793608e-01	2.053361e-01	-2.223763e-01	1.363170e+00	7.706716e-01	-3.316218e-01	1.652119e+00	1.401128e+00	-4.158086e-01	1.882437e+00	2.016325e+00	-4.739145e-01	2.066758e+00	2.571595e+00	-5.166672e-01	2.245200e+00	3.153935e+00	-5.430526e-01	2.474132e+00	3.951334e+00	-5.430526e-01	2.474132e+00	3.951334e+00	-5.381534e-01	2.622938e+00	4.492851e+00	-5.151891e-01	2.765337e+00	5.022175e+00	-4.749228e-01	2.904126e+00	5.543814e+00	-4.178800e-01	3.041030e+00	6.059995e+00	-3.445238e-01	3.177111e+00	6.571683e+00	-2.553428e-01	3.312998e+00	7.079073e+00	-1.508839e-01	3.449019e+00	7.581941e+00	-3.177991e-02	3.585293e+00	8.079756e+00	1.012562e-01	3.721798e+00	8.571846e+00	4.058504e-01	3.994901e+00	9.535701e+00	5.755725e-01	4.131028e+00	1.000577e+01	7.555773e-01	4.266488e+00	1.046681e+01	9.447482e-01	4.400929e+00	1.091787e+01	1.141892e+00	4.533969e+00	1.135800e+01	1.345715e+00	4.665186e+00	1.178618e+01	1.767861e+00	4.920400e+00	1.260252e+01	1.983165e+00	5.043464e+00	1.298846e+01	2.199060e+00	5.162818e+00	1.335792e+01	2.624965e+00	5.388112e+00	1.404160e+01	2.830528e+00	5.492734e+00	1.435229e+01	3.212798e+00	5.681795e+00	1.489940e+01	3.381751e+00	5.763992e+00	1.512864e+01	3.643030e+00	5.895530e+00	1.546537e+01
2             	-6.335592e-02	4.949089e-01	1.655396e-01	-1.355443e-01	6.913432e-01	5.045044e-01	-2.021015e-01	8.503630e-01	8.933763e-01	-2.550372e-01	9.841172e-01	1.283246e+00	-2.919391e-01	1.094702e+00	1.637585e+00	-3.188913e-01	1.203256e+00	2.005562e+00	-3.352058e-01	1.342882e+00	2.499439e+00	-3.352058e-01	1.342882e+00	2.499439e+00	-3.321540e-01	1.433956e+00	2.833571e+00	-3.178587e-01	1.522480e+00	3.162498e+00	-2.926879e-01	1.609936e+00	3.488077e+00	-2.570513e-01	1.696835e+00	3.809980e+00	-2.114423e-01	1.783289e+00	4.127476e+00	-1.564006e-01	1.869271e+00	4.439954e+00	-9.252456e-02	1.954636e+00	4.746782e+00	-2.047365e-02	2.039167e+00	5.047302e+00	5.907712e-02	2.122650e+00	5.341003e+00	2.379877e-01	2.285716e+00	5.906526e+00	3.359675e-01	2.364939e+00	6.177697e+00	4.387028e-01	2.442410e+00	6.440760e+00	5.454923e-01	2.517984e+00	6.695455e+00	6.556341e-01	2.591526e+00	6.941544e+00	7.684186e-01	2.662907e+00	7.178786e+00	9.991344e-01	2.798756e+00	7.625935e+00	1.115668e+00	2.863028e+00	7.835442e+00	1.232034e+00	2.924742e+00	8.035272e+00	1.461345e+00	3.040167e+00	8.404925e+00	1.572774e+00	3.093742e+00	8.574177e+00	1.785020e+00	3.192365e+00	8.879574e+00	1.883620e+00	3.237283e+00	9.014177e+00	2.058974e+00	3.320035e+00	9.241349e+00
3             	-5.384719e-03	-2.774919e-01	9.817668e-02	1.116288e-02	-3.966725e-01	3.959077e-02	2.946191e-02	-4.759459e-01	-5.803345e-02	4.416953e-02	-5.329229e-01	-1.612727e-01	5.490033e-02	-5.756990e-01	-2.617481e-01	6.375190e-02	-6.171012e-01	-3.818115e-01	7.008561e-02	-6.733601e-01	-5.735670e-01	7.008561e-02	-6.733601e-01	-5.735670e-01	6.908893e-02	-7.065457e-01	-6.895772e-01	6.491384e-02	-7.336544e-01	-7.874354e-01	5.777960e-02	-7.581576e-01	-8.812185e-01	4.752842e-02	-7.814103e-01	-9.753885e-01	3.405175e-02	-8.040576e-01	-1.070878e+00	1.725691e-02	-8.266150e-01	-1.167955e+00	-3.001707e-03	-8.495929e-01	-1.266991e+00	-2.688277e-02	-8.734096e-01	-1.368251e+00	-5.453669e-02	-8.983877e-01	-1.471879e+00	-1.215795e-01	-9.526233e-01	-1.686070e+00	-1.612242e-01	-9.821677e-01	-1.796742e+00	-2.051133e-01	-1.013420e+00	-1.909855e+00	-2.532508e-01	-1.046319e+00	-2.025180e+00	-3.055389e-01	-1.080729e+00	-2.142315e+00	-3.618035e-01	-1.116489e+00	-2.260775e+00	-4.850440e-01	-1.191172e+00	-2.499146e+00	-5.511933e-01	-1.229565e+00	-2.617645e+00	-6.197461e-01	-1.268307e+00	-2.734800e+00	-7.624023e-01	-1.346040e+00	-2.963185e+00	-8.358151e-01	-1.384758e+00	-3.073810e+00	-9.849666e-01	-1.461239e+00	-3.286454e+00	-1.057986e+00	-1.497698e+00	-3.385289e+00	-1.160699e+00	-1.546175e+00	-3.518891e+00
4             	1.969297e-02	-5.031576e-01	3.999972e-02	7.118665e-02	-7.191353e-01	-1.822886e-01	1.229586e-01	-8.788559e-01	-4.755515e-01	1.657227e-01	-1.005829e+00	-7.858768e-01	1.970315e-01	-1.108839e+00	-1.084537e+00	2.218386e-01	-1.212609e+00	-1.423259e+00	2.383449e-01	-1.354360e+00	-1.924018e+00	2.383449e-01	-1.354360e+00	-1.924018e+00	2.356347e-01	-1.439416e+00	-2.228333e+00	2.239395e-01	-1.513288e+00	-2.499337e+00	2.037906e-01	-1.582579e+00	-2.761683e+00	1.749784e-01	-1.650208e+00	-3.023803e+00	1.377011e-01	-1.716849e+00	-3.285295e+00	9.219335e-02	-1.783069e+00	-3.545695e+00	3.861005e-02	-1.849434e+00	-3.805100e+00	-2.287981e-02	-1.916323e+00	-4.063489e+00	-9.207331e-02	-1.983960e+00	-4.320713e+00	-2.523234e-01	-2.121558e+00	-4.829938e+00	-3.426908e-01	-2.191368e+00	-5.081174e+00	-4.393994e-01	-2.261676e+00	-5.329728e+00	-5.419808e-01	-2.332272e+00	-5.575111e+00	-6.498943e-01	-2.402914e+00	-5.816759e+00	-7.625581e-01	-2.473372e+00	-6.054107e+00	-9.996089e-01	-2.612835e+00	-6.513650e+00	-1.122659e+00	-2.681384e+00	-6.734763e+00	-1.247815e+00	-2.748867e+00	-6.949450e+00	-1.501789e+00	-2.879998e+00	-7.357968e+00	-1.629226e+00	-2.943366e+00	-7.550998e+00	-1.881769e+00	-3.065412e+00	-7.913046e+00	-2.006282e+00	-3.124535e+00	-8.082386e+00	-2.214585e+00	-3.222394e+00	-8.352926e+00
5             	9.648420e-03	-1.829755e-01	1.933113e-03	3.327071e-02	-2.541212e-01	-1.069423e-01	5.456178e-02	-3.079885e-01	-2.307622e-01	7.348133e-02	-3.552920e-01	-3.706037e-01	8.863611e-02	-3.981666e-01	-5.172410e-01	1.015563e-01	-4.461886e-01	-6.951710e-01	1.100693e-01	-5.149395e-01	-9.527733e-01	1.100693e-01	-5.149395e-01	-9.527733e-01	1.090880e-01	-5.468787e-01	-1.064965e+00	1.054713e-01	-5.706503e-01	-1.149551e+00	9.894403e-02	-5.935501e-01	-1.235143e+00	8.874748e-02	-6.178797e-01	-1.328308e+00	7.507860e-02	-6.430541e-01	-1.424369e+00	5.799464e-02	-6.691584e-01	-1.522080e+00	3.743576e-02	-6.963716e-01	-1.621365e+00	1.339092e-02	-7.246836e-01	-1.722008e+00	-1.406902e-02	-7.539456e-01	-1.823587e+00	-7.821630e-02	-8.140339e-01	-2.026306e+00	-1.140859e-01	-8.440384e-01	-2.125500e+00	-1.518125e-01	-8.734694e-01	-2.221998e+00	-1.908215e-01	-9.019587e-01	-2.314931e+00	-2.305003e-01	-9.291720e-01	-2.403503e+00	-2.702807e-01	-9.548651e-01	-2.487134e+00	-3.485685e-01	-1.001368e+00	-2.638943e+00	-3.866871e-01	-1.022298e+00	-2.707544e+00	-4.241983e-01	-1.041963e+00	-2.772056e+00	-4.982839e-01	-1.078638e+00	-2.891678e+00	-5.353346e-01	-1.096196e+00	-2.948035e+00	-6.106739e-01	-1.131114e+00	-3.056417e+00	-6.506798e-01	-1.149770e+00	-3.110917e+00	-7.337538e-01	-1.189922e+00	-3.218328e+00
6             	-1.546100e-02	2.015442e-01	1.817783e-02	-3.840218e-02	3.084402e-01	1.147879e-01	-6.195879e-02	3.871205e-01	2.462842e-01	-7.841613e-02	4.438672e-01	3.631671e-01	-8.787939e-02	4.831520e-01	4.507670e-01	-9.359647e-02	5.149145e-01	5.268779e-01	-9.745288e-02	5.534239e-01	6.457155e-01	-9.745288e-02	5.534239e-01	6.457155e-01	-9.597154e-02	5.961681e-01	8.063281e-01	-8.838826e-02	6.418548e-01	9.799985e-01	-7.601929e-02	6.836594e-01	1.139444e+00	-6.039945e-02	7.201335e-01	1.280336e+00	-4.143713e-02	7.535238e-01	1.412544e+00	-1.947101e-02	7.843076e-01	1.537820e+00	5.439313e-03	8.132042e-01	1.658354e+00	3.314104e-02	8.407081e-01	1.774990e+00	6.348695e-02	8.672613e-01	1.888243e+00	1.322024e-01	9.195256e-01	2.107850e+00	1.709636e-01	9.462947e-01	2.216235e+00	2.130692e-01	9.741148e-01	2.325007e+00	2.588881e-01	1.003359e+00	2.435060e+00	3.087406e-01	1.034276e+00	2.547017e+00	3.627100e-01	1.066873e+00	2.660911e+00	4.820487e-01	1.136206e+00	2.892231e+00	5.462067e-01	1.172069e+00	3.007428e+00	6.120953e-01	1.207934e+00	3.120315e+00	7.445195e-01	1.277166e+00	3.333068e+00	8.093260e-01	1.309747e+00	3.431121e+00	9.353846e-01	1.371158e+00	3.611713e+00	9.934745e-01	1.398505e+00	3.690778e+00	1.077035e+00	1.435487e+00	3.800042e+00
7             	-3.129111e-02	2.798311e-01	7.271468e-02	-7.668194e-02	4.243038e-01	2.803680e-01	-1.148186e-01	5.285083e-01	4.991806e-01	-1.418593e-01	6.074296e-01	6.951735e-01	-1.588111e-01	6.665074e-01	8.553856e-01	-1.707213e-01	7.208189e-01	1.017304e+00	-1.792419e-01	7.966267e-01	1.280282e+00	-1.792419e-01	7.966267e-01	1.280282e+00	-1.768777e-01	8.651789e-01	1.538597e+00	-1.657046e-01	9.330327e-01	1.795038e+00	-1.476286e-01	9.946555e-01	2.028467e+00	-1.244714e-01	1.049381e+00	2.237622e+00	-9.626371e-02	1.100110e+00	2.434363e+00	-6.364546e-02	1.147501e+00	2.620224e+00	-2.679597e-02	1.192649e+00	2.798114e+00	1.405093e-02	1.236304e+00	2.969453e+00	5.870938e-02	1.279061e+00	3.135288e+00	1.593951e-01	1.363944e+00	3.455115e+00	2.156370e-01	1.406904e+00	3.611366e+00	2.759426e-01	1.450533e+00	3.766215e+00	3.402775e-01	1.494860e+00	3.919928e+00	4.084342e-01	1.539756e+00	4.072336e+00	4.799699e-01	1.584926e+00	4.222810e+00	6.302958e-01	1.674363e+00	4.513817e+00	7.072658e-01	1.717662e+00	4.651958e+00	7.841067e-01	1.759383e+00	4.783648e+00	9.341834e-01	1.836959e+00	5.025045e+00	1.006498e+00	1.872715e+00	5.134619e+00	1.146980e+00	1.940007e+00	5.336170e+00	1.215324e+00	1.972068e+00	5.429220e+00	1.331715e+00	2.025292e+00	5.580850e+00
8             	-2.886997e-02	9.098390e-02	1.119788e-01	-6.265516e-02	1.401461e-01	2.809012e-01	-8.182188e-02	1.701626e-01	3.962357e-01	-9.335596e-02	1.942402e-01	4.821144e-01	-9.962692e-02	2.125963e-01	5.420015e-01	-1.041334e-01	2.312699e-01	6.045957e-01	-1.087611e-01	2.701649e-01	7.533192e-01	-1.087611e-01	2.701649e-01	7.533192e-01	-1.071563e-01	3.144707e-01	9.272948e-01	-1.001062e-01	3.566530e-01	1.088682e+00	-8.975514e-02	3.921680e-01	1.221960e+00	-7.769102e-02	4.213535e-01	1.330515e+00	-6.415769e-02	4.466177e-01	1.424486e+00	-4.953991e-02	4.690465e-01	1.507323e+00	-3.399301e-02	4.896634e-01	1.581840e+00	-1.765328e-02	5.091631e-01	1.649736e+00	-6.371715e-04	5.279868e-01	1.712163e+00	3.517628e-02	5.645245e-01	1.824206e+00	5.420083e-02	5.825285e-01	1.876082e+00	7.397950e-02	6.002600e-01	1.925913e+00	9.429057e-02	6.174469e-01	1.973555e+00	1.146952e-01	6.337093e-01	2.018402e+00	1.346196e-01	6.486508e-01	2.059660e+00	1.704272e-01	6.731813e-01	2.128203e+00	1.852699e-01	6.824000e-01	2.154599e+00	1.977050e-01	6.895938e-01	2.175784e+00	2.161181e-01	6.990317e-01	2.205471e+00	2.232267e-01	7.021942e-01	2.216334e+00	2.362724e-01	7.074434e-01	2.235316e+00	2.442847e-01	7.107228e-01	2.246353e+00	2.859822e-01	7.299758e-01	2.300627e+00
9             	-1.913471e-02	-8.819547e-02	1.135360e-01	-2.714005e-02	-1.407942e-01	1.691819e-01	-2.106276e-02	-1.847582e-01	1.408623e-01	-1.377521e-02	-2.161937e-01	9.026342e-02	-6.907074e-03	-2.414849e-01	2.505848e-02	-1.803719e-03	-2.642843e-01	-4.293872e-02	-7.230108e-04	-2.759116e-01	-6.510569e-02	-7.230108e-04	-2.759116e-01	-6.510569e-02	-2.072044e-04	-2.651649e-01	-1.182062e-02	1.420446e-03	-2.565942e-01	2.457229e-02	2.134787e-03	-2.539378e-01	3.298036e-02	4.503601e-04	-2.569787e-01	1.697537e-02	-3.847065e-03	-2.635064e-01	-1.372866e-02	-1.101105e-02	-2.724138e-01	-5.527960e-02	-2.090294e-02	-2.825650e-01	-1.038306e-01	-3.339647e-02	-2.933297e-01	-1.571577e-01	-4.835030e-02	-3.043980e-01	-2.137500e-01	-8.506199e-02	-3.272681e-01	-3.326888e-01	-1.066116e-01	-3.393503e-01	-3.938386e-01	-1.302632e-01	-3.522024e-01	-4.557981e-01	-1.562291e-01	-3.661776e-01	-5.189560e-01	-1.848926e-01	-3.816453e-01	-5.840215e-01	-2.166460e-01	-3.988736e-01	-6.516146e-01	-2.906188e-01	-4.390637e-01	-7.957543e-01	-3.327889e-01	-4.617500e-01	-8.717368e-01	-3.778561e-01	-4.856745e-01	-9.491340e-01	-4.733477e-01	-5.350678e-01	-1.102667e+00	-5.214816e-01	-5.592505e-01	-1.175505e+00	-6.154500e-01	-6.054342e-01	-1.310005e+00	-6.626809e-01	-6.285691e-01	-1.374050e+00	-7.078086e-01	-6.504158e-01	-1.432554e+00
10            	-1.189548e-02	-1.096305e-01	8.458562e-02	-4.522958e-03	-1.777316e-01	6.130389e-02	9.081810e-03	-2.255974e-01	-1.408991e-02	2.014635e-02	-2.595655e-01	-9.426073e-02	2.972547e-02	-2.889200e-01	-1.864939e-01	3.684314e-02	-3.173269e-01	-2.827431e-01	3.908951e-02	-3.374882e-01	-3.397057e-01	3.908951e-02	-3.374882e-01	-3.397057e-01	3.933902e-02	-3.344398e-01	-3.159183e-01	3.961349e-02	-3.341120e-01	-3.106447e-01	3.801136e-02	-3.394672e-01	-3.321500e-01	3.310912e-02	-3.503763e-01	-3.771702e-01	2.465062e-02	-3.648299e-01	-4.367938e-01	1.265947e-02	-3.813774e-01	-5.056923e-01	-2.485982e-03	-3.987946e-01	-5.793878e-01	-2.038182e-02	-4.164182e-01	-6.550863e-01	-4.067492e-02	-4.339963e-01	-7.311298e-01	-8.724750e-02	-4.690566e-01	-8.804623e-01	-1.131526e-01	-4.868867e-01	-9.530597e-01	-1.407316e-01	-5.052236e-01	-1.024391e+00	-1.701598e-01	-5.243136e-01	-1.095086e+00	-2.017032e-01	-5.443460e-01	-1.165873e+00	-2.355506e-01	-5.653714e-01	-1.237204e+00	-3.103120e-01	-6.100721e-01	-1.381852e+00	-3.507446e-01	-6.332658e-01	-1.454316e+00	-3.925131e-01	-6.565464e-01	-1.525750e+00	-4.773888e-01	-7.019730e-01	-1.661841e+00	-5.189040e-01	-7.233978e-01	-1.724511e+00	-5.967724e-01	-7.626063e-01	-1.835750e+00	-6.360723e-01	-7.824600e-01	-1.888878e+00	-6.817905e-01	-8.065302e-01	-1.947664e+00
11            	-1.139005e-02	-2.560943e-02	5.962068e-02	-6.985840e-03	-3.829490e-02	3.857619e-02	-4.789526e-03	-3.656250e-02	2.433758e-02	-3.424516e-03	-3.427824e-02	1.246854e-02	-3.734785e-04	-3.757067e-02	-1.866523e-02	1.902012e-03	-4.261183e-02	-4.980638e-02	1.062720e-03	-3.430380e-02	-1.319829e-02	1.062720e-03	-3.430380e-02	-1.319829e-02	1.837256e-03	-1.469300e-02	6.869988e-02	4.557017e-03	1.000810e-03	1.304616e-01	7.298765e-03	1.044374e-02	1.653787e-01	8.535082e-03	1.370306e-02	1.761254e-01	7.971901e-03	1.292153e-02	1.718893e-01	5.886560e-03	1.004621e-02	1.597745e-01	2.872327e-03	6.503218e-03	1.450314e-01	-5.127812e-04	3.010552e-03	1.306768e-01	-3.867107e-03	-2.075452e-04	1.181250e-01	-9.503292e-03	-5.932411e-03	1.002423e-01	-1.156441e-02	-8.668499e-03	9.477899e-02	-1.309918e-02	-1.143763e-02	9.124508e-02	-1.425894e-02	-1.429172e-02	8.899576e-02	-1.525534e-02	-1.722654e-02	8.735584e-02	-1.621662e-02	-2.014857e-02	8.593707e-02	-1.821462e-02	-2.552571e-02	8.316908e-02	-1.917198e-02	-2.780598e-02	8.191064e-02	-1.997381e-02	-2.974471e-02	8.093420e-02	-2.098077e-02	-3.274652e-02	7.996469e-02	-2.091459e-02	-3.377217e-02	8.034645e-02	-1.731189e-02	-3.386134e-02	8.596584e-02	-1.618470e-02	-3.442826e-02	8.779362e-02	-1.326091e-02	-3.543578e-02	9.221878e-02
12            	-1.458794e-02	4.196679e-02	5.682270e-02	-2.280424e-02	8.357815e-02	9.059764e-02	-3.610842e-02	1.281498e-01	1.651377e-01	-4.498929e-02	1.593284e-01	2.277280e-01	-4.881586e-02	1.780795e-01	2.623472e-01	-5.170126e-02	1.944494e-01	3.015220e-01	-5.593820e-02	2.318837e-01	4.418703e-01	-5.593820e-02	2.318837e-01	4.418703e-01	-5.458163e-02	2.693154e-01	5.883574e-01	-4.911971e-02	3.021525e-01	7.134549e-01	-4.161325e-02	3.280262e-01	8.101787e-01	-3.376234e-02	3.469362e-01	8.808963e-01	-2.581008e-02	3.614406e-01	9.362395e-01	-1.723889e-02	3.739739e-01	9.850128e-01	-7.329194e-03	3.860845e-01	1.032832e+00	4.483013e-03	3.984601e-01	1.082430e+00	1.847797e-02	4.112346e-01	1.134560e+00	5.310430e-02	4.376143e-01	1.245177e+00	7.350693e-02	4.510234e-01	1.302445e+00	9.574482e-02	4.645541e-01	1.360234e+00	1.195536e-01	4.782368e-01	1.417852e+00	1.446624e-01	4.921329e-01	1.474710e+00	1.708856e-01	5.063247e-01	1.530506e+00	2.260671e-01	5.356279e-01	1.638269e+00	2.547039e-01	5.505573e-01	1.689981e+00	2.837993e-01	5.654705e-01	1.740081e+00	3.426303e-01	5.946483e-01	1.835012e+00	3.721675e-01	6.087762e-01	1.879895e+00	4.322539e-01	6.366331e-01	1.966321e+00	4.619853e-01	6.499695e-01	2.006964e+00	5.096727e-01	6.698831e-01	2.069495e+00
13            	-1.776149e-02	4.072483e-02	7.235891e-02	-3.595547e-02	9.163948e-02	1.580019e-01	-5.488951e-02	1.359124e-01	2.683240e-01	-6.496880e-02	1.630128e-01	3.414092e-01	-6.958577e-02	1.800895e-01	3.847367e-01	-7.345189e-02	1.974173e-01	4.381319e-01	-7.851345e-02	2.400173e-01	6.049275e-01	-7.851345e-02	2.400173e-01	6.049275e-01	-7.705869e-02	2.801093e-01	7.625598e-01	-7.118636e-02	3.155372e-01	8.972084e-01	-6.314616e-02	3.434671e-01	1.000837e+00	-5.472998e-02	3.640065e-01	1.076632e+00	-4.600062e-02	3.802628e-01	1.137341e+00	-3.622860e-02	3.949746e-01	1.192876e+00	-2.467862e-02	4.096142e-01	1.248504e+00	-1.091338e-02	4.246957e-01	1.306155e+00	5.115819e-03	4.401724e-01	1.365657e+00	4.295903e-02	4.714490e-01	1.486026e+00	6.406988e-02	4.869359e-01	1.544858e+00	8.614486e-02	5.022328e-01	1.601730e+00	1.087672e-01	5.173030e-01	1.655924e+00	1.315772e-01	5.321264e-01	1.706988e+00	1.543338e-01	5.466887e-01	1.754805e+00	1.991669e-01	5.748266e-01	1.841246e+00	2.211775e-01	5.882511e-01	1.880468e+00	2.429592e-01	6.011609e-01	1.917505e+00	2.860324e-01	6.253483e-01	1.986257e+00	3.072736e-01	6.365813e-01	2.018246e+00	3.485105e-01	6.571332e-01	2.077193e+00	3.687505e-01	6.667298e-01	2.104722e+00	3.997704e-01	6.803342e-01	2.145205e+00
14            	-1.944197e-02	1.914441e-03	9.077934e-02	-3.938094e-02	2.732421e-02	1.922810e-01	-5.250364e-02	4.092997e-02	2.724544e-01	-5.639394e-02	4.431262e-02	3.021424e-01	-5.728879e-02	4.571743e-02	3.110050e-01	-5.876891e-02	5.036355e-02	3.326570e-01	-6.243804e-02	7.931681e-02	4.584341e-01	-6.243804e-02	7.931681e-02	4.584341e-01	-6.128553e-02	1.099415e-01	5.828761e-01	-5.688824e-02	1.362382e-01	6.835696e-01	-5.164991e-02	1.547160e-01	7.508708e-01	-4.732764e-02	1.657804e-01	7.895506e-01	-4.371945e-02	1.730763e-01	8.144120e-01	-3.994593e-02	1.794106e-01	8.356276e-01	-3.533771e-02	1.860261e-01	8.575754e-01	-2.964276e-02	1.931863e-01	8.811505e-01	-2.305562e-02	2.006330e-01	9.052879e-01	-9.092259e-03	2.149742e-01	9.490301e-01	-2.699778e-03	2.213921e-01	9.663658e-01	2.718839e-03	2.271266e-01	9.797808e-01	6.778713e-03	2.320814e-01	9.888902e-01	9.228888e-03	2.361955e-01	9.936867e-01	1.001104e-02	2.394519e-01	9.945798e-01	7.098239e-03	2.434647e-01	9.874521e-01	3.939317e-03	2.443332e-01	9.810658e-01	1.034781e-04	2.445705e-01	9.738638e-01	-8.544325e-03	2.435400e-01	9.590332e-01	-1.310952e-02	2.423972e-01	9.518142e-01	-2.332418e-02	2.386329e-01	9.368671e-01	-2.836357e-02	2.364161e-01	9.299655e-01	-4.010948e-02	2.304277e-01	9.148390e-01
15            	-1.939163e-02	-2.190030e-02	9.677305e-02	-3.450089e-02	-2.379286e-02	1.787851e-01	-3.811214e-02	-3.653592e-02	2.043238e-01	-3.606836e-02	-4.880176e-02	1.908256e-01	-3.387037e-02	-5.722081e-02	1.702428e-01	-3.318388e-02	-6.167836e-02	1.624008e-01	-3.535680e-02	-4.553123e-02	2.429355e-01	-3.535680e-02	-4.553123e-02	2.429355e-01	-3.450551e-02	-2.393186e-02	3.342544e-01	-3.151505e-02	-6.313956e-03	4.025507e-01	-2.887050e-02	3.241465e-03	4.362710e-01	-2.820734e-02	5.545298e-03	4.418594e-01	-2.909424e-02	4.608920e-03	4.353570e-01	-3.061307e-02	3.116630e-03	4.264114e-01	-3.220128e-02	2.069754e-03	4.184288e-01	-3.376314e-02	1.540295e-03	4.115137e-01	-3.564354e-02	1.141661e-03	4.041076e-01	-4.253566e-02	-9.139829e-04	3.813152e-01	-4.845836e-02	-3.074915e-03	3.641940e-01	-5.642850e-02	-6.156082e-03	3.429791e-01	-6.658832e-02	-1.020933e-02	3.178879e-01	-7.889237e-02	-1.522675e-02	2.895231e-01	-9.310406e-02	-2.114486e-02	2.587897e-01	-1.257458e-01	-3.526039e-02	1.941870e-01	-1.433144e-01	-4.317665e-02	1.621177e-01	-1.611774e-01	-5.145571e-02	1.311151e-01	-1.969635e-01	-6.865984e-02	7.320703e-02	-2.147390e-01	-7.743108e-02	4.626424e-02	-2.503474e-01	-9.529022e-02	-4.601701e-03	-2.676337e-01	-1.040782e-01	-2.795646e-02	-2.992457e-01	-1.206563e-01	-6.850621e-02
16            	-1.869642e-02	-1.781172e-02	9.215133e-02	-2.879361e-02	-2.656093e-02	1.484602e-01	-2.785540e-02	-4.039194e-02	1.453753e-01	-2.568396e-02	-4.716346e-02	1.297714e-01	-2.410815e-02	-5.102487e-02	1.144741e-01	-2.365111e-02	-5.280109e-02	1.092876e-01	-2.566392e-02	-3.681912e-02	1.837749e-01	-2.566392e-02	-3.681912e-02	1.837749e-01	-2.484887e-02	-1.588636e-02	2.712281e-01	-2.195950e-02	1.183352e-03	3.372312e-01	-1.954631e-02	9.819420e-03	3.680234e-01	-1.912436e-02	1.127727e-02	3.715316e-01	-2.014856e-02	9.742505e-03	3.641856e-01	-2.177122e-02	7.702370e-03	3.547684e-01	-2.353999e-02	6.014395e-03	3.460353e-01	-2.544206e-02	4.696646e-03	3.378117e-01	-2.784064e-02	3.372481e-03	3.285984e-01	-3.592663e-02	-7.058869e-04	3.022698e-01	-4.213809e-02	-3.797467e-03	2.845373e-01	-4.984939e-02	-7.631953e-03	2.642401e-01	-5.891642e-02	-1.216127e-02	2.420911e-01	-6.904046e-02	-1.728698e-02	2.190175e-01	-7.982548e-02	-2.288408e-02	1.959887e-01	-1.018777e-01	-3.501922e-02	1.529916e-01	-1.125685e-01	-4.133027e-02	1.338751e-01	-1.228200e-01	-4.766870e-02	1.165061e-01	-1.423237e-01	-6.030101e-02	8.580844e-02	-1.518802e-01	-6.655960e-02	7.173574e-02	-1.707810e-01	-7.869178e-02	4.544389e-02	-1.797264e-01	-8.435000e-02	3.365529e-02	-1.956442e-01	-9.474231e-02	1.379305e-02
17            	-1.859696e-02	-3.187673e-03	8.758464e-02	-2.749739e-02	-1.470106e-03	1.346049e-01	-2.923631e-02	2.452322e-03	1.448201e-01	-3.179772e-02	1.264042e-02	1.628241e-01	-3.324911e-02	1.989491e-02	1.759373e-01	-3.461064e-02	2.676494e-02	1.952408e-01	-3.748425e-02	5.084113e-02	2.938998e-01	-3.748425e-02	5.084113e-02	2.938998e-01	-3.651334e-02	7.687944e-02	3.987541e-01	-3.278484e-02	9.922526e-02	4.841422e-01	-2.893528e-02	1.127250e-01	5.336050e-01	-2.640790e-02	1.190125e-01	5.562546e-01	-2.465867e-02	1.222894e-01	5.683628e-01	-2.296039e-02	1.248699e-01	5.779704e-01	-2.093973e-02	1.275817e-01	5.876318e-01	-1.859292e-02	1.304981e-01	5.973413e-01	-1.620403e-02	1.333460e-01	6.060392e-01	-1.238658e-02	1.379184e-01	6.178532e-01	-1.103546e-02	1.395315e-01	6.214334e-01	-9.836314e-03	1.407729e-01	6.243969e-01	-8.503457e-03	1.417522e-01	6.275522e-01	-6.694040e-03	1.425978e-01	6.316804e-01	-4.098416e-03	1.434221e-01	6.373500e-01	4.004673e-03	1.452406e-01	6.537808e-01	9.383852e-03	1.462510e-01	6.639707e-01	1.535438e-02	1.473046e-01	6.747856e-01	2.778998e-02	1.494253e-01	6.959336e-01	3.365242e-02	1.504334e-01	7.053212e-01	4.438445e-02	1.525761e-01	7.215267e-01	4.950520e-02	1.538420e-01	7.288024e-01	5.840326e-02	1.560451e-01	7.408824e-01
18            	-1.897205e-02	3.140331e-04	8.841346e-02	-3.006069e-02	1.462118e-02	1.441212e-01	-3.776154e-02	3.554739e-02	1.887693e-01	-4.497551e-02	5.659844e-02	2.409735e-01	-4.860140e-02	6.941935e-02	2.750421e-01	-5.125492e-02	8.100080e-02	3.121451e-01	-5.490081e-02	1.112734e-01	4.330704e-01	-5.490081e-02	1.112734e-01	4.330704e-01	-5.379844e-02	1.413970e-01	5.527024e-01	-4.934957e-02	1.682441e-01	6.547359e-01	-4.429410e-02	1.859466e-01	7.198395e-01	-4.003248e-02	1.964337e-01	7.581926e-01	-3.606629e-02	2.038434e-01	7.857711e-01	-3.176480e-02	2.103783e-01	8.101994e-01	-2.678289e-02	2.168945e-01	8.341347e-01	-2.107351e-02	2.235508e-01	8.579307e-01	-1.480522e-02	2.301846e-01	8.810329e-01	-1.052474e-03	2.428471e-01	9.244405e-01	6.606389e-03	2.488764e-01	9.456656e-01	1.505657e-02	2.547984e-01	9.674110e-01	2.451042e-02	2.606986e-01	9.901601e-01	3.513885e-02	2.666554e-01	1.014204e+00	4.699044e-02	2.727081e-01	1.039516e+00	7.363710e-02	2.849753e-01	1.092032e+00	8.771170e-02	2.910397e-01	1.117787e+00	1.017395e-01	2.969676e-01	1.142278e+00	1.282767e-01	3.082618e-01	1.185622e+00	1.403054e-01	3.135600e-01	1.204021e+00	1.619259e-01	3.235627e-01	1.235148e+00	1.718437e-01	3.283485e-01	1.248615e+00	1.893325e-01	3.368808e-01	1.271215e+00
19            	-1.918155e-02	-9.513629e-03	9.214963e-02	-3.298968e-02	9.382386e-03	1.615258e-01	-4.470862e-02	3.383446e-02	2.311200e-01	-5.278318e-02	5.172002e-02	2.906409e-01	-5.608215e-02	6.076088e-02	3.222567e-01	-5.856505e-02	7.007799e-02	3.575229e-01	-6.220395e-02	9.914930e-02	4.773586e-01	-6.220395e-02	9.914930e-02	4.773586e-01	-6.112174e-02	1.286077e-01	5.950437e-01	-5.667401e-02	1.554543e-01	6.970799e-01	-5.169882e-02	1.729976e-01	7.611302e-01	-4.754933e-02	1.834140e-01	7.984265e-01	-4.375497e-02	1.907728e-01	8.247388e-01	-3.972179e-02	1.972215e-01	8.475554e-01	-3.508375e-02	2.036537e-01	8.697383e-01	-2.972238e-02	2.102938e-01	8.919778e-01	-2.369934e-02	2.170465e-01	9.140743e-01	-9.819214e-03	2.304359e-01	9.576869e-01	-1.815966e-03	2.370090e-01	9.797955e-01	6.995819e-03	2.435006e-01	1.002389e+00	1.660589e-02	2.499065e-01	1.025406e+00	2.691380e-02	2.562110e-01	1.048584e+00	3.769164e-02	2.623708e-01	1.071427e+00	5.915607e-02	2.739520e-01	1.113324e+00	6.901931e-02	2.792263e-01	1.131096e+00	7.786988e-02	2.841028e-01	1.146242e+00	9.199112e-02	2.926650e-01	1.168649e+00	9.731311e-02	2.963747e-01	1.176422e+00	1.054198e-01	3.027698e-01	1.187393e+00	1.087273e-01	3.055166e-01	1.191575e+00	1.148856e-01	3.101853e-01	1.199080e+00
20            	-1.909208e-02	-2.188893e-02	9.518152e-02	-3.408942e-02	-5.834830e-03	1.717650e-01	-4.579471e-02	1.065725e-02	2.429722e-01	-5.124559e-02	1.746922e-02	2.841206e-01	-5.276615e-02	1.939770e-02	2.992830e-01	-5.431722e-02	2.402984e-02	3.221097e-01	-5.740888e-02	4.764629e-02	4.241911e-01	-5.740888e-02	4.764629e-02	4.241911e-01	-5.644820e-02	7.346952e-02	5.287255e-01	-5.246197e-02	9.746183e-02	6.201441e-01	-4.836570e-02	1.120461e-01	6.728010e-01	-4.546111e-02	1.196017e-01	6.988047e-01	-4.328392e-02	1.241487e-01	7.137879e-01	-4.123045e-02	1.278287e-01	7.252744e-01	-3.888584e-02	1.315730e-01	7.363362e-01	-3.605311e-02	1.356539e-01	7.479171e-01	-3.271487e-02	1.400066e-01	7.599879e-01	-2.467385e-02	1.489291e-01	7.849133e-01	-2.005241e-02	1.532589e-01	7.975303e-01	-1.519667e-02	1.573615e-01	8.098341e-01	-1.034612e-02	1.611405e-01	8.213003e-01	-5.807843e-03	1.645100e-01	8.313410e-01	-1.945042e-03	1.673907e-01	8.393425e-01	2.332234e-03	1.714636e-01	8.472779e-01	2.288043e-03	1.726405e-01	8.468713e-01	7.302396e-04	1.732892e-01	8.437962e-01	-6.263482e-03	1.732215e-01	8.316298e-01	-1.105979e-02	1.726508e-01	8.238766e-01	-2.149782e-02	1.706805e-01	8.080889e-01	-2.652799e-02	1.693442e-01	8.009649e-01	-3.433940e-02	1.664286e-01	7.906208e-01