/*--------------------------------*- C++ -*----------------------------------*\
  =========                 |
  \\      /  F ield         | OpenFOAM: The Open Source CFD Toolbox
   \\    /   O peration     | Website:  https://openfoam.org
    \\  /    A nd           | Version:  7
     \\/     M anipulation  |
\*---------------------------------------------------------------------------*/
FoamFile
{
    version     2.0;
    format      ascii;
    class       volScalarField;
    location    "2000";
    object      nut;
}
// * * * * * * * * * * * * * * * * * * * * * * * * * * * * * * * * * * * * * //

dimensions      [0 2 -1 0 0 0 0];

internalField   nonuniform List<scalar> 
23117
(
5.21924e-06
5.21685e-06
5.23226e-06
5.2167e-06
5.23053e-06
5.24022e-06
5.21601e-06
5.22977e-06
5.23781e-06
5.24172e-06
5.21569e-06
5.22883e-06
5.23629e-06
5.23719e-06
5.23568e-06
5.2154e-06
5.22806e-06
5.23451e-06
5.23461e-06
5.23001e-06
5.22794e-06
5.21517e-06
5.22724e-06
5.23267e-06
5.23162e-06
5.22754e-06
5.22487e-06
5.22729e-06
5.21497e-06
5.2264e-06
5.23074e-06
5.22885e-06
5.22505e-06
5.22479e-06
5.22794e-06
5.23102e-06
5.21479e-06
5.22551e-06
5.22876e-06
5.22627e-06
5.22339e-06
5.2249e-06
5.22868e-06
5.23115e-06
5.23136e-06
5.21461e-06
5.22455e-06
5.22677e-06
5.22402e-06
5.22243e-06
5.22539e-06
5.22912e-06
5.23047e-06
5.22897e-06
5.2277e-06
5.21443e-06
5.22354e-06
5.22481e-06
5.22216e-06
5.22215e-06
5.22599e-06
5.22922e-06
5.22939e-06
5.2273e-06
5.22503e-06
5.22561e-06
5.21423e-06
5.22246e-06
5.22293e-06
5.22074e-06
5.2224e-06
5.22656e-06
5.22889e-06
5.22796e-06
5.22559e-06
5.22447e-06
5.22524e-06
5.22682e-06
5.21401e-06
5.22133e-06
5.22118e-06
5.21979e-06
5.22282e-06
5.22694e-06
5.22818e-06
5.22637e-06
5.2242e-06
5.22404e-06
5.2254e-06
5.2269e-06
5.22757e-06
5.21377e-06
5.22017e-06
5.21962e-06
5.21932e-06
5.22337e-06
5.22705e-06
5.22716e-06
5.22479e-06
5.22324e-06
5.22392e-06
5.22544e-06
5.22637e-06
5.2261e-06
5.22533e-06
5.2135e-06
5.219e-06
5.2183e-06
5.21931e-06
5.22393e-06
5.22687e-06
5.22596e-06
5.22342e-06
5.22275e-06
5.22396e-06
5.22534e-06
5.22562e-06
5.22442e-06
5.22201e-06
5.22048e-06
5.21319e-06
5.21786e-06
5.21725e-06
5.21967e-06
5.2244e-06
5.22641e-06
5.22467e-06
5.22236e-06
5.22255e-06
5.22402e-06
5.22499e-06
5.2245e-06
5.22257e-06
5.21972e-06
5.21647e-06
5.21518e-06
5.21286e-06
5.21675e-06
5.2165e-06
5.22008e-06
5.22468e-06
5.22567e-06
5.2234e-06
5.22165e-06
5.22246e-06
5.22394e-06
5.22436e-06
5.22312e-06
5.22056e-06
5.21742e-06
5.2145e-06
5.21206e-06
5.21174e-06
5.2125e-06
5.21572e-06
5.21606e-06
5.22056e-06
5.22472e-06
5.22472e-06
5.22221e-06
5.22125e-06
5.22242e-06
5.22364e-06
5.22343e-06
5.22154e-06
5.21856e-06
5.21534e-06
5.21269e-06
5.21115e-06
5.21052e-06
5.21113e-06
5.21211e-06
5.21477e-06
5.21591e-06
5.22104e-06
5.22453e-06
5.22361e-06
5.22119e-06
5.22099e-06
5.22234e-06
5.22313e-06
5.22225e-06
5.21982e-06
5.21664e-06
5.21358e-06
5.2114e-06
5.21051e-06
5.21077e-06
5.21155e-06
5.21263e-06
5.21171e-06
5.21394e-06
5.21604e-06
5.22148e-06
5.22413e-06
5.22246e-06
5.22038e-06
5.22087e-06
5.2222e-06
5.22243e-06
5.2209e-06
5.21807e-06
5.21487e-06
5.21216e-06
5.2106e-06
5.21039e-06
5.21111e-06
5.21248e-06
5.21401e-06
5.21519e-06
5.21128e-06
5.21324e-06
5.2164e-06
5.22183e-06
5.22356e-06
5.22134e-06
5.21986e-06
5.22084e-06
5.22196e-06
5.22158e-06
5.21947e-06
5.21637e-06
5.21331e-06
5.2111e-06
5.2102e-06
5.21056e-06
5.21175e-06
5.21332e-06
5.21511e-06
5.21689e-06
5.21802e-06
5.21085e-06
5.21268e-06
5.21681e-06
5.22205e-06
5.22287e-06
5.22034e-06
5.2196e-06
5.22082e-06
5.22161e-06
5.22063e-06
5.21804e-06
5.2148e-06
5.21201e-06
5.21037e-06
5.2101e-06
5.21094e-06
5.21244e-06
5.21425e-06
5.21609e-06
5.21793e-06
5.21968e-06
5.22074e-06
5.21041e-06
5.21228e-06
5.21726e-06
5.22212e-06
5.22209e-06
5.21951e-06
5.21941e-06
5.22075e-06
5.22112e-06
5.21959e-06
5.21667e-06
5.21343e-06
5.21099e-06
5.20996e-06
5.21026e-06
5.21147e-06
5.21319e-06
5.21512e-06
5.21706e-06
5.21887e-06
5.22061e-06
5.22223e-06
5.22323e-06
5.20999e-06
5.21204e-06
5.2177e-06
5.22203e-06
5.22125e-06
5.21885e-06
5.21926e-06
5.22057e-06
5.22048e-06
5.21849e-06
5.21536e-06
5.21227e-06
5.21029e-06
5.20986e-06
5.21062e-06
5.2121e-06
5.21396e-06
5.21594e-06
5.2179e-06
5.21975e-06
5.22144e-06
5.22303e-06
5.2245e-06
5.22546e-06
5.20958e-06
5.21196e-06
5.21811e-06
5.22179e-06
5.22038e-06
5.21836e-06
5.21914e-06
5.22026e-06
5.21971e-06
5.21735e-06
5.21416e-06
5.21132e-06
5.20986e-06
5.20995e-06
5.2111e-06
5.2128e-06
5.21474e-06
5.21673e-06
5.21866e-06
5.22049e-06
5.22219e-06
5.22373e-06
5.2252e-06
5.22653e-06
5.22747e-06
5.20919e-06
5.21205e-06
5.21849e-06
5.22141e-06
5.2195e-06
5.21802e-06
5.21902e-06
5.21984e-06
5.21883e-06
5.2162e-06
5.21307e-06
5.21058e-06
5.20965e-06
5.21018e-06
5.21162e-06
5.2135e-06
5.2155e-06
5.21747e-06
5.21936e-06
5.22115e-06
5.22282e-06
5.22437e-06
5.22578e-06
5.22715e-06
5.22837e-06
5.22928e-06
5.20883e-06
5.21229e-06
5.2188e-06
5.22091e-06
5.21866e-06
5.21779e-06
5.21891e-06
5.21935e-06
5.2179e-06
5.21508e-06
5.2121e-06
5.21003e-06
5.20959e-06
5.21049e-06
5.21216e-06
5.21415e-06
5.2162e-06
5.21816e-06
5.22001e-06
5.22174e-06
5.22337e-06
5.2249e-06
5.22632e-06
5.22763e-06
5.22892e-06
5.23004e-06
5.23095e-06
5.20852e-06
5.21266e-06
5.21904e-06
5.22034e-06
5.21791e-06
5.21763e-06
5.21878e-06
5.21882e-06
5.21697e-06
5.21402e-06
5.21127e-06
5.20965e-06
5.20964e-06
5.21084e-06
5.21268e-06
5.21475e-06
5.21682e-06
5.21878e-06
5.22059e-06
5.22227e-06
5.22385e-06
5.22535e-06
5.22676e-06
5.22809e-06
5.22932e-06
5.23055e-06
5.23159e-06
5.23249e-06
5.20824e-06
5.2131e-06
5.2192e-06
5.21972e-06
5.21728e-06
5.21752e-06
5.21863e-06
5.21826e-06
5.21607e-06
5.21306e-06
5.21056e-06
5.20941e-06
5.2098e-06
5.21124e-06
5.21319e-06
5.21529e-06
5.21736e-06
5.2193e-06
5.2211e-06
5.22275e-06
5.22429e-06
5.22575e-06
5.22714e-06
5.22846e-06
5.22972e-06
5.23088e-06
5.23206e-06
5.23303e-06
5.23392e-06
5.20802e-06
5.21353e-06
5.21926e-06
5.21909e-06
5.2168e-06
5.21742e-06
5.21842e-06
5.21768e-06
5.21522e-06
5.21221e-06
5.21e-06
5.20931e-06
5.21004e-06
5.21167e-06
5.2137e-06
5.21581e-06
5.21784e-06
5.21975e-06
5.22153e-06
5.22317e-06
5.22468e-06
5.22611e-06
5.22747e-06
5.22878e-06
5.23003e-06
5.23123e-06
5.23234e-06
5.23347e-06
5.23438e-06
5.23526e-06
5.20784e-06
5.21394e-06
5.21922e-06
5.21844e-06
5.21645e-06
5.21731e-06
5.21812e-06
5.21706e-06
5.21442e-06
5.21149e-06
5.20958e-06
5.20934e-06
5.21036e-06
5.21212e-06
5.21419e-06
5.21629e-06
5.21828e-06
5.22014e-06
5.22188e-06
5.22351e-06
5.22502e-06
5.22644e-06
5.22777e-06
5.22906e-06
5.2303e-06
5.23149e-06
5.23263e-06
5.2337e-06
5.23479e-06
5.23565e-06
5.23652e-06
5.20772e-06
5.21434e-06
5.21908e-06
5.21779e-06
5.2162e-06
5.21717e-06
5.21774e-06
5.21639e-06
5.21367e-06
5.21088e-06
5.20932e-06
5.20945e-06
5.21071e-06
5.21258e-06
5.21466e-06
5.21673e-06
5.21869e-06
5.2205e-06
5.22219e-06
5.22379e-06
5.2253e-06
5.22672e-06
5.22805e-06
5.22931e-06
5.23053e-06
5.23172e-06
5.23286e-06
5.23396e-06
5.23497e-06
5.23603e-06
5.23684e-06
5.23771e-06
5.20767e-06
5.21472e-06
5.21886e-06
5.21715e-06
5.21597e-06
5.21701e-06
5.21729e-06
5.2157e-06
5.21295e-06
5.21038e-06
5.20917e-06
5.20961e-06
5.21108e-06
5.21303e-06
5.2151e-06
5.21714e-06
5.21905e-06
5.22082e-06
5.22247e-06
5.22403e-06
5.22552e-06
5.22694e-06
5.22828e-06
5.22954e-06
5.23075e-06
5.23191e-06
5.23305e-06
5.23414e-06
5.23519e-06
5.23617e-06
5.2372e-06
5.23796e-06
5.23882e-06
5.20767e-06
5.21506e-06
5.21856e-06
5.21653e-06
5.21579e-06
5.21683e-06
5.21682e-06
5.21499e-06
5.21226e-06
5.20996e-06
5.20907e-06
5.20978e-06
5.21143e-06
5.21345e-06
5.21551e-06
5.21751e-06
5.21938e-06
5.22112e-06
5.22273e-06
5.22425e-06
5.2257e-06
5.22711e-06
5.22846e-06
5.22974e-06
5.23094e-06
5.23209e-06
5.23321e-06
5.2343e-06
5.23535e-06
5.23636e-06
5.2373e-06
5.23829e-06
5.23901e-06
5.23986e-06
5.20774e-06
5.21538e-06
5.21821e-06
5.21596e-06
5.21565e-06
5.21666e-06
5.21634e-06
5.21431e-06
5.21162e-06
5.2096e-06
5.20903e-06
5.20997e-06
5.21175e-06
5.21383e-06
5.21589e-06
5.21784e-06
5.21966e-06
5.22137e-06
5.22296e-06
5.22445e-06
5.22587e-06
5.22725e-06
5.22859e-06
5.22988e-06
5.2311e-06
5.23225e-06
5.23335e-06
5.23442e-06
5.23546e-06
5.23647e-06
5.23745e-06
5.23835e-06
5.23931e-06
5.23999e-06
5.24085e-06
5.20787e-06
5.21566e-06
5.21781e-06
5.21546e-06
5.21554e-06
5.21648e-06
5.21588e-06
5.21368e-06
5.21104e-06
5.20929e-06
5.20904e-06
5.21017e-06
5.21205e-06
5.21416e-06
5.21622e-06
5.21814e-06
5.21992e-06
5.22159e-06
5.22317e-06
5.22465e-06
5.22604e-06
5.22738e-06
5.22869e-06
5.22998e-06
5.23121e-06
5.23238e-06
5.23347e-06
5.23452e-06
5.23555e-06
5.23656e-06
5.23753e-06
5.23847e-06
5.23934e-06
5.24028e-06
5.24092e-06
5.24177e-06
5.20807e-06
5.21589e-06
5.21738e-06
5.21504e-06
5.21543e-06
5.21628e-06
5.21543e-06
5.2131e-06
5.21053e-06
5.20905e-06
5.20913e-06
5.21041e-06
5.21235e-06
5.21447e-06
5.21652e-06
5.2184e-06
5.22014e-06
5.22177e-06
5.22333e-06
5.22481e-06
5.2262e-06
5.22751e-06
5.22879e-06
5.23004e-06
5.23128e-06
5.23246e-06
5.23357e-06
5.23462e-06
5.23563e-06
5.23662e-06
5.23759e-06
5.23853e-06
5.23944e-06
5.24028e-06
5.24118e-06
5.24179e-06
5.24264e-06
5.20835e-06
5.21608e-06
5.21693e-06
5.2147e-06
5.21532e-06
5.21604e-06
5.21498e-06
5.21258e-06
5.21012e-06
5.20889e-06
5.20926e-06
5.21069e-06
5.21265e-06
5.21474e-06
5.21677e-06
5.21864e-06
5.22034e-06
5.22193e-06
5.22346e-06
5.22493e-06
5.22633e-06
5.22764e-06
5.22889e-06
5.2301e-06
5.23131e-06
5.23249e-06
5.23363e-06
5.23469e-06
5.23569e-06
5.23666e-06
5.23762e-06
5.23855e-06
5.23946e-06
5.24034e-06
5.24115e-06
5.24204e-06
5.24261e-06
5.24346e-06
5.20873e-06
5.21622e-06
5.21646e-06
5.21443e-06
5.21521e-06
5.21576e-06
5.21452e-06
5.2121e-06
5.20978e-06
5.20882e-06
5.20943e-06
5.21099e-06
5.21296e-06
5.21501e-06
5.21699e-06
5.21884e-06
5.22052e-06
5.22209e-06
5.22357e-06
5.22502e-06
5.22642e-06
5.22775e-06
5.22899e-06
5.23017e-06
5.23134e-06
5.23249e-06
5.23363e-06
5.23472e-06
5.23573e-06
5.2367e-06
5.23763e-06
5.23855e-06
5.23946e-06
5.24034e-06
5.24119e-06
5.24198e-06
5.24284e-06
5.24339e-06
5.24424e-06
5.20924e-06
5.21629e-06
5.21597e-06
5.21422e-06
5.21508e-06
5.21545e-06
5.21405e-06
5.21165e-06
5.2095e-06
5.20879e-06
5.20961e-06
5.21128e-06
5.21326e-06
5.21527e-06
5.2172e-06
5.21901e-06
5.22068e-06
5.22222e-06
5.22368e-06
5.22509e-06
5.22648e-06
5.22781e-06
5.22907e-06
5.23025e-06
5.23138e-06
5.23249e-06
5.2336e-06
5.2347e-06
5.23574e-06
5.23671e-06
5.23764e-06
5.23854e-06
5.23944e-06
5.24032e-06
5.24117e-06
5.24199e-06
5.24275e-06
5.2436e-06
5.24412e-06
5.24497e-06
5.2097e-06
5.21631e-06
5.21549e-06
5.21405e-06
5.21496e-06
5.21513e-06
5.21359e-06
5.21122e-06
5.20927e-06
5.20877e-06
5.20977e-06
5.21155e-06
5.21355e-06
5.21553e-06
5.21739e-06
5.21916e-06
5.22081e-06
5.22235e-06
5.22379e-06
5.22517e-06
5.22652e-06
5.22784e-06
5.22911e-06
5.23031e-06
5.23143e-06
5.2325e-06
5.23357e-06
5.23464e-06
5.2357e-06
5.2367e-06
5.23764e-06
5.23853e-06
5.2394e-06
5.24027e-06
5.24112e-06
5.24195e-06
5.24275e-06
5.24349e-06
5.24431e-06
5.24481e-06
5.24566e-06
5.21004e-06
5.21625e-06
5.21502e-06
5.21389e-06
5.21482e-06
5.2148e-06
5.21314e-06
5.21082e-06
5.20906e-06
5.20878e-06
5.20991e-06
5.21177e-06
5.21381e-06
5.21576e-06
5.21758e-06
5.21929e-06
5.22091e-06
5.22245e-06
5.22388e-06
5.22524e-06
5.22655e-06
5.22785e-06
5.22912e-06
5.23033e-06
5.23146e-06
5.23252e-06
5.23355e-06
5.23458e-06
5.23562e-06
5.23664e-06
5.2376e-06
5.2385e-06
5.23936e-06
5.24021e-06
5.24105e-06
5.24188e-06
5.24268e-06
5.24346e-06
5.24418e-06
5.24499e-06
5.24547e-06
5.24631e-06
5.21036e-06
5.21614e-06
5.21458e-06
5.21375e-06
5.21468e-06
5.21448e-06
5.21272e-06
5.21045e-06
5.20889e-06
5.20882e-06
5.21006e-06
5.21197e-06
5.21402e-06
5.21597e-06
5.21776e-06
5.21942e-06
5.221e-06
5.22252e-06
5.22396e-06
5.22532e-06
5.2266e-06
5.22785e-06
5.2291e-06
5.23031e-06
5.23147e-06
5.23254e-06
5.23355e-06
5.23454e-06
5.23554e-06
5.23654e-06
5.23752e-06
5.23845e-06
5.23931e-06
5.24015e-06
5.24097e-06
5.24179e-06
5.2426e-06
5.24338e-06
5.24414e-06
5.24484e-06
5.24563e-06
5.24609e-06
5.24693e-06
5.21066e-06
5.21598e-06
5.21417e-06
5.21361e-06
5.21453e-06
5.21417e-06
5.21233e-06
5.21012e-06
5.20874e-06
5.20888e-06
5.21023e-06
5.21215e-06
5.2142e-06
5.21615e-06
5.21792e-06
5.21954e-06
5.22109e-06
5.22258e-06
5.22402e-06
5.22537e-06
5.22665e-06
5.22787e-06
5.22907e-06
5.23026e-06
5.23143e-06
5.23253e-06
5.23355e-06
5.23451e-06
5.23546e-06
5.23643e-06
5.23741e-06
5.23836e-06
5.23925e-06
5.24008e-06
5.24089e-06
5.24169e-06
5.24249e-06
5.24328e-06
5.24403e-06
5.24478e-06
5.24546e-06
5.24624e-06
5.24667e-06
5.24752e-06
5.21092e-06
5.21579e-06
5.21378e-06
5.21349e-06
5.21436e-06
5.21385e-06
5.21197e-06
5.20983e-06
5.20863e-06
5.20898e-06
5.21041e-06
5.21234e-06
5.21437e-06
5.21629e-06
5.21805e-06
5.21966e-06
5.22117e-06
5.22263e-06
5.22405e-06
5.22541e-06
5.22669e-06
5.2279e-06
5.22906e-06
5.23021e-06
5.23136e-06
5.23247e-06
5.23352e-06
5.23449e-06
5.23542e-06
5.23634e-06
5.23728e-06
5.23822e-06
5.23914e-06
5.24e-06
5.2408e-06
5.24159e-06
5.24237e-06
5.24315e-06
5.24392e-06
5.24465e-06
5.24538e-06
5.24605e-06
5.24681e-06
5.24723e-06
5.24807e-06
5.21116e-06
5.21556e-06
5.21343e-06
5.21337e-06
5.21419e-06
5.21354e-06
5.21163e-06
5.20958e-06
5.20856e-06
5.20909e-06
5.21061e-06
5.21254e-06
5.21452e-06
5.21641e-06
5.21816e-06
5.21976e-06
5.22125e-06
5.22268e-06
5.22406e-06
5.22542e-06
5.22671e-06
5.22792e-06
5.22907e-06
5.23017e-06
5.23128e-06
5.23238e-06
5.23345e-06
5.23445e-06
5.23538e-06
5.23626e-06
5.23716e-06
5.23808e-06
5.23899e-06
5.23988e-06
5.2407e-06
5.24149e-06
5.24225e-06
5.24301e-06
5.24377e-06
5.24452e-06
5.24524e-06
5.24595e-06
5.2466e-06
5.24736e-06
5.24776e-06
5.24859e-06
5.21137e-06
5.21531e-06
5.21311e-06
5.21327e-06
5.21401e-06
5.21324e-06
5.21131e-06
5.20936e-06
5.20852e-06
5.20921e-06
5.21081e-06
5.21273e-06
5.21468e-06
5.21652e-06
5.21824e-06
5.21984e-06
5.22133e-06
5.22273e-06
5.22408e-06
5.22541e-06
5.2267e-06
5.22793e-06
5.22907e-06
5.23016e-06
5.23121e-06
5.23228e-06
5.23334e-06
5.23437e-06
5.23532e-06
5.23621e-06
5.23706e-06
5.23793e-06
5.23883e-06
5.23972e-06
5.24057e-06
5.24137e-06
5.24213e-06
5.24287e-06
5.24362e-06
5.24436e-06
5.24509e-06
5.2458e-06
5.24649e-06
5.24713e-06
5.24787e-06
5.24825e-06
5.24909e-06
5.21155e-06
5.21504e-06
5.21283e-06
5.21317e-06
5.21382e-06
5.21294e-06
5.21101e-06
5.20916e-06
5.20851e-06
5.20933e-06
5.21099e-06
5.21293e-06
5.21483e-06
5.21663e-06
5.21831e-06
5.2199e-06
5.22139e-06
5.22278e-06
5.22411e-06
5.2254e-06
5.22667e-06
5.2279e-06
5.22906e-06
5.23014e-06
5.23117e-06
5.23219e-06
5.23322e-06
5.23424e-06
5.23523e-06
5.23614e-06
5.23699e-06
5.23782e-06
5.23867e-06
5.23954e-06
5.24041e-06
5.24123e-06
5.242e-06
5.24274e-06
5.24346e-06
5.24419e-06
5.24492e-06
5.24563e-06
5.24632e-06
5.24701e-06
5.24763e-06
5.24836e-06
5.24873e-06
5.24956e-06
5.21171e-06
5.21475e-06
5.21258e-06
5.21307e-06
5.21363e-06
5.21266e-06
5.21074e-06
5.20899e-06
5.20851e-06
5.20945e-06
5.21116e-06
5.2131e-06
5.21498e-06
5.21674e-06
5.21838e-06
5.21994e-06
5.22142e-06
5.22282e-06
5.22414e-06
5.2254e-06
5.22663e-06
5.22785e-06
5.22902e-06
5.23012e-06
5.23115e-06
5.23213e-06
5.23311e-06
5.2341e-06
5.23509e-06
5.23604e-06
5.23691e-06
5.23773e-06
5.23853e-06
5.23936e-06
5.24021e-06
5.24105e-06
5.24185e-06
5.24259e-06
5.24331e-06
5.24402e-06
5.24474e-06
5.24545e-06
5.24615e-06
5.24682e-06
5.24749e-06
5.2481e-06
5.24882e-06
5.24918e-06
5.25001e-06
5.21184e-06
5.21445e-06
5.21237e-06
5.21297e-06
5.21344e-06
5.21239e-06
5.21049e-06
5.20885e-06
5.20852e-06
5.20956e-06
5.21131e-06
5.21325e-06
5.21512e-06
5.21685e-06
5.21845e-06
5.21998e-06
5.22145e-06
5.22284e-06
5.22416e-06
5.2254e-06
5.22661e-06
5.22779e-06
5.22895e-06
5.23007e-06
5.23111e-06
5.23209e-06
5.23303e-06
5.23397e-06
5.23494e-06
5.23589e-06
5.2368e-06
5.23764e-06
5.23842e-06
5.2392e-06
5.24001e-06
5.24084e-06
5.24166e-06
5.24243e-06
5.24315e-06
5.24385e-06
5.24455e-06
5.24525e-06
5.24595e-06
5.24663e-06
5.24729e-06
5.24795e-06
5.24855e-06
5.24926e-06
5.2496e-06
5.25044e-06
5.21195e-06
5.21415e-06
5.2122e-06
5.21288e-06
5.21325e-06
5.21213e-06
5.21026e-06
5.20873e-06
5.20855e-06
5.20967e-06
5.21145e-06
5.21339e-06
5.21524e-06
5.21695e-06
5.21853e-06
5.22002e-06
5.22146e-06
5.22285e-06
5.22417e-06
5.22541e-06
5.22659e-06
5.22774e-06
5.22887e-06
5.22999e-06
5.23105e-06
5.23204e-06
5.23297e-06
5.23387e-06
5.23479e-06
5.23572e-06
5.23665e-06
5.23752e-06
5.23832e-06
5.23908e-06
5.23984e-06
5.24063e-06
5.24144e-06
5.24223e-06
5.24298e-06
5.24368e-06
5.24436e-06
5.24504e-06
5.24573e-06
5.24642e-06
5.24709e-06
5.24774e-06
5.24839e-06
5.24897e-06
5.24968e-06
5.25e-06
5.25084e-06
5.21204e-06
5.21384e-06
5.21206e-06
5.21277e-06
5.21305e-06
5.21188e-06
5.21004e-06
5.20862e-06
5.20858e-06
5.20978e-06
5.21158e-06
5.2135e-06
5.21534e-06
5.21704e-06
5.2186e-06
5.22007e-06
5.22148e-06
5.22284e-06
5.22416e-06
5.22541e-06
5.22658e-06
5.2277e-06
5.2288e-06
5.22989e-06
5.23096e-06
5.23197e-06
5.23291e-06
5.23379e-06
5.23467e-06
5.23556e-06
5.23647e-06
5.23736e-06
5.23819e-06
5.23896e-06
5.23969e-06
5.24044e-06
5.24122e-06
5.24201e-06
5.24277e-06
5.24349e-06
5.24418e-06
5.24484e-06
5.24552e-06
5.24619e-06
5.24686e-06
5.24752e-06
5.24816e-06
5.2488e-06
5.24937e-06
5.25007e-06
5.25039e-06
5.25122e-06
5.21211e-06
5.21353e-06
5.21192e-06
5.21267e-06
5.21285e-06
5.21164e-06
5.20984e-06
5.20853e-06
5.20862e-06
5.2099e-06
5.21171e-06
5.21361e-06
5.21543e-06
5.2171e-06
5.21866e-06
5.22012e-06
5.2215e-06
5.22284e-06
5.22414e-06
5.22539e-06
5.22656e-06
5.22767e-06
5.22874e-06
5.22979e-06
5.23084e-06
5.23186e-06
5.23283e-06
5.23372e-06
5.23457e-06
5.23542e-06
5.23628e-06
5.23716e-06
5.23802e-06
5.23882e-06
5.23956e-06
5.24028e-06
5.24101e-06
5.24177e-06
5.24254e-06
5.24328e-06
5.24398e-06
5.24465e-06
5.2453e-06
5.24596e-06
5.24663e-06
5.24729e-06
5.24793e-06
5.24856e-06
5.24919e-06
5.24975e-06
5.25044e-06
5.25075e-06
5.25158e-06
5.21215e-06
5.21322e-06
5.21179e-06
5.21256e-06
5.21266e-06
5.21141e-06
5.20965e-06
5.20845e-06
5.20867e-06
5.21001e-06
5.21183e-06
5.21372e-06
5.2155e-06
5.21716e-06
5.21871e-06
5.22016e-06
5.22153e-06
5.22284e-06
5.22411e-06
5.22535e-06
5.22653e-06
5.22764e-06
5.22869e-06
5.22971e-06
5.23073e-06
5.23174e-06
5.23272e-06
5.23364e-06
5.23449e-06
5.23531e-06
5.23612e-06
5.23697e-06
5.23782e-06
5.23865e-06
5.23942e-06
5.24013e-06
5.24082e-06
5.24154e-06
5.24229e-06
5.24304e-06
5.24376e-06
5.24444e-06
5.24509e-06
5.24573e-06
5.24638e-06
5.24704e-06
5.24769e-06
5.24832e-06
5.24894e-06
5.24956e-06
5.25011e-06
5.2508e-06
5.25109e-06
5.25192e-06
5.21218e-06
5.21291e-06
5.21166e-06
5.21245e-06
5.21247e-06
5.21119e-06
5.20948e-06
5.20838e-06
5.20873e-06
5.21013e-06
5.21195e-06
5.21381e-06
5.21557e-06
5.21721e-06
5.21874e-06
5.22019e-06
5.22155e-06
5.22285e-06
5.22409e-06
5.22531e-06
5.22648e-06
5.2276e-06
5.22865e-06
5.22965e-06
5.23063e-06
5.23161e-06
5.23258e-06
5.23352e-06
5.2344e-06
5.23521e-06
5.236e-06
5.23679e-06
5.23761e-06
5.23844e-06
5.23924e-06
5.23998e-06
5.24066e-06
5.24134e-06
5.24205e-06
5.24278e-06
5.24352e-06
5.24422e-06
5.24488e-06
5.24551e-06
5.24614e-06
5.24679e-06
5.24743e-06
5.24807e-06
5.24869e-06
5.2493e-06
5.24991e-06
5.25045e-06
5.25113e-06
5.25142e-06
5.25225e-06
5.21219e-06
5.21261e-06
5.21155e-06
5.21235e-06
5.21229e-06
5.21099e-06
5.20932e-06
5.20833e-06
5.20879e-06
5.21024e-06
5.21207e-06
5.21391e-06
5.21564e-06
5.21725e-06
5.21876e-06
5.2202e-06
5.22156e-06
5.22285e-06
5.22408e-06
5.22527e-06
5.22642e-06
5.22754e-06
5.2286e-06
5.2296e-06
5.23055e-06
5.23149e-06
5.23244e-06
5.23337e-06
5.23427e-06
5.23511e-06
5.23589e-06
5.23665e-06
5.23742e-06
5.23822e-06
5.23903e-06
5.23979e-06
5.2405e-06
5.24117e-06
5.24183e-06
5.24253e-06
5.24325e-06
5.24396e-06
5.24464e-06
5.24529e-06
5.24591e-06
5.24653e-06
5.24717e-06
5.2478e-06
5.24843e-06
5.24904e-06
5.24964e-06
5.25024e-06
5.25078e-06
5.25145e-06
5.25173e-06
5.25256e-06
5.21218e-06
5.21232e-06
5.21143e-06
5.21224e-06
5.21212e-06
5.2108e-06
5.20918e-06
5.20829e-06
5.20885e-06
5.21035e-06
5.21218e-06
5.214e-06
5.2157e-06
5.21729e-06
5.21878e-06
5.22021e-06
5.22156e-06
5.22285e-06
5.22407e-06
5.22524e-06
5.22637e-06
5.22747e-06
5.22853e-06
5.22954e-06
5.23048e-06
5.2314e-06
5.2323e-06
5.23322e-06
5.23412e-06
5.23498e-06
5.23578e-06
5.23653e-06
5.23726e-06
5.23802e-06
5.2388e-06
5.23958e-06
5.24031e-06
5.241e-06
5.24165e-06
5.2423e-06
5.24298e-06
5.24369e-06
5.24439e-06
5.24505e-06
5.24568e-06
5.24629e-06
5.2469e-06
5.24753e-06
5.24815e-06
5.24877e-06
5.24938e-06
5.24997e-06
5.25056e-06
5.25109e-06
5.25176e-06
5.25202e-06
5.25285e-06
5.21216e-06
5.21204e-06
5.21133e-06
5.21213e-06
5.21195e-06
5.21063e-06
5.20906e-06
5.20827e-06
5.20892e-06
5.21045e-06
5.21228e-06
5.21408e-06
5.21576e-06
5.21733e-06
5.2188e-06
5.22021e-06
5.22156e-06
5.22284e-06
5.22406e-06
5.22521e-06
5.22632e-06
5.2274e-06
5.22845e-06
5.22946e-06
5.23041e-06
5.23132e-06
5.23219e-06
5.23307e-06
5.23395e-06
5.23482e-06
5.23564e-06
5.23641e-06
5.23713e-06
5.23784e-06
5.23858e-06
5.23934e-06
5.24009e-06
5.24081e-06
5.24146e-06
5.2421e-06
5.24274e-06
5.24341e-06
5.24411e-06
5.24479e-06
5.24543e-06
5.24604e-06
5.24665e-06
5.24725e-06
5.24787e-06
5.24848e-06
5.24909e-06
5.24969e-06
5.25027e-06
5.25086e-06
5.25138e-06
5.25204e-06
5.2523e-06
5.25313e-06
5.21212e-06
5.21178e-06
5.21122e-06
5.21203e-06
5.21179e-06
5.21046e-06
5.20894e-06
5.20826e-06
5.20898e-06
5.21055e-06
5.21237e-06
5.21416e-06
5.21582e-06
5.21737e-06
5.21883e-06
5.22022e-06
5.22155e-06
5.22282e-06
5.22403e-06
5.22518e-06
5.22628e-06
5.22734e-06
5.22837e-06
5.22937e-06
5.23033e-06
5.23124e-06
5.2321e-06
5.23294e-06
5.23379e-06
5.23464e-06
5.23548e-06
5.23627e-06
5.237e-06
5.23769e-06
5.23839e-06
5.23911e-06
5.23985e-06
5.24058e-06
5.24127e-06
5.24191e-06
5.24252e-06
5.24316e-06
5.24382e-06
5.2445e-06
5.24517e-06
5.24579e-06
5.24639e-06
5.24699e-06
5.24759e-06
5.24819e-06
5.2488e-06
5.2494e-06
5.24999e-06
5.25057e-06
5.25114e-06
5.25166e-06
5.25232e-06
5.25257e-06
5.25339e-06
5.21207e-06
5.21152e-06
5.21112e-06
5.21192e-06
5.21163e-06
5.2103e-06
5.20884e-06
5.20825e-06
5.20905e-06
5.21064e-06
5.21246e-06
5.21423e-06
5.21587e-06
5.2174e-06
5.21885e-06
5.22022e-06
5.22154e-06
5.2228e-06
5.224e-06
5.22515e-06
5.22624e-06
5.22728e-06
5.22829e-06
5.22927e-06
5.23023e-06
5.23115e-06
5.23202e-06
5.23284e-06
5.23365e-06
5.23447e-06
5.23529e-06
5.2361e-06
5.23685e-06
5.23756e-06
5.23823e-06
5.23891e-06
5.23961e-06
5.24033e-06
5.24104e-06
5.2417e-06
5.24232e-06
5.24293e-06
5.24355e-06
5.24421e-06
5.24488e-06
5.24553e-06
5.24614e-06
5.24673e-06
5.24731e-06
5.2479e-06
5.2485e-06
5.2491e-06
5.24969e-06
5.25028e-06
5.25084e-06
5.25141e-06
5.25192e-06
5.25258e-06
5.25283e-06
5.25365e-06
5.21201e-06
5.21128e-06
5.21101e-06
5.2118e-06
5.21148e-06
5.21015e-06
5.20874e-06
5.20825e-06
5.20911e-06
5.21072e-06
5.21254e-06
5.21429e-06
5.21592e-06
5.21743e-06
5.21886e-06
5.22022e-06
5.22153e-06
5.22277e-06
5.22397e-06
5.22511e-06
5.22619e-06
5.22722e-06
5.22822e-06
5.22918e-06
5.23013e-06
5.23105e-06
5.23192e-06
5.23275e-06
5.23354e-06
5.23432e-06
5.23511e-06
5.2359e-06
5.23668e-06
5.2374e-06
5.23808e-06
5.23873e-06
5.2394e-06
5.24009e-06
5.24079e-06
5.24147e-06
5.24212e-06
5.24272e-06
5.24331e-06
5.24393e-06
5.24458e-06
5.24523e-06
5.24586e-06
5.24646e-06
5.24704e-06
5.24762e-06
5.2482e-06
5.24879e-06
5.24939e-06
5.24997e-06
5.25055e-06
5.25111e-06
5.25167e-06
5.25217e-06
5.25283e-06
5.25307e-06
5.25389e-06
5.21194e-06
5.21105e-06
5.21092e-06
5.21169e-06
5.21133e-06
5.21001e-06
5.20865e-06
5.20826e-06
5.20918e-06
5.2108e-06
5.21261e-06
5.21435e-06
5.21596e-06
5.21746e-06
5.21888e-06
5.22023e-06
5.22152e-06
5.22275e-06
5.22393e-06
5.22506e-06
5.22614e-06
5.22717e-06
5.22815e-06
5.2291e-06
5.23003e-06
5.23093e-06
5.23181e-06
5.23264e-06
5.23343e-06
5.23419e-06
5.23494e-06
5.23571e-06
5.23648e-06
5.23723e-06
5.23792e-06
5.23858e-06
5.23921e-06
5.23986e-06
5.24053e-06
5.24122e-06
5.24188e-06
5.2425e-06
5.24309e-06
5.24368e-06
5.24429e-06
5.24493e-06
5.24557e-06
5.24619e-06
5.24677e-06
5.24734e-06
5.24791e-06
5.24849e-06
5.24907e-06
5.24966e-06
5.25024e-06
5.25081e-06
5.25136e-06
5.25191e-06
5.25241e-06
5.25306e-06
5.2533e-06
5.25411e-06
5.21186e-06
5.21082e-06
5.21083e-06
5.21158e-06
5.21118e-06
5.20987e-06
5.20857e-06
5.20827e-06
5.20925e-06
5.21089e-06
5.21268e-06
5.2144e-06
5.216e-06
5.21748e-06
5.21889e-06
5.22023e-06
5.22151e-06
5.22273e-06
5.22389e-06
5.22501e-06
5.22608e-06
5.22711e-06
5.22808e-06
5.22902e-06
5.22993e-06
5.23082e-06
5.23169e-06
5.23253e-06
5.23332e-06
5.23407e-06
5.2348e-06
5.23553e-06
5.23628e-06
5.23702e-06
5.23774e-06
5.23841e-06
5.23904e-06
5.23966e-06
5.2403e-06
5.24096e-06
5.24163e-06
5.24227e-06
5.24287e-06
5.24345e-06
5.24402e-06
5.24463e-06
5.24526e-06
5.24589e-06
5.24649e-06
5.24706e-06
5.24762e-06
5.24818e-06
5.24876e-06
5.24934e-06
5.24992e-06
5.25049e-06
5.25105e-06
5.25159e-06
5.25214e-06
5.25264e-06
5.25329e-06
5.25352e-06
5.25433e-06
5.21177e-06
5.21061e-06
5.21075e-06
5.21148e-06
5.21105e-06
5.20975e-06
5.2085e-06
5.20828e-06
5.20932e-06
5.21097e-06
5.21274e-06
5.21444e-06
5.21603e-06
5.2175e-06
5.2189e-06
5.22023e-06
5.22149e-06
5.2227e-06
5.22386e-06
5.22497e-06
5.22603e-06
5.22704e-06
5.22801e-06
5.22894e-06
5.22984e-06
5.23071e-06
5.23156e-06
5.2324e-06
5.2332e-06
5.23396e-06
5.23468e-06
5.23538e-06
5.23609e-06
5.23682e-06
5.23754e-06
5.23823e-06
5.23887e-06
5.23949e-06
5.24009e-06
5.24071e-06
5.24136e-06
5.24201e-06
5.24263e-06
5.24322e-06
5.24378e-06
5.24435e-06
5.24496e-06
5.24558e-06
5.24619e-06
5.24678e-06
5.24734e-06
5.24789e-06
5.24844e-06
5.24901e-06
5.24959e-06
5.25016e-06
5.25073e-06
5.25128e-06
5.25182e-06
5.25237e-06
5.25286e-06
5.2535e-06
5.25373e-06
5.25454e-06
5.21167e-06
5.21042e-06
5.21068e-06
5.21138e-06
5.21092e-06
5.20963e-06
5.20843e-06
5.2083e-06
5.20938e-06
5.21104e-06
5.21281e-06
5.21449e-06
5.21605e-06
5.21752e-06
5.21891e-06
5.22022e-06
5.22148e-06
5.22268e-06
5.22382e-06
5.22492e-06
5.22597e-06
5.22697e-06
5.22794e-06
5.22887e-06
5.22975e-06
5.23061e-06
5.23145e-06
5.23227e-06
5.23306e-06
5.23383e-06
5.23456e-06
5.23525e-06
5.23593e-06
5.23662e-06
5.23732e-06
5.23802e-06
5.23869e-06
5.23931e-06
5.2399e-06
5.24049e-06
5.24111e-06
5.24174e-06
5.24237e-06
5.24298e-06
5.24355e-06
5.2441e-06
5.24467e-06
5.24526e-06
5.24587e-06
5.24647e-06
5.24705e-06
5.2476e-06
5.24814e-06
5.24869e-06
5.24926e-06
5.24983e-06
5.25039e-06
5.25095e-06
5.2515e-06
5.25203e-06
5.25258e-06
5.25307e-06
5.25371e-06
5.25393e-06
5.25474e-06
5.21157e-06
5.21024e-06
5.21061e-06
5.21129e-06
5.2108e-06
5.20952e-06
5.20837e-06
5.20832e-06
5.20944e-06
5.21111e-06
5.21287e-06
5.21453e-06
5.21608e-06
5.21753e-06
5.21891e-06
5.22022e-06
5.22147e-06
5.22266e-06
5.22379e-06
5.22487e-06
5.22591e-06
5.22691e-06
5.22787e-06
5.22879e-06
5.22967e-06
5.23052e-06
5.23134e-06
5.23214e-06
5.23293e-06
5.23369e-06
5.23442e-06
5.23512e-06
5.23579e-06
5.23645e-06
5.23712e-06
5.2378e-06
5.23848e-06
5.23912e-06
5.23972e-06
5.2403e-06
5.24088e-06
5.24148e-06
5.2421e-06
5.24272e-06
5.2433e-06
5.24386e-06
5.2444e-06
5.24497e-06
5.24555e-06
5.24616e-06
5.24674e-06
5.2473e-06
5.24784e-06
5.24838e-06
5.24893e-06
5.24949e-06
5.25005e-06
5.25061e-06
5.25117e-06
5.25171e-06
5.25224e-06
5.25278e-06
5.25326e-06
5.2539e-06
5.25412e-06
5.25493e-06
5.21146e-06
5.21007e-06
5.21054e-06
5.21119e-06
5.21069e-06
5.20942e-06
5.20832e-06
5.20834e-06
5.2095e-06
5.21117e-06
5.21292e-06
5.21457e-06
5.2161e-06
5.21754e-06
5.21891e-06
5.22021e-06
5.22145e-06
5.22263e-06
5.22376e-06
5.22483e-06
5.22585e-06
5.22684e-06
5.22779e-06
5.2287e-06
5.22958e-06
5.23042e-06
5.23123e-06
5.23202e-06
5.23279e-06
5.23355e-06
5.23428e-06
5.23498e-06
5.23565e-06
5.23629e-06
5.23693e-06
5.23759e-06
5.23825e-06
5.23891e-06
5.23953e-06
5.24011e-06
5.24067e-06
5.24124e-06
5.24183e-06
5.24244e-06
5.24304e-06
5.24361e-06
5.24416e-06
5.24469e-06
5.24525e-06
5.24583e-06
5.24642e-06
5.247e-06
5.24755e-06
5.24808e-06
5.24861e-06
5.24915e-06
5.24971e-06
5.25027e-06
5.25082e-06
5.25137e-06
5.25191e-06
5.25243e-06
5.25297e-06
5.25345e-06
5.25409e-06
5.2543e-06
5.25511e-06
5.21135e-06
5.20991e-06
5.21047e-06
5.2111e-06
5.21058e-06
5.20932e-06
5.20827e-06
5.20837e-06
5.20956e-06
5.21123e-06
5.21297e-06
5.21461e-06
5.21613e-06
5.21755e-06
5.21891e-06
5.2202e-06
5.22143e-06
5.22261e-06
5.22372e-06
5.22478e-06
5.2258e-06
5.22678e-06
5.22772e-06
5.22862e-06
5.22949e-06
5.23033e-06
5.23113e-06
5.23191e-06
5.23266e-06
5.2334e-06
5.23413e-06
5.23483e-06
5.23551e-06
5.23615e-06
5.23677e-06
5.2374e-06
5.23804e-06
5.23868e-06
5.23931e-06
5.23991e-06
5.24047e-06
5.24102e-06
5.24158e-06
5.24216e-06
5.24276e-06
5.24335e-06
5.2439e-06
5.24444e-06
5.24497e-06
5.24552e-06
5.24609e-06
5.24667e-06
5.24724e-06
5.24778e-06
5.2483e-06
5.24883e-06
5.24937e-06
5.24992e-06
5.25047e-06
5.25102e-06
5.25156e-06
5.2521e-06
5.25262e-06
5.25315e-06
5.25363e-06
5.25427e-06
5.25447e-06
5.25528e-06
5.21123e-06
5.20977e-06
5.2104e-06
5.211e-06
5.21047e-06
5.20923e-06
5.20823e-06
5.2084e-06
5.20962e-06
5.21129e-06
5.21301e-06
5.21464e-06
5.21615e-06
5.21756e-06
5.21891e-06
5.22019e-06
5.22141e-06
5.22258e-06
5.22369e-06
5.22474e-06
5.22575e-06
5.22671e-06
5.22764e-06
5.22854e-06
5.2294e-06
5.23023e-06
5.23103e-06
5.2318e-06
5.23254e-06
5.23327e-06
5.23398e-06
5.23468e-06
5.23535e-06
5.236e-06
5.23662e-06
5.23723e-06
5.23784e-06
5.23846e-06
5.23908e-06
5.23969e-06
5.24027e-06
5.24082e-06
5.24136e-06
5.24191e-06
5.24248e-06
5.24307e-06
5.24364e-06
5.24418e-06
5.2447e-06
5.24523e-06
5.24577e-06
5.24634e-06
5.24691e-06
5.24746e-06
5.24799e-06
5.24851e-06
5.24903e-06
5.24957e-06
5.25012e-06
5.25067e-06
5.25121e-06
5.25175e-06
5.25228e-06
5.25279e-06
5.25332e-06
5.2538e-06
5.25443e-06
5.25464e-06
5.25545e-06
5.21111e-06
5.20963e-06
5.21034e-06
5.21091e-06
5.21037e-06
5.20914e-06
5.2082e-06
5.20843e-06
5.20968e-06
5.21135e-06
5.21306e-06
5.21467e-06
5.21616e-06
5.21757e-06
5.21891e-06
5.22018e-06
5.22139e-06
5.22255e-06
5.22365e-06
5.2247e-06
5.2257e-06
5.22665e-06
5.22757e-06
5.22846e-06
5.22931e-06
5.23014e-06
5.23093e-06
5.23169e-06
5.23242e-06
5.23314e-06
5.23384e-06
5.23452e-06
5.2352e-06
5.23585e-06
5.23647e-06
5.23707e-06
5.23766e-06
5.23825e-06
5.23886e-06
5.23946e-06
5.24005e-06
5.24061e-06
5.24115e-06
5.24168e-06
5.24222e-06
5.24278e-06
5.24335e-06