/*--------------------------------*- C++ -*----------------------------------*\
  =========                 |
  \\      /  F ield         | OpenFOAM: The Open Source CFD Toolbox
   \\    /   O peration     | Website:  https://openfoam.org
    \\  /    A nd           | Version:  7
     \\/     M anipulation  |
\*---------------------------------------------------------------------------*/
FoamFile
{
    version     2.0;
    format      ascii;
    class       volScalarField;
    location    "2000";
    object      p;
}
// * * * * * * * * * * * * * * * * * * * * * * * * * * * * * * * * * * * * * //

dimensions      [0 2 -2 0 0 0 0];

internalField   nonuniform List<scalar> 
23117
(
2.2953
6.49798
0.56034
9.91214
2.11968
0.651677
12.4969
4.26409
2.17272
0.767571
14.653
6.07828
4.0629
2.39553
0.670318
16.5041
7.69194
5.73918
4.34552
2.04478
0.674161
18.144
9.08194
7.31942
6.04149
3.89834
1.92964
0.698275
19.6213
10.304
8.75557
7.63624
5.52563
3.73482
1.87566
0.704721
20.9696
11.3852
10.0756
9.09298
7.0822
5.31778
3.66615
1.81003
0.703369
22.2096
12.3513
11.2895
10.4395
8.51672
6.85723
5.21959
3.58217
1.77502
0.691502
23.3584
13.2211
12.413
11.6828
9.85532
8.28978
6.74459
5.1103
3.52477
1.76098
0.672679
24.4273
14.0086
13.4578
12.8354
11.1017
9.6402
8.17026
6.62309
5.03331
3.48576
1.75283
0.656135
25.4255
14.7251
14.4347
13.9067
12.2665
10.9084
9.52312
8.04289
6.53633
4.97983
3.45306
1.7449
0.64756
26.3605
15.3794
15.3518
14.9057
13.3575
12.1029
10.8009
9.39798
7.95276
6.47389
4.93667
3.42539
1.73364
0.647627
27.2373
15.9785
16.2163
15.8396
14.3823
13.2294
12.0109
10.6845
9.31142
7.8876
6.42302
4.90099
3.40129
1.71828
0.653727
28.0625
16.5282
17.0336
16.7148
15.3473
14.2941
13.1577
11.9093
10.6073
9.24927
7.83487
6.381
4.8697
3.37906
1.70038
0.662227
28.8392
17.0327
17.8083
17.5363
16.2581
15.3022
14.2464
13.0757
11.8466
10.5534
9.19944
7.79152
6.34443
4.84003
3.35773
1.6818
0.670317
29.5716
17.4962
18.5442
18.3082
17.1192
16.2581
15.2813
14.1882
13.032
11.8054
10.5111
9.15877
7.75358
6.31016
4.8105
3.33657
1.66365
0.676702
30.2627
17.9222
19.2443
19.0342
17.9345
17.1656
16.2664
15.2504
14.1672
13.0076
11.7748
10.4772
9.12295
7.71752
6.2762
4.7803
3.31494
1.64623
0.681279
30.9156
18.314
19.9115
19.7174
18.7073
18.0279
17.2048
16.2655
15.2552
14.1631
12.9925
11.7515
10.4471
9.08831
7.68112
6.24122
4.74887
3.29239
1.62928
0.68452
31.533
18.674
20.5484
20.3607
19.4405
18.8479
18.0996
17.2366
16.2989
15.2745
14.1668
12.9832
11.7307
10.4172
9.0525
7.64289
6.20432
4.71584
3.26865
1.6124
0.686964
32.1171
19.0049
21.1573
20.9668
20.1371
19.628
18.9533
18.1662
17.3009
16.3444
15.3002
14.1749
12.9749
11.7086
10.3849
9.01389
7.6018
6.1649
4.68094
3.24355
1.59521
0.688983
32.6703
19.3088
21.7401
21.538
20.7996
20.3706
19.7682
19.0566
18.2635
17.3751
16.3948
15.3286
14.1824
12.9641
11.683
10.3486
8.97133
7.55718
6.1226
4.64397
3.21704
1.57751
0.690766
33.1946
19.5873
22.2983
22.0765
21.4303
21.078
20.5464
19.9096
19.1887
18.3686
17.4527
16.4464
15.3549
14.1858
12.9481
11.6519
10.3071
8.92408
7.50864
6.0772
4.60484
3.18913
1.55923
0.692383
33.6918
19.8422
22.8334
22.5837
22.0312
21.7519
21.2898
20.727
20.078
19.3266
18.4757
17.53
16.4942
15.3754
14.1824
12.9252
11.6142
10.2596
8.87171
7.45594
6.02865
4.56353
3.15988
1.54036
0.693844
34.1635
20.0749
23.3464
23.0612
22.6037
22.394
22
21.5102
20.9326
20.2503
19.4653
18.5811
17.602
16.5348
15.3877
14.1706
12.894
11.569
10.2056
8.81397
7.39904
5.97699
4.52011
3.12938
1.52095
0.695164
34.6115
20.2871
23.8384
23.5102
23.1491
23.0056
22.6785
22.2606
21.7538
21.1408
20.4225
19.6009
18.6797
17.6652
16.5655
15.3898
14.1489
12.8538
11.5159
10.1449
8.75084
7.338
5.92233
4.47471
3.09775
1.50106
0.696366
35.0372
20.4799
24.3106
23.9318
23.6687
23.5878
23.3267
22.9793
22.5425
21.9989
21.348
20.5903
19.7284
18.7681
17.717
16.5843
15.3802
14.1163
12.8039
11.4545
10.0774
8.68243
7.27299
5.86487
4.42749
3.06512
1.48075
0.697486
35.4423
20.6549
24.7641
24.3274
24.1636
24.1415
23.9457
23.6676
23.2999
22.8254
22.2425
21.5498
20.7489
19.8444
18.8436
17.7553
16.5897
15.3581
14.0724
12.7443
11.385
10.0035
8.60896
7.20427
5.80487
4.37866
3.03164
1.46009
0.698568
35.828
20.8133
25.2
24.6985
24.6351
24.6679
24.5364
24.3264
24.0269
23.6211
23.1064
22.4799
21.7415
20.8947
19.946
18.9039
17.7785
16.5808
15.3228
14.0169
12.6749
11.3075
9.92324
8.53076
7.13216
5.74259
4.32843
2.99745
1.43913
0.699656
36.1955
20.9561
25.6193
25.0463
25.0843
25.1679
25.0999
24.9566
24.7246
24.3869
23.9405
23.381
22.7066
21.9194
21.0249
20.031
18.9475
17.7854
16.5568
15.2741
13.95
12.5959
11.2224
9.83712
8.44822
7.057
5.67833
4.27702
2.9627
1.41793
0.700797
36.5462
21.0845
26.0227
25.3721
25.5126
25.6425
25.637
25.559
25.3935
25.1236
24.7454
24.2532
23.6442
22.9187
22.0805
21.137
20.0976
18.9731
17.7756
16.5176
15.2121
13.8718
12.5079
11.1301
9.7456
8.36176
6.97916
5.61239
4.22466
2.92756
1.39655
0.702028
36.8811
21.1993
26.411
25.6768
25.9209
26.0927
26.1487
26.1342
26.0343
25.8318
25.5216
25.0972
24.5544
23.8923
23.113
22.2223
21.2292
20.1445
18.98
17.7485
16.4631
15.1371
13.783
12.4114
11.0313
9.64917
8.27184
6.89904
5.54508
4.17156
2.89215
1.37505
0.70339
37.2013
21.3014
26.7847
25.9615
26.3101
26.5195
26.6357
26.6828
26.6475
26.5117
26.2695
25.9131
25.4374
24.8402
24.1219
23.2868
22.3426
21.3
20.1708
18.9678
17.7043
16.3938
15.0497
13.6841
12.3069
10.9264
9.54839
8.17894
6.81702
5.4767
4.11792
2.85661
1.35348
0.704919
37.5078
21.3916
27.1444
26.2268
26.6811
26.9236
27.099
27.2055
27.2335
27.1638
26.9895
26.7013
26.2934
25.7622
25.1069
24.3301
23.4379
22.44
21.3485
20.1762
18.9366
17.6433
16.3102
14.9505
13.5757
12.1952
10.8162
9.44382
8.08353
6.73349
5.40753
4.06396
2.82109
1.33188
0.706654
37.8013
21.4709
27.4908
26.4738
27.0345
27.306
27.5395
27.7031
27.7929
27.7884
27.6816
27.462
27.1224
26.6583
26.0677
25.3515
24.5144
23.5645
22.5134
21.3741
20.1606
18.8865
17.566
16.213
14.8403
13.4588
12.0769
10.7013
9.33602
7.98608
6.6488
5.33786
4.00985
2.78569
1.31029
0.708622
38.0829
21.5402
27.8245
26.7033
27.3712
27.6674
27.958
28.1764
28.3265
28.3857
28.346
28.1951
27.9246
27.5286
27.004
26.3507
25.5714
24.6729
23.6654
22.562
21.3768
20.1241
18.8181
17.4731
16.103
14.7199
13.3341
11.953
10.5823
9.22555
7.88704
6.56332
5.26794
3.95577
2.75054
1.28875
0.710859
38.3533
21.6002
28.146
26.9163
27.6918
28.0085
28.3553
28.6261
28.8349
28.9565
28.9828
28.9006
28.6997
28.3728
27.9157
27.327
26.6082
25.7643
24.8042
23.7398
22.5857
21.3565
20.0672
18.7322
17.3657
15.9812
14.5903
13.2024
11.824
10.4599
9.11294
7.78685
6.47736
5.198
3.90187
2.71573
1.26729
0.7134
38.6134
21.6516
28.456
27.1137
27.9971
28.3302
28.7322
29.053
29.3188
29.5012
29.5926
29.5785
29.4476
29.1909
28.8026
28.2803
27.6243
26.838
25.9287
24.9072
23.7873
22.5844
21.3139
19.9908
18.6296
17.2445
15.8485
14.4525
13.0647
11.6908
10.3347
8.99872
7.6859
6.39124
5.12828
3.84831
2.68136
1.24593
0.716275
38.8637
21.6951
28.7548
27.2964
28.2877
28.6331
29.0893
29.4577
29.779
30.0206
30.1756
30.2288
30.1679
29.9823
29.6643
29.2102
28.619
27.8932
27.0382
26.0634
24.9816
23.8079
22.5586
21.2495
19.8957
18.5115
17.1108
15.7062
14.3074
12.9218
11.554
10.2074
8.88338
7.58459
6.30525
5.05897
3.79519
2.6475
1.22468
0.719515
39.105
21.7315
29.0429
27.4653
28.5645
28.9181
29.4274
29.8408
30.216
30.5152
30.7325
30.8519
30.8606
30.7465
30.5002
30.116
29.5919
28.929
28.1315
27.2072
26.1675
25.0269
23.8018
22.5089
21.1643
19.7829
18.3789
16.9657
15.5551
14.1559
12.7745
11.4144
10.0785
8.76737
7.48327
6.21963
4.99026
3.74264
2.61424
1.20356
0.723154
39.3379
21.7613
29.3208
27.6212
28.8279
29.1859
29.7473
30.2031
30.6304
30.9854
31.2637
31.4482
31.5257
31.4832
31.3095
30.9972
30.5423
29.9448
29.2077
28.3375
27.3441
26.2407
25.0435
23.7696
22.4363
21.0594
19.6538
18.2332
16.8104
15.3964
13.999
12.6236
11.2727
9.9485
8.65112
7.38225
6.13462
4.92231
3.69076
2.58165
1.18257
0.727221
39.563
21.7851
29.5887
27.7647
29.0786
29.4372
30.0496
30.5451
31.0228
31.4319
31.7697
32.018
32.1635
32.1921
32.0917
31.8527
31.4694
30.9399
30.2661
29.4533
28.5101
27.4482
26.283
25.0317
23.7122
22.3417
20.936
19.5095
18.0755
16.646
15.2312
13.8377
12.4698
11.1294
9.81798
8.53502
7.28183
6.05043
4.85526
3.63963
2.54977
1.16171
0.731744
39.7807
21.8036
29.847
27.8968
29.3171
29.6729
30.3351
30.8678
31.394
31.8551
32.2509
32.5618
32.7742
32.8734
32.8464
32.6819
32.3721
31.9133
31.3058
30.5536
29.6642
28.6482
27.5195
26.2948
24.9924
23.6306
22.2265
20.7955
19.3514
17.9071
16.4738
15.0604
13.6728
12.314
10.9853
9.68738
8.41942
7.18228
5.96724
4.78925
3.58931
2.51866
1.14099
0.736758
39.9917
21.8173
30.096
28.018
29.544
29.8936
30.6045
31.1718
31.7447
32.2557
32.7078
33.0799
33.3581
33.5272
33.5733
33.4838
33.2493
32.8637
32.3256
31.6374
30.8055
29.8394
28.7516
27.5581
26.2767
24.9266
23.5261
22.092
20.6392
19.181
17.7293
16.2948
14.8851
13.505
12.1567
10.8407
9.55712
8.30465
7.08383
5.88523
4.72438
3.53987
2.48837
1.1204
0.742286
40.1964
21.8267
30.3361
28.1292
29.7597
30.1001
30.8586
31.4578
32.0756
32.6345
33.1409
33.5726
33.9156
34.1537
34.2724
34.2583
34.1001
33.79
33.3242
32.7035
31.9327
31.0203
29.978
28.8203
27.5645
26.2297
24.8355
23.4
21.9397
20.4686
18.9995
17.5435
16.1101
14.7062
13.3353
11.9986
10.6961
9.42758
8.19099
6.98668
5.80452
4.66076
3.49136
2.45892
1.09993
0.748352
40.3952
21.8323
30.5674
28.2309
29.9647
30.2931
31.098
31.7267
32.3875
32.992
33.5509
34.0405
34.4468
34.753
34.9438
35.0049
34.9238
34.6909
34.3003
33.7505
33.0447
32.19
31.1972
30.0799
28.8545
27.5395
26.155
24.7205
23.254
21.7711
20.2852
18.8083
17.3507
15.9209
14.5246
13.1642
11.8403
10.5522
9.29911
8.0787
6.89102
5.72525
4.59846
3.4438
2.43037
1.07957
0.754975
40.5886
21.8346
30.7902
28.3238
30.1593
30.4731
31.3233
31.9791
32.6811
33.3291
33.9385
34.484
34.9521
35.3252
35.5874
35.7235
35.72
35.5656
35.2524
34.7769
34.1399
33.3471
32.4081
31.3356
30.1453
28.8549
27.4843
26.0538
24.5831
23.0895
21.5877
20.0905
18.6088
17.1522
15.7281
14.341
12.9925
11.6823
10.4092
9.17202
7.968
6.79702
5.64751
4.53754
3.39723
2.40272
1.05932
0.762174
40.7768
21.8339
31.0048
28.4086
30.3441
30.6409
31.5352
32.2157
32.9573
33.6466
34.3044
34.9037
35.4318
35.8706
36.2033
36.4141
36.4881
36.4131
36.1793
35.7809
35.2166
34.49
33.6092
32.5861
31.4354
30.1745
28.8225
27.4001
25.9279
24.425
22.9081
21.3912
19.8858
18.4023
16.9491
15.5326
14.1563
12.8208
11.5251
10.2675
9.04658
7.8591
6.7048
5.57139
4.47806
3.35167
2.37601
1.03916
0.769956
40.9603
21.8308
31.2113
28.4859
30.5194
30.7971
31.7342
32.4372
33.2165
33.945
34.6492
35.3004
35.8866
36.3893
36.7916
37.0763
37.228
37.2329
37.0799
36.7611
36.273
35.6168
34.7989
33.8298
32.7236
31.4969
30.1685
28.7586
27.2885
25.7788
24.2479
22.7117
21.183
19.6727
18.19
16.7424
15.3353
13.9712
12.6496
11.3691
10.1275
8.92304
7.75215
6.61447
5.49695
4.42008
3.30714
2.35025
1.01909
0.778324
41.1394
21.8256
31.4098
28.5562
30.6856
30.9423
31.921
32.6443
33.4596
34.2252
34.9738
35.6747
36.317
36.8819
37.3522
37.7102
37.9393
38.0245
37.9533
37.7162
37.3073
36.7257
35.9754
35.0653
34.0083
32.8207
31.5207
30.1283
28.6647
27.1512
25.6082
24.0535
22.5017
20.9648
19.4524
17.973
16.5332
15.1371
13.7862
12.4794
11.2147
9.98939
8.80159
7.64729
6.52614
5.42426
4.36361
3.26363
2.32545
0.999108
0.787282
41.3144
21.8187
31.6007
28.6202
30.843
31.0772
32.0962
32.8377
33.6874
34.4878
35.2788
36.0273
36.7236
37.3488
37.8855
38.3157
38.6216
38.7873
38.7988
38.6449
38.318
37.8147
37.1366
36.2905
35.2881
34.1445
32.8778
31.5077
30.0553
28.5423
26.99
25.4182
23.8436
22.28
20.7379
19.2263
17.7526
16.3223
14.9386
13.6021
12.3107
11.0622
9.85348
8.68241
7.54465
6.43988
5.35335
4.30869
3.22115
2.30163
0.979195
0.796815
41.4857
21.8105
31.7839
28.6783
30.992
31.2023
32.2602
33.018
33.9003
34.7337
35.565
36.3589
37.1072
37.7906
38.392
38.8928
39.2749
39.521
39.6157
39.5464
39.3036
38.8818
38.2802
37.5034
36.5609
35.4667
34.2385
32.8957
31.4593
29.9512
28.3933
26.8067
25.2103
23.62
22.0479
20.5039
18.9956
17.5297
16.1106
14.7406
13.4192
12.1439
10.9119
9.71996
8.56565
7.44432
6.35574
5.28425
4.25533
3.1797
2.27877
0.959359
0.806908
41.6535
21.8012
31.9597
28.7311
31.1329
31.3182
32.4138
33.186
34.0993
34.9635
35.8331
36.6704
37.4684
38.2079
38.872
39.442
39.899
40.2251
40.4033
40.4196
40.2628
39.9253
39.4042
38.7015
37.8244
36.7855
35.6011
34.2907
32.8754
31.3769
29.8177
28.2196
26.6033
24.9867
23.3843
21.8072
20.2639
18.7614
17.3052
15.8988
14.5435
13.238
11.9793
10.7641
9.58901
8.45144
7.34639
6.27377
5.21698
4.20354
3.13929
2.25688
0.939595
0.817537
41.8181
21.7911
32.1282
28.779
31.266
31.4255
32.5574
33.3422
34.285
35.178
36.084
36.9623
37.808
38.6015
39.3262
39.9634
40.494
40.8992
41.1611
41.2638
41.1945
40.9438
40.5066
39.8825
39.0763
38.0984
36.9639
35.6915
34.3022
32.8183
31.2623
29.6567
28.0232
26.3817
24.749
23.1382
21.5592
20.0195
18.5249
17.0801
15.6877
14.348
13.059
11.8172
10.619
9.46081
8.33988
7.2509
6.19402
5.15155
4.15331
3.09989
2.23595
0.919909
0.828676
41.9796
21.7806
32.2895
28.8225
31.3916
31.5247
32.6914
33.4874
34.458
35.3779
36.3183
37.2357
38.1268
38.972
39.7552
40.4577
41.0602
41.5434
41.8884
42.0781
42.0976
41.9359
41.5856
41.0441
40.314
39.4031
38.3246
37.0962
35.7386
34.2741
32.726
31.1173
29.4703
27.8062
26.144
24.4991
22.8834
21.3054
19.7716
18.287
16.8551
15.4778
14.1546
12.8825
11.6579
10.4768
9.33545
8.23103
7.15791
6.11648
5.08795
4.10466
3.06151
2.21596
0.900305
0.840283
42.1384
21.7698
32.4437
28.862
31.5098
31.6162
32.8165
33.622
34.6189
35.564
36.5368
37.4911
38.4255
39.3201
40.1596
40.9252
41.5978
42.1576
42.585
42.8616
42.9711
42.9001
42.6395
42.1845
41.5351
40.6968
39.6807
38.5027
37.1827
35.7433
34.208
32.6005
30.944
29.2606
27.5706
25.8919
24.2387
22.6213
21.0471
19.5215
18.0485
16.6311
15.2698
13.9635
12.7089
11.5016
10.3376
9.21305
8.12498
7.06743
6.04118
5.0262
4.05756
3.02413
2.19691
0.880796
0.852316
42.2946
21.759
32.5907
28.8979
31.621
31.7006
32.9329
33.7467
34.7685
35.7368
36.7403
37.7293
38.7048
39.6466
40.5401
41.3667
42.1074
42.7421
43.2508
43.6139
43.8138
43.8352
43.6668
43.3015
42.7372
41.977
41.0294
39.9084
38.6327
37.2243
35.7071
34.1056
32.4437
30.7446
29.0296
27.3185
25.6275
23.9694
22.3534
20.7855
19.2701
17.8105
16.4085
15.0641
13.7753
12.5383
11.3485
10.2016
9.09368
8.02174
6.9795
5.96811
4.96626
4.012
2.98775
2.17876
0.861394
0.864731
42.4484
21.7484
32.7309
28.9306
31.7254
31.7783
33.0412
33.862
34.9073
35.8972
36.9294
37.9512
38.9656
39.9523
40.8975
41.7828
42.5894
43.2971
43.8856
44.3346
44.625
44.7399
44.6658
44.3935
43.9183
43.241
42.3678
41.3105
40.0859
38.7151
37.222
35.6315
33.9688
32.2578
30.5212
28.7797
27.0518
25.3524
23.693
22.0811
20.5218
19.0184
17.5735
16.188
14.8612
13.5903
12.3711
11.1987
10.0689
8.97741
7.92136
6.8941
5.89726
4.90813
3.96797
2.95236
2.1615
0.842115
0.877473
42.6001
21.7381
32.8641
28.9605
31.8233
31.8498
33.1418
33.9684
35.0359
36.0457
37.105
38.1575
39.2087
40.238
41.2325
42.1741
43.0444
43.8231
44.4898
45.0235
45.404
45.613
45.635
45.4584
45.0761
44.4865
43.6934
42.7061
41.5396
40.2135
38.7509
37.1773
35.5185
33.7999
32.0451
30.2761
28.5129
26.7725
25.0685
23.4108
21.8057
20.257
18.7673
17.3382
15.9701
14.6613
13.4087
12.2074
11.0524
9.93948
8.86426
7.82385
6.81124
5.82861
4.85178
3.92544
2.91794
2.14509
0.822979
0.890487
42.7497
21.7284
32.9905
28.9878
31.9149
31.9155
33.2351
34.0665
35.1548
36.1831
37.2677
38.349
39.4348
40.5045
41.546
42.5415
43.473
44.3206
45.0635
45.6804
46.1504
46.4537
46.573
46.4944
46.2085
45.711
45.0033
44.0924
42.9909
41.7166
40.2916
38.7412
37.0919
35.3701
33.601
31.8078
30.0116
28.2313
26.4825
24.7774
23.1243
21.5282
19.9921
18.5175
17.1053
15.7552
14.465
13.2306
12.0473
10.9097
9.81348
8.75428
7.72921
6.7309
5.76215
4.7972
3.88439
2.88448
2.1295
0.804008
0.903717
42.8976
21.7194
33.1102
29.013
32.0004
31.9758
33.3215
34.1569
35.2647
36.3099
37.4182
38.5264
39.6448
40.7526
41.8386
42.8856
43.8759
44.7901
45.6071
46.3056
46.864
47.2613
47.4786
47.5
47.3135
46.9123
46.295
45.4664
44.4366
43.2214
41.8416
40.3214
38.6878
36.968
35.1886
33.3746
31.5483
29.7299
27.9369
26.1836
24.4806
22.8348
21.2499
19.7279
18.2696
16.8753
15.5438
14.2723
13.0565
11.891
10.7706
9.69091
8.64745
7.63742
6.65304
5.69783
4.74435
3.84479
2.85197
2.1147
0.785227
0.917101
43.0437
21.7112
33.2233
29.0363
32.08
32.0311
33.4014
34.2399
35.366
36.4268
37.5572
38.6905
39.8395
40.9832
42.1113
43.2072
44.2539
45.2321
46.1211
46.8993
47.5446
48.0352
48.3508
48.4735
48.3889
48.0878
47.5659
46.8253
45.8737
44.725
43.3978
41.9154
40.3043
38.5924
36.8076
34.9764
33.123
31.2689
29.4331
27.6318
25.8776
24.1797
22.5435
20.9717
19.4652
18.0244
16.6486
15.3362
14.0836
12.8862
11.7386
10.6352
9.5718
8.54379
7.54846
6.57766
5.63564
4.6932
3.8066
2.8204
2.10065
0.766661
0.930585
43.1881
21.704
33.3298
29.0579
32.154
32.0817
33.4751
34.316
35.4592
36.5343
37.6854
38.842
40.0196
41.197
42.365
43.5073
44.6078
45.6475
46.606
47.4618
48.1923
48.7751
49.1887
49.4136
49.4331
49.2353
48.8133
48.1663
47.2994
46.224
44.9571
43.5202
41.9391
40.2418
38.4572
36.6132
34.736
32.8487
30.972
29.1234
27.3176
25.5659
23.8758
22.2514
20.6944
19.2048
17.7823
16.4256
15.1325
13.8991
12.7201
11.5901
10.5035
9.45614
8.44327
7.46232
6.5047
5.57552
4.64372
3.7698
2.78976
2.08731
0.748334
0.944108
43.3313
21.6978
33.4297
29.0782
32.2224
32.128
33.543
34.3857
35.5449
36.6329
37.8032
38.9816
40.186
41.3949
42.6004
43.7868
44.9384
46.0369
47.0624
47.9934
48.8072
49.4808
49.9919
50.3192
50.4443
50.3527
50.0346
49.4864
48.7104
47.7154
46.5162
45.1328
43.5896
41.9143
40.1362
38.2845
36.3873
34.4698
32.5542
30.6597
28.8027
26.9964
25.2502
23.5704
21.9597
20.4189
18.9473
17.5438
16.2067
14.9332
13.7188
12.5582
11.4456
10.3756
9.34392
8.34587
7.37895
6.43413
5.51744
4.59588
3.73436
2.76003
2.07464
0.730277
0.957609
43.4737
21.6926
33.5232
29.0972
32.2856
32.1702
33.6053
34.4493
35.6234
36.7233
37.9115
39.1099
40.3392
41.5778
42.8186
44.0464
45.2465
46.4012
47.491
48.4947
49.3897
50.1524
50.7598
51.1894
51.4211
51.4379
51.2274
50.7828
50.1037
49.196
48.072
46.7499
45.2528
43.6072
41.8427
39.9895
38.0769
36.1324
34.1803
32.2417
30.3344
28.4731
26.6696
24.9317
23.2644
21.6693
20.1459
18.6932
17.3093
15.9922
14.7383
13.543
12.4005
11.3052
10.2514
9.23515
8.25156
7.2983
6.3659
5.46136
4.54966
3.70022
2.7312
2.06261
0.712519
0.971033
43.6146
21.6882
33.6103
29.1154
32.3437
32.2087
33.6625
34.5074
35.6953
36.806
38.0106
39.2276
40.4802
41.7463
43.0202
44.2871
45.5331
46.7413
47.8926
48.9664
49.94
50.7899
51.4923
52.0236
52.3622
52.489
52.3891
52.0527
51.4761
50.6624
49.6212
48.3683
46.9253
45.3178
43.5746
41.7265
39.8042
37.8369
35.8512
33.8702
31.9137
29.998
28.1363
26.3387
24.6118
22.959
21.3808
19.8761
18.4429
17.0792
15.7822
14.548
13.3717
12.2472
11.1687
10.131
9.12977
8.16028
7.22033
6.29997
5.40723
4.505
3.66736
2.70326
2.05117
0.695086
0.98433
43.7522
21.6853
33.6914
29.1328
32.397
32.2438
33.7148
34.5601
35.7609
36.8814
38.1013
39.3354
40.6095
41.9013
43.2061
44.5097
45.7991
47.058
48.2681
49.4091
50.4588
51.3936
52.1892
52.8213
53.2668
53.5047
53.5177
53.2932
52.8244
52.1111
51.16
49.9845
48.6039
47.0427
45.3292
43.4938
41.5681
39.583
37.5672
35.5463
33.5419
31.5724
29.6526
27.7941
26.0054
24.2917
22.6551
21.0951
19.6099
18.197
16.8537
15.577
14.3625
13.2049
12.0981
11.0363
10.0142
9.02775
8.07201
7.145
6.23629
5.35501
4.46187
3.63574
2.67619
2.0403
0.678002
0.997448
43.8876
21.685
33.7661
29.1495
32.4455
32.2757
33.7625
34.608
35.8206
36.9499
38.1839
39.4338
40.7278
42.0435
43.3772
44.7152
46.0455
47.3523
48.6183
49.8237
50.9467
51.9639
52.8507
53.5821
54.1339
54.4835
54.6113
54.502
54.1456
53.5388
52.6849
51.5947
50.2851
48.7789
47.1033
45.2887
43.3669
41.37
39.3286
37.2706
35.2202
33.1978
31.22
29.3
27.4479
25.6708
23.9723
22.3534
20.8129
19.3479
17.9557
16.6331
15.3767
14.1818
13.0427
11.9534
10.9079
9.9011
8.92904
7.98668
7.07223
6.1748
5.30464
4.42025
3.60532
2.65
2.02994
0.661294
1.01034
44.0297
21.6865
33.8339
29.166
32.4896
32.3047
33.8059
34.6513
35.8748
37.0122
38.2591
39.5234
40.8359
42.1736
43.5342
44.9044
46.2731
47.6252
48.9441
50.211
51.4044
52.5012
53.4768
54.3058
54.963
55.4243
55.6682
55.6766
55.4368
54.942
54.1923
53.1952
51.9652
50.5228
48.894
47.1085
45.1984
43.1965
41.1349
39.0437
36.9497
34.8757
32.8403
30.8585
28.942
27.0994
25.3361
23.6547
22.0549
20.5346
19.0905
17.7193
16.4176
15.1814
14.0059
12.8851
11.8129
10.7835
9.79163
8.83359
7.90424
7.00198
6.11544
5.25607
4.38009
3.57605
2.62464
2.02007
0.644984
1.02297
44.1813
21.6843
33.8954
29.1824
32.5294
32.331
33.8453
34.6903
35.9239
37.0684
38.3273
39.6048
40.9343
42.2923
43.6779
45.0782
46.4827
47.8775
49.2466
50.5719
51.8327
53.0062
54.0681
54.9926
55.7537
56.3262
56.6868
56.815
56.6953
56.3176
55.6785
54.7822
53.6401
52.2706
50.6978
48.9503
47.0602
45.0607
42.9853
40.8658
38.7313
36.6073
34.515
32.4714
30.4898
28.5803
26.7498
25.0025
23.3396
21.76
20.2607
18.838
17.4881
16.2073
14.9913
13.835
12.7322
11.6767
10.663
9.68571
8.74135
7.82461
6.93417
6.05816
5.20927
4.34135
3.5479
2.60013
2.01065
0.629094
1.03528
44.3133
21.6768
33.9537
29.1989
32.5648
32.3548
33.8808
34.7255
35.9682
37.1191
38.3889
39.6785
41.0236
42.4004
43.8091
45.2373
46.6754
48.1102
49.5267
50.9074
52.2325
53.4797
54.625
55.6425
56.5058
57.1886
57.6659
57.9154
57.9186
57.6623
57.1398
56.3517
55.306
54.0184
52.5108
50.8107
48.9493
46.9604
44.8782
42.7361
40.5654
38.3941
36.2461
34.1408
32.0935
30.1158
28.2163
26.4003
24.6708
23.0279
21.4694
19.9918
18.5908
17.2623
16.0024
14.8064
13.6689
12.5838
11.5448
10.5463
9.58331
8.65224
7.74774
6.86876
6.00293
5.16417
4.304
3.52083
2.57643
2.00165
0.613642
1.04726
44.389
21.6832
34.0099
29.2139
32.5961
32.3764
33.9127
34.7569
36.0081
37.1647
38.4444
39.745
41.1044
42.4985
43.9285
45.3826
46.8521
48.3243
49.7854
51.2186
52.6048
53.9225
55.1481
56.2559
57.2192
58.0108
58.6045
58.976
59.1044
58.9733
58.5728
57.8996
56.9586
55.7619
54.3291
52.6859
50.8628
48.893
46.8117
44.6536
42.4518
40.2368
38.0349
35.8685
33.7551
31.7084
29.7382
27.8514
26.0521
24.3421
22.7202
21.1836
19.7281
18.349
17.042
15.8028
14.6266
13.5078
12.44
11.4171
10.4335
9.48434
8.56618
7.67355
6.80568
5.94966
5.12073
4.268
3.49479
2.55354
1.99304
0.598645
1.05887
44.4851
21.7282
34.0532
29.2272
32.6244
32.396
33.9413
34.785
36.0438
37.2055
38.4943
39.8047
41.1773
42.5873
44.0369
45.5149
47.0134
48.5207
50.0236
51.5063
52.9506
54.3356
55.6383
56.8334
57.8941
58.7927
59.5019
59.9956
60.2506
60.248
59.974
59.4222
58.5935
57.4967
56.1485
54.5722
52.7969
50.8557
48.7837
46.6169
44.39
42.1356
39.8828
37.6565
35.4771
33.3603
31.318
29.3584
27.4868
25.7062
24.0169
22.4171
20.903
19.4699
18.1129
16.8274
15.6088
14.4521
13.3515
12.3007
11.2934
10.3244
9.38874
8.48313
7.60199
6.74485
5.89832
5.0789
4.23331
3.46976
2.53145
1.98479
0.584115
1.07008
44.6781
21.76
34.0695
29.2444
32.6499
32.4132
33.9667
34.8099
36.0757
37.2419
38.5389
39.8583
41.2428
42.6672
44.1349
45.6349
47.1605
48.7004
50.2424
51.7717
53.2708
54.7198
56.0964
57.3756
58.5309
59.5343
60.3574
60.9729
61.3555
61.4837
61.3405
60.9158
60.2067
59.2185
57.9644
56.4651
54.7479
52.845
50.7915
48.6239
46.3788
44.0904
41.7905
39.5064
37.2615
35.0742
32.9584
30.924
28.9779
27.1238
25.3634
23.6961
22.1191
20.628
19.2176
17.8827
16.6185
15.4202
14.2828
13.2001
12.1658
11.1739
10.219
9.29643
8.403
7.53298
6.68622
5.84884
5.03862
4.1999
3.44569
2.51013
1.97687
0.570064
1.08088
44.7408
21.6859
34.0885
29.2725
32.6702
32.4282
33.9893
34.832
36.104
37.2741
38.5785
39.906
41.3013
42.739
44.2232
45.7435
47.294
48.8642
50.4427
52.0157
53.5665
55.0763
56.5233
57.8834
59.1301
60.2355
61.1707
61.9071
62.4176
62.6783
62.6692
62.3767
61.7941
60.9226
59.7721
58.3601
56.7116
54.8572
52.8319
50.6725
48.4166
46.1005
43.758
41.4194
39.1105
36.8526
34.6621
32.5512
30.5281
28.598
26.7633
25.0246
23.3802
21.8266
20.3587
18.9712
17.6584
16.4153
15.2372
14.1186
13.0535
12.0354
11.0583
10.1171
9.20735
8.32572
7.46645
6.62973
5.80117
4.99986
4.16772
3.42254
2.48957
1.96927
0.5565
1.09124
44.8058
21.6613
34.151
29.2965
32.6818
32.4427
34.0094
34.8511
36.1289
37.3026
38.6136
39.9484
41.3535
42.8031
44.3024
45.8414
47.4148
49.013
50.6255
52.2393
53.8389
55.406
56.92
58.3574
59.6923
60.8968
61.9417
62.7975
63.4356
63.8298
63.9575
63.8016
63.3515
62.6047
61.5669
60.2524
58.6833
56.8884
54.9015
52.7598
50.5016
48.1647
45.7853
43.3959
41.0254
38.6977
36.432
34.2429
32.1406
30.1317
28.2198
26.4062
24.6904
23.0697
21.54
20.0957
18.7309
17.4401
16.218
15.0596
13.9596
12.9115
11.9092
10.9466
10.0189
9.12141
8.2512
7.40231
6.5753
5.75525
4.96255
4.13673
3.40028
2.46976
1.96195
0.543427
1.10116
44.8708
21.6358
34.1707
29.2832
32.6925
32.4584
34.0267
34.8676
36.1506
37.3274
38.6445
39.9857
41.3996
42.86
44.3731
45.9291
47.5237
49.1478
50.7918
52.4437
54.0889
55.7102
57.2877
58.7989
60.2184
61.5187
62.6705
63.6437
64.4085
64.9366
65.203
65.1872
64.8752
64.2603
63.3441
62.1371
60.6582
58.9339
56.9964
54.8826
52.6312
50.2816
47.8715
45.4363
43.0073
40.6114
38.2706
36.0022
33.8186
31.7282
29.736
27.8444
26.0534
24.3614
22.7651
21.2595
19.8388
18.4969
17.2278
16.0264
14.8875
13.8056
12.7742
11.7872
10.8387
9.92399
9.03853
8.17937
7.34052
6.52288
5.71104
4.92665
4.10691
3.37888
2.45068
1.95491
0.530847
1.11062
44.9364
21.6107
34.1908
29.2784
32.7109
32.4712
34.0406
34.8823
36.1693
37.3488
38.6714
40.0184
41.4403
42.9104
44.4359
46.0075
47.6213
49.2693
50.9425
52.6298
54.3176
55.9898
57.6274
59.2087
60.7092
62.1018
63.3575
64.4457
65.3356
65.9973
66.4035
66.5308
66.3615
65.885
65.0987
64.009
62.6312
60.9889
59.1123
57.0372
54.8027
52.449
50.0157
47.5403
45.0569
42.5953
40.1802
37.8319
35.5652
33.3908
31.3154
29.3424
27.4727
25.7055
24.0381
22.4666
20.9855
19.5885
18.2691
17.0216
15.8406
14.7208
13.6565
12.6415
11.6694
10.7345
9.83246
8.95861
8.11016
7.28099
6.4724
5.66848
4.89211
4.07821
3.35829
2.43231
1.94811
0.518762
1.11962
45.0022
21.5861
34.2103
29.2734
32.7162
32.4707
34.0522
34.8961
36.1857
37.367
38.6945
40.0468
41.4758
42.9546
44.4913
46.077
47.7086
49.3784
51.0786
52.7987
54.5263
56.246
57.9403
59.5881
61.1658
62.6471
64.0032
65.2034
66.2163
67.0108
67.5573
67.8298
67.8071
67.4747
66.826
65.8631
64.5971
63.0481
61.2442
59.2196
57.0127
54.6645
52.2163
49.7074
47.1745
44.6503
42.1628
39.7347
37.3838
35.1232
32.9615
30.9037
28.9518
27.1056
25.3631
23.7211
22.1747
20.7181
19.3447
18.0478
16.8215
15.6605
14.5594
13.5124
12.5132
11.5556
10.634
9.7442
8.88159
8.04347
7.22365
6.4238
5.62751
4.85889
4.0506
3.3385
2.41464
1.94155
0.507168
1.12816
45.0679
21.5618
34.2292
29.2685
32.7215
32.4701
34.0606
34.907
36.2
37.3828
38.7141
40.0709
41.5065
42.9931
44.54
46.1383
47.786
49.4758
51.2008
52.9513
54.7158
56.4801
58.2274
59.9381
61.5893
63.1554
64.6082
65.9172
67.0506
67.9762
68.6628
69.0818
69.2088
69.0257
68.5216
67.6941
66.5503
65.1063
63.3871
61.4249
59.2573
56.9252
54.471
51.9363
49.3599
46.7774
44.2198
41.7129
39.2773
36.9286
34.6779
32.5319
30.4942
28.5652
26.7437
25.0269
23.4106
21.8896
20.4575
19.1074
17.8328
16.6275
15.4861
14.4032
13.373
12.3892
11.4457
10.5371
9.65912
8.80738
7.97924
7.16844
6.37702
5.58808
4.82694
4.02403
3.31947
2.39765
1.93521
0.496062
1.13623
45.1325
21.5378
34.248
29.2637
32.7266
32.4693
34.0628
34.9093
36.2115
37.3972
38.731
40.0911
41.5325
43.0264
44.5823
46.1921
47.8542
49.5624
51.3101
53.0886
54.8873
56.693
58.4902
60.26
61.9807
63.6277
65.1734
66.5876
67.8385
68.8931
69.7188
70.2848
70.564
70.5343
70.1809
69.497
68.4853
67.1577
65.5355
63.6481
61.532
59.2274
56.7775
54.2254
51.6125
48.9769
46.3525
43.7684
41.2483
38.8104
36.4683
34.231
32.1037
30.088
28.1835
26.3877
24.6971
23.1069
21.6114
20.2037
18.8769
17.6241
16.4394
15.3172
14.2522
13.2384
12.2696
11.3397
10.4436
9.57711
8.73588
7.91739
7.11528
6.33199
5.55015
4.7962
3.99849
3.30117
2.38132
1.92907
0.485437
1.14385
45.1987
21.5132
34.2665
29.2596
32.7317
32.4687
34.0648
34.9094
36.2159
37.4082
38.746
40.1086
41.5543
43.0544
44.6188
46.2388
47.914
49.6387
51.4073
53.2115
55.0418
56.886
58.7296
60.5549
62.3414
64.0653
65.6998
67.2154
68.5803
69.7612
70.7243
71.4371
71.8698
71.9971
71.7998
71.267
70.3967
69.1964
67.6834
65.8839
63.8318
61.567
59.1326
56.5728
53.9311
51.2485
48.5618
45.9031
43.2992
40.7717
38.3364
36.005
33.7843
31.6779
29.6861
27.8073
26.0381
24.3742
22.8103
21.3403
19.9569
18.653
17.4217
16.2572
15.1539
14.1063
13.1084
12.1541
11.2374
10.3535
9.4981
8.66703
7.85784
7.06412
6.28868
5.51365
4.76665
3.97392
3.28357
2.36563
1.92312
0.475284
1.15101
45.2654
21.4898
34.2845
29.2558
32.7366
32.4681
34.0668
34.9095
36.2167
37.4106
38.7574
40.1242
41.5729
43.0777
44.6495
46.279
47.9661
49.7057
51.493
53.3209
55.1804
57.0602
58.947
60.8243
62.6726
64.4692
66.1885
67.8015
69.2766
70.5805
71.6788
72.5375
73.1244
73.411
73.3745
72.9994
72.2792
71.2167
69.8248
68.1261
66.1515
63.9393
61.5323
58.9755
56.3142
53.5918
50.848
48.1181
45.4323
42.8151
40.2856
37.8575
35.5402
33.339
31.2557
29.2894
27.4374
25.6954
24.0585
22.521
21.0763
19.717
18.4357
17.2256
16.0809
14.996
13.9653
12.9828
12.0426
11.1388
10.2666
9.42199
8.60073
7.80052
7.01488
6.247
5.47855
4.73824
3.95031
3.26665
2.35057
1.91736
0.465595
1.15773
45.332
21.467
34.3022
29.2519
32.7415
32.4674
34.0689
34.9096
36.2175
37.4107
38.7602
40.1357
41.5895
43.0976
44.6748
46.3128
48.0108
49.7639
51.5683
53.4176
55.3038
57.2166
59.1435
61.0692
62.9755
64.8409
66.6406
68.3466
69.928
71.3515
72.5821
73.5849
74.3257
74.7733
74.9012
74.6897
74.1275
73.2128
71.9537
70.3685
68.4851
66.3391
63.9724
61.4304
58.7596
56.0055
53.211
50.4144
47.6493
44.9433
42.3188
39.7923
37.3755
35.0757
32.8964
30.8381
28.8986
27.0741
25.3598
23.7503
22.2392
20.8197
19.4841
18.225
17.0358
15.9104
14.8433
13.8291
12.8617
11.9351
11.0438
10.1829
9.34869
8.5369
7.74535
6.9675
6.20691
5.4448
4.71091
3.92761
3.25038
2.33612
1.91177
0.456359
1.16402
45.3991
21.4444
34.3195
29.2483
32.746
32.4669
34.0707
34.9097
36.2182
37.4107
38.7603
40.1375
41.6014
43.1153
44.6964
46.3406
48.0484
49.814
51.6339
53.5026
55.4132
57.3562
59.3202
61.291
63.2516
65.1816
67.0574
68.8521
70.5355
72.0745
73.4342
74.5786
75.4723
76.0816
76.3766
76.3336
75.9367
75.1788
74.0637
72.6049
70.8262
68.7606
66.4479
63.9333
61.2642
58.4881
55.6503
52.7925
49.9516
47.1586
44.4391
41.8128