/*--------------------------------*- C++ -*----------------------------------*\
  =========                 |
  \\      /  F ield         | OpenFOAM: The Open Source CFD Toolbox
   \\    /   O peration     | Website:  https://openfoam.org
    \\  /    A nd           | Version:  7
     \\/     M anipulation  |
\*---------------------------------------------------------------------------*/
FoamFile
{
    version     2.0;
    format      ascii;
    class       surfaceScalarField;
    location    "2000";
    object      phi;
}
// * * * * * * * * * * * * * * * * * * * * * * * * * * * * * * * * * * * * * //

dimensions      [0 3 -1 0 0 0 0];

internalField   nonuniform List<scalar> 
45906
(
-0.301716
0.06787
-0.301482
0.0657001
-0.290136
0.0677079
-0.301353
0.0635919
-0.289983
0.0655473
-0.278796
0.0675664
-0.30127
0.0615331
-0.289844
0.0634529
-0.278667
0.0654186
-0.267915
0.0674118
-0.301213
0.0595376
-0.289732
0.061421
-0.278547
0.0633327
-0.267778
0.0652817
-0.257405
0.0672663
-0.30117
0.0576072
-0.289641
0.0594467
-0.27844
0.0613142
-0.267653
0.0632074
-0.257264
0.0651412
-0.247132
0.0671112
-0.301136
0.055768
-0.289565
0.0575318
-0.278345
0.0593518
-0.267537
0.0611988
-0.257127
0.06307
-0.246978
0.0649875
-0.237214
0.0669428
-0.301108
0.0539923
-0.289501
0.0557036
-0.27826
0.057447
-0.26743
0.0592438
-0.256995
0.0610665
-0.246826
0.0629181
-0.237048
0.0648216
-0.22764
0.066771
-0.301084
0.0522657
-0.289445
0.053936
-0.278184
0.0556269
-0.267328
0.0573451
-0.256867
0.0591158
-0.246678
0.060918
-0.236887
0.062757
-0.227474
0.0646562
-0.218459
0.0666082
-0.301064
0.0506127
-0.289394
0.0522153
-0.278113
0.0538653
-0.26723
0.0555296
-0.256743
0.057221
-0.246533
0.0589712
-0.236731
0.0607621
-0.227317
0.0625998
-0.218307
0.0645047
-0.209623
0.0664631
-0.301046
0.049006
-0.289348
0.0505667
-0.278047
0.0521491
-0.267137
0.0537716
-0.256622
0.055409
-0.246393
0.0570809
-0.236582
0.0588217
-0.227168
0.0606131
-0.218166
0.0624582
-0.209492
0.0643737
-0.201226
0.0663377
-0.30103
0.0474576
-0.289306
0.0489632
-0.277984
0.0505036
-0.267045
0.052058
-0.256505
0.0536543
-0.246258
0.0552738
-0.23644
0.0569385
-0.227028
0.0586815
-0.218034
0.060481
-0.20937
0.0623362
-0.201114
0.0642616
-0.193175
0.0662275
-0.301016
0.0459666
-0.289265
0.0474169
-0.277922
0.048902
-0.266956
0.0504142
-0.25639
0.0519436
-0.246128
0.0535243
-0.236305
0.0551389
-0.226897
0.0568075
-0.217911
0.0585591
-0.209257
0.0603677
-0.201008
0.0622301
-0.193075
0.0641617
-0.185461
0.066126
-0.301002
0.044519
-0.289225
0.0459271
-0.277862
0.0473567
-0.266868
0.0488136
-0.256279
0.0503025
-0.246003
0.0518191
-0.236178
0.0533973
-0.226775
0.0550172
-0.217798
0.0566942
-0.209152
0.0584539
-0.200908
0.0602681
-0.192978
0.0621331
-0.185366
0.0640669
-0.178049
0.0660281
-0.30099
0.0431351
-0.289187
0.0444803
-0.277802
0.0458671
-0.26678
0.0472687
-0.25617
0.0487044
-0.245884
0.0501833
-0.236059
0.0516999
-0.226662
0.0532845
-0.217693
0.0549124
-0.209053
0.056596
-0.200814
0.0583595
-0.192885
0.0601751
-0.185272
0.0620395
-0.177955
0.063973
-0.170923
0.0659312
-0.300978
0.0417792
-0.289148
0.0430967
-0.277742
0.0444201
-0.266692
0.0457793
-0.256063
0.0471619
-0.24577
0.0485905
-0.235947
0.0500717
-0.226558
0.0515955
-0.217596
0.0531873
-0.208961
0.0548202
-0.200724
0.056506
-0.192795
0.0582694
-0.185181
0.060084
-0.177862
0.0619463
-0.170829
0.063879
-0.164064
0.0658351
-0.300967
0.040477
-0.28911
0.041741
-0.277681
0.0430362
-0.266604
0.0443326
-0.255959
0.0456751
-0.245661
0.0470533
-0.235843
0.0484861
-0.226461
0.0499748
-0.217506
0.051505
-0.208874
0.0531002
-0.200637
0.0547336
-0.192707
0.0564183
-0.185091
0.0581798
-0.17777
0.0599927
-0.170736
0.0618535
-0.163971
0.0637856
-0.157482
0.0657406
-0.300956
0.0392136
-0.289072
0.0404386
-0.277621
0.0416802
-0.266517
0.0429493
-0.255858
0.0442314
-0.245558
0.0455718
-0.235745
0.0469556
-0.226371
0.048396
-0.217421
0.04989
-0.208791
0.051422
-0.200554
0.0530164
-0.192621
0.0546478
-0.185003
0.0563302
-0.17768
0.05809
-0.170645
0.0599018
-0.16388
0.0617619
-0.157391
0.0636943
-0.15115
0.0656487
-0.300945
0.0379937
-0.289033
0.0391749
-0.27756
0.0403777
-0.266432
0.0415944
-0.25576
0.0428516
-0.24546
0.0441336
-0.235654
0.0454807
-0.226287
0.0468717
-0.217341
0.048316
-0.208711
0.0498105
-0.200472
0.0513405
-0.192537
0.0529321
-0.184917
0.054561
-0.177592
0.0562418
-0.170556
0.0580008
-0.16379
0.0598125
-0.157302
0.0616729
-0.151061
0.0636059
-0.145075
0.06556
-0.300935
0.0368119
-0.288994
0.0379546
-0.277499
0.039114
-0.266347
0.0402934
-0.255666
0.0415007
-0.245368
0.0427596
-0.235569
0.0440487
-0.226208
0.0454021
-0.217265
0.0467958
-0.208635
0.0482393
-0.200392
0.0497308
-0.192454
0.0512576
-0.184831
0.0528466
-0.177505
0.054474
-0.170469
0.0561544
-0.163703
0.0579135
-0.157215
0.0597258
-0.150975
0.0615869
-0.14499
0.0635211
-0.139244
0.0654749
-0.300924
0.0356678
-0.288954
0.0367721
-0.277438
0.0378935
-0.266265
0.0390313
-0.255577
0.0402041
-0.245282
0.0414147
-0.23549
0.0426805
-0.226135
0.0439749
-0.217193
0.0453297
-0.20856
0.0467214
-0.200314
0.0481612
-0.192373
0.0496491
-0.184747
0.0511733
-0.17742
0.052761
-0.170383
0.0543882
-0.163618
0.0560691
-0.15713
0.057829
-0.150892
0.0596423
-0.144907
0.0615043
-0.139163
0.0634399
-0.133638
0.0653934
-0.300913
0.0345624
-0.288913
0.0356271
-0.277376
0.0367108
-0.266184
0.0378127
-0.255492
0.0389466
-0.245202
0.0401238
-0.235416
0.041341
-0.226065
0.0426109
-0.217123
0.0439054
-0.208488
0.0452573
-0.200238
0.0466448
-0.192292
0.0480808
-0.184664
0.0495662
-0.177336
0.0510893
-0.170298
0.0526768
-0.163534
0.0543046
-0.157048
0.0559865
-0.15081
0.0577476
-0.144827
0.059562
-0.139084
0.0614252
-0.13356
0.0633622
-0.128261
0.0653153
-0.300902
0.0334903
-0.288872
0.0345208
-0.277315
0.0355656
-0.266105
0.0366319
-0.255412
0.0377324
-0.245127
0.0388718
-0.235347
0.0400552
-0.225999
0.041275
-0.217056
0.0425437
-0.208417
0.0438345
-0.200162
0.045182
-0.192213
0.0465657
-0.184582
0.0479993
-0.177253
0.0494836
-0.170216
0.0510066
-0.163452
0.0525949
-0.156967
0.0542238
-0.150731
0.055907
-0.144749
0.0576694
-0.139007
0.0594851
-0.133484
0.0613493
-0.128187
0.0632878
-0.123105
0.0652406
-0.300891
0.0324527
-0.288829
0.0334478
-0.277253
0.0344592
-0.266028
0.0354886
-0.255336
0.0365557
-0.245058
0.0376627
-0.235283
0.0388076
-0.225936
0.0399923
-0.21699
0.0412096
-0.208347
0.042474
-0.200088
0.0437604
-0.192135
0.0451043
-0.184502
0.0464857
-0.177172
0.0479182
-0.170135
0.0494025
-0.163372
0.0509262
-0.156888
0.0525156
-0.150653
0.0541459
-0.144673
0.0558306
-0.138932
0.0575944
-0.13341
0.0594113
-0.128114
0.0612767
-0.123034
0.0632167
-0.118144
0.0651692
-0.300879
0.0314469
-0.288786
0.0324095
-0.277192
0.0333866
-0.265953
0.0343844
-0.255264
0.0354166
-0.244992
0.0364906
-0.235223
0.0376024
-0.225876
0.0387473
-0.216927
0.0399283
-0.208279
0.0411409
-0.200015
0.0424009
-0.192059
0.043684
-0.184424
0.0450257
-0.177092
0.0464061
-0.170055
0.0478385
-0.163293
0.0493234
-0.15681
0.0508484
-0.150577
0.0524391
-0.144598
0.0540709
-0.138858
0.0557571
-0.133338
0.0575223
-0.128044
0.0593406
-0.122965
0.0612073
-0.118076
0.0631488
-0.113389
0.0651009
-0.300867
0.0304754
-0.288742
0.0314031
-0.277132
0.032349
-0.265881
0.0333144
-0.255196
0.0343165
-0.244932
0.0353557
-0.235166
0.0364338
-0.225818
0.0375444
-0.216864
0.0386848
-0.208211
0.0398606
-0.199943
0.0410688
-0.191984
0.0423257
-0.184347
0.0436069
-0.177014
0.0449476
-0.169977
0.0463278
-0.163215
0.0477608
-0.156733
0.0492468
-0.150501
0.050773
-0.144524
0.0523653
-0.138786
0.0539987
-0.133268
0.0556866
-0.127975
0.0574533
-0.122897
0.059273
-0.11801
0.0611409
-0.113324
0.0630839
-0.108824
0.0650357
-0.300854
0.0295314
-0.288698
0.030431
-0.277072
0.0313437
-0.265812
0.0322798
-0.255132
0.0332507
-0.244875
0.0342595
-0.235112
0.0353018
-0.225762
0.0363779
-0.216803
0.0374833
-0.208144
0.0386181
-0.199872
0.0397894
-0.19191
0.0409947
-0.184271
0.0422499
-0.176938
0.0435303
-0.1699
0.0448707
-0.163138
0.0462513
-0.156658
0.0476852
-0.150427
0.0491725
-0.144451
0.0507003
-0.138715
0.0522942
-0.133199
0.0539294
-0.127907
0.055619
-0.122831
0.0573873
-0.117945
0.0592084
-0.11326
0.0610776
-0.108762
0.063022
-0.10444
0.0649735
-0.300841
0.02862
-0.288653
0.0294866
-0.277014
0.030373
-0.265746
0.0312779
-0.255073
0.0322204
-0.244821
0.0331974
-0.235061
0.0342083
-0.225708
0.0352478
-0.216743
0.0363182
-0.208079
0.0374178
-0.199802
0.038548
-0.191837
0.0397164
-0.184197
0.0409202
-0.176862
0.0421747
-0.169824
0.0434548
-0.163063
0.0447954
-0.156583
0.0461767
-0.150354
0.0476118
-0.144379
0.0491006
-0.138645
0.0506302
-0.13313
0.0522259
-0.127841
0.0538629
-0.122766
0.0555543
-0.117882
0.0573241
-0.113199
0.0591468
-0.108701
0.0610172
-0.104381
0.062963
-0.100236
0.0649142
-0.300827
0.0277346
-0.288608
0.0285748
-0.276958
0.0294301
-0.265684
0.0303107
-0.255018
0.0312228
-0.244771
0.0321706
-0.235012
0.0331485
-0.225655
0.0341558
-0.216685
0.0351895
-0.208014
0.0362541
-0.199733
0.0373491
-0.191765
0.0384763
-0.184123
0.0396431
-0.176788
0.0408462
-0.16975
0.0421004
-0.162989
0.0433806
-0.156509
0.0447217
-0.150281
0.0461041
-0.144308
0.0475407
-0.138575
0.0490313
-0.133063
0.0505627
-0.127775
0.0521603
-0.122702
0.0537992
-0.11782
0.0554924
-0.113138
0.0572639
-0.108643
0.059088
-0.104323
0.0609596
-0.10018
0.0629068
-0.0961988
0.0648576
-0.300812
0.0268778
-0.288563
0.0276892
-0.276903
0.0285198
-0.265625
0.0293711
-0.254967
0.0302597
-0.244725
0.0311763
-0.234965
0.0321239
-0.225604
0.0330974
-0.216628
0.0340988
-0.207952
0.0351269
-0.199666
0.036187
-0.191695
0.0372789
-0.184051
0.0384042
-0.176715
0.0395702
-0.169677
0.040773
-0.162916
0.0420273
-0.156437
0.0433079
-0.150209
0.0446499
-0.144238
0.0460336
-0.138507
0.047472
-0.132996
0.0489645
-0.12771
0.0504979
-0.12264
0.0520974
-0.117759
0.0537383
-0.113079
0.0554333
-0.108585
0.0572064
-0.104267
0.059032
-0.100125
0.0609048
-0.0961453
0.0628534
-0.0923273
0.0648038
-0.300796
0.0260482
-0.288517
0.0268321
-0.276849
0.0276356
-0.265569
0.0284641
-0.254919
0.029324
-0.244681
0.0302162
-0.234921
0.0311315
-0.225554
0.032074
-0.216572
0.0330416
-0.207891
0.0340376
-0.1996
0.0350614
-0.191626
0.0361184
-0.18398
0.0372081
-0.176643
0.0383323
-0.169605
0.0394979
-0.162844
0.0407009
-0.156365
0.0419555
-0.150138
0.0432369
-0.144168
0.04458
-0.138439
0.0459654
-0.13293
0.0474058
-0.127646
0.0489004
-0.122577
0.0504358
-0.117699
0.0520373
-0.113021
0.0536801
-0.108529
0.0553769
-0.104212
0.0571517
-0.100072
0.0589787
-0.0960931
0.0608527
-0.0922764
0.0628025
-0.0886017
0.0647525
-0.30078
0.0252432
-0.288471
0.0260025
-0.276797
0.0267802
-0.265516
0.027583
-0.254876
0.0284204
-0.244641
0.0292832
-0.234878
0.0301732
-0.225506
0.0310828
-0.216517
0.0320193
-0.207831
0.0329817
-0.199537
0.0339738
-0.191559
0.0349945
-0.183911
0.036049
-0.176572
0.0371372
-0.169533
0.0382608
-0.162772
0.0394266
-0.156294
0.04063
-0.150068
0.0418853
-0.144099
0.0431677
-0.138371
0.0445123
-0.132864
0.0458996
-0.127582
0.0473421
-0.122516
0.0488388
-0.11764
0.0503763
-0.112964
0.0519798
-0.108473
0.0536246
-0.104159
0.0553232
-0.10002
0.0570995
-0.0960424
0.0589279
-0.0922268
0.0608031
-0.0885534
0.0627541
-0.0850372
0.0647037
-0.300762
0.0244641
-0.288426
0.0251976
-0.276747
0.0259524
-0.265467
0.0267306
-0.254835
0.0275425
-0.244602
0.0283819
-0.234836
0.0292418
-0.225458
0.0301258
-0.216464
0.0310293
-0.207772
0.0319608
-0.199474
0.0329194
-0.191494
0.0339085
-0.183843
0.0349267
-0.176503
0.0359794
-0.169463
0.0370666
-0.162702
0.0381901
-0.156224
0.0393563
-0.149998
0.0405604
-0.14403
0.0418167
-0.138304
0.0431004
-0.132798
0.0444468
-0.127519
0.0458363
-0.122455
0.047281
-0.117581
0.0487798
-0.112907
0.0503194
-0.108418
0.0519249
-0.104106
0.0535717
-0.0999687
0.0552721
-0.0959929
0.05705
-0.0921786
0.0588797
-0.0885062
0.0607559
-0.0849912
0.0627081
-0.0816086
0.0646573
-0.300744
0.0237081
-0.28838
0.0244188
-0.276699
0.0251496
-0.26542
0.0259058
-0.254798
0.0266929
-0.244566
0.027506
-0.234796
0.0283421
-0.225412
0.0291957
-0.216412
0.0300735
-0.207715
0.0309721
-0.199413
0.0318999
-0.19143
0.0328557
-0.183777
0.0338424
-0.176435
0.0348585
-0.169393
0.0359098
-0.162631
0.0369965
-0.156154
0.0381203
-0.149929
0.0392873
-0.143962
0.0404924
-0.138237
0.0417499
-0.132733
0.0430352
-0.127456
0.0443836
-0.122394
0.0457754
-0.117522
0.0472224
-0.11285
0.0487234
-0.108364
0.050265
-0.104053
0.0518725
-0.0999183
0.0535213
-0.0959442
0.0552235
-0.0921315
0.0570029
-0.0884604
0.0588339
-0.0849464
0.0607111
-0.0815649
0.0626644
-0.078326
0.0646131
-0.300725
0.0229754
-0.288336
0.0236635
-0.276653
0.024373
-0.265377
0.0251061
-0.254763
0.0258709
-0.244531
0.0266584
-0.234758
0.0274676
-0.225368
0.0282973
-0.216361
0.029145
-0.207659
0.0300179
-0.199354
0.0309127
-0.191368
0.0318376
-0.183713
0.0327911
-0.176368
0.0337757
-0.169325
0.0347901
-0.162562
0.0358405
-0.156085
0.0369272
-0.149861
0.0380517
-0.143894
0.0392197
-0.13817
0.0404261
-0.132668
0.041685
-0.127393
0.0429722
-0.122333
0.0443228
-0.117464
0.0457169
-0.112794
0.0471663
-0.10831
0.0486694
-0.104001
0.0502131
-0.0998684
0.0518227
-0.0958963
0.0534733
-0.0920853
0.0551773
-0.0884156
0.0569581
-0.0849029
0.0587904
-0.0815223
0.0606685
-0.0782845
0.0626228
-0.0751643
0.0645712
-0.300705
0.0222672
-0.288292
0.0229314
-0.27661
0.0236198
-0.265336
0.0243325
-0.25473
0.0250737
-0.244498
0.025838
-0.234721
0.0266213
-0.225324
0.0274243
-0.216312
0.0282482
-0.207605
0.029091
-0.199296
0.0299601
-0.191307
0.0308519
-0.183649
0.0317745
-0.176303
0.0327259
-0.169258
0.0337087
-0.162494
0.0347218
-0.156016
0.0357717
-0.149792
0.0368588
-0.143827
0.0379844
-0.138104
0.0391537
-0.132604
0.0403615
-0.12733
0.0416221
-0.122272
0.0429113
-0.117405
0.0442643
-0.112738
0.045661
-0.108256
0.0471127
-0.10395
0.048618
-0.099819
0.0501637
-0.0958488
0.0517752
-0.0920397
0.0534277
-0.0883717
0.0551334
-0.0848604
0.0569156
-0.081481
0.0587491
-0.0782441
0.0606281
-0.0751249
0.0625834
-0.0721386
0.0645313
-0.300684
0.0215795
-0.288248
0.022224
-0.276568
0.02289
-0.265299
0.0235823
-0.2547
0.0243025
-0.244467
0.0250423
-0.234685
0.0258021
-0.225282
0.0265793
-0.216264
0.0273768
-0.207553
0.0281961
-0.19924
0.0290349
-0.191248
0.0299008
-0.183588
0.0307901
-0.176239
0.0317106
-0.169192
0.0326602
-0.162427
0.0336415
-0.155948
0.0346539
-0.149724
0.0357038
-0.14376
0.0367917
-0.138039
0.0379185
-0.132539
0.0390893
-0.127267
0.0402988
-0.122211
0.0415613
-0.117347
0.0428528
-0.112682
0.0442083
-0.108203
0.0456075
-0.103899
0.0470615
-0.0997699
0.0485689
-0.0958017
0.0501166
-0.0919945
0.0517301
-0.0883284
0.0533844
-0.0848187
0.0550917
-0.0814406
0.0568752
-0.0782048
0.0587098
-0.0750865
0.0605896
-0.0721011
0.0625459
-0.0692338
0.0644933
-0.300663
0.0209124
-0.288206
0.0215372
-0.276529
0.0221848
-0.265264
0.0228553
-0.254672
0.0235545
-0.244437
0.0242726
-0.23465
0.0250077
-0.225242
0.0257614
-0.216218
0.0265334
-0.207503
0.0273264
-0.199186
0.0281418
-0.19119
0.0289772
-0.183527
0.0298402
-0.176176
0.0307274
-0.169128
0.0316462
-0.162361
0.0325944
-0.155881
0.0335746
-0.149657
0.0345865
-0.143693
0.0356368
-0.137973
0.0367259
-0.132475
0.0378543
-0.127205
0.0390268
-0.122151
0.0402381
-0.117288
0.0415026
-0.112626
0.0427966
-0.108149
0.0441547
-0.103848
0.0455564
-0.099721
0.0470127
-0.095755
0.0485221
-0.0919497
0.0500718
-0.0882855
0.0516872
-0.0847776
0.0533433
-0.0814011
0.0550521
-0.0781665
0.0568369
-0.0750492
0.0586726
-0.0720647
0.0605532
-0.0691982
0.0625104
-0.0664448
0.0644572
-0.30064
0.0202671
-0.288165
0.0208711
-0.276492
0.0215001
-0.265232
0.0221526
-0.254647
0.0228295
-0.244408
0.023526
-0.234617
0.0242391
-0.225202
0.0249683
-0.216174
0.025717
-0.207454
0.0264848
-0.199133
0.0272741
-0.191134
0.0280859
-0.183468
0.0289182
-0.176115
0.0297788
-0.169064
0.0306642
-0.162296
0.0315815
-0.155815
0.0325285
-0.14959
0.033508
-0.143626
0.0345199
-0.137907
0.0355711
-0.132411
0.0366617
-0.127142
0.0377919
-0.12209
0.0389662
-0.117229
0.0401795
-0.11257
0.0414462
-0.108095
0.0427428
-0.103796
0.0441035
-0.0996723
0.0455077
-0.0957084
0.0469661
-0.0919052
0.0484776
-0.088243
0.0500292
-0.0847368
0.0516465
-0.0813621
0.0533043
-0.078129
0.0550146
-0.0750129
0.0568006
-0.0720293
0.0586373
-0.0691636
0.0605185
-0.0664111
0.0624766
-0.0637667
0.064423
-0.300617
0.0196411
-0.288125
0.020227
-0.276457
0.0208361
-0.265202
0.0214704
-0.254623
0.0221286
-0.244381
0.0228022
-0.234585
0.0234937
-0.225164
0.024201
-0.216131
0.0249254
-0.207407
0.0256701
-0.199083
0.0264342
-0.19108
0.0272199
-0.18341
0.0280284
-0.176055
0.028858
-0.169002
0.0297166
-0.162232
0.0306005
-0.15575
0.0315167
-0.149525
0.0324628
-0.14356
0.0334419
-0.137842
0.0344544
-0.132347
0.0355068
-0.12708
0.0365991
-0.122029
0.0377312
-0.117171
0.0389075
-0.112513
0.0401229
-0.108041
0.041392
-0.103745
0.0426912
-0.0996234
0.0440546
-0.095662
0.0454612
-0.0918609
0.0469218
-0.0882006
0.0484352
-0.0846964
0.0499888
-0.0813234
0.0516078
-0.078092
0.0532673
-0.0749773
0.054979
-0.0719949
0.0567661
-0.0691301
0.0586038
-0.0663782
0.0604856
-0.0637347
0.0624446
-0.0611994
0.0643904
-0.300593
0.0190344
-0.288086
0.0196023
-0.276424
0.0201941
-0.265175
0.0208087
-0.2546
0.021448
-0.244355
0.0221025
-0.234553
0.0227711
-0.225127
0.0234569
-0.21609
0.0241597
-0.207362
0.02488
-0.199034
0.0256212
-0.191028
0.0263819
-0.183355
0.0271642
-0.175996
0.0279697
-0.168941
0.0287969
-0.16217
0.0296538
-0.155686
0.0305366
-0.14946
0.0314519
-0.143495
0.0323975
-0.137776
0.0333767
-0.132282
0.03439
-0.127017
0.035444
-0.121969
0.0365383
-0.117112
0.0376724
-0.112456
0.0388508
-0.107987
0.0400685
-0.103693
0.0413401
-0.0995742
0.042642
-0.0956154
0.044008
-0.0918167
0.045417
-0.0881585
0.0468797
-0.0846562
0.048395
-0.081285
0.0499504
-0.0780553
0.0515712
-0.0749422
0.0532323
-0.0719611
0.0549453
-0.0690974
0.0567334
-0.0663464
0.058572
-0.0637034
0.0604544
-0.061169
0.0624142
-0.0587329
0.0643594
-0.300568
0.0184456
-0.288049
0.018997
-0.276393
0.0195714
-0.265149
0.0201688
-0.254579
0.0207877
-0.24433
0.021423
-0.234524
0.0220726
-0.225092
0.0227358
-0.21605
0.0234172
-0.207318
0.024116
-0.198987
0.0248328
-0.190977
0.0255707
-0.183301
0.026328
-0.175939
0.0271072
-0.168881
0.0279099
-0.162108
0.0287352
-0.155623
0.0295908
-0.149396
0.0304726
-0.143431
0.0313874
-0.137712
0.0323328
-0.132218
0.0333125
-0.126954
0.0343271
-0.121907
0.0353829
-0.117053
0.0364792
-0.1124
0.0376156
-0.107932
0.0387962
-0.103641
0.0400162
-0.0995245
0.0412904
-0.0955685
0.0425951
-0.0917724
0.0439637
-0.0881164
0.045375
-0.0846161
0.0468396
-0.0812468
0.0483568
-0.0780189
0.049914
-0.0749075
0.0515365
-0.0719279
0.053199
-0.0690654
0.0549133
-0.0663154
0.0567023
-0.0636733
0.0585418
-0.0611394
0.0604248
-0.0587041
0.0623854
-0.0563621
0.0643299
-0.300542
0.0178761
-0.288013
0.0184097
-0.276364
0.0189679
-0.265126
0.0195481
-0.25456
0.0201491
-0.244306
0.0207638
-0.234495
0.0213943
-0.225058
0.0220387
-0.216012
0.0226976
-0.207276
0.0233751
-0.198941
0.0240704
-0.190928
0.024784
-0.183249
0.0255185
-0.175883
0.0262727
-0.168823
0.0270489
-0.162047
0.0278493
-0.155561
0.028673
-0.149333
0.0295276
-0.143367
0.0304089
-0.137648
0.0313233
-0.132154
0.0322689
-0.126891
0.0332495
-0.121846
0.0342656
-0.116993
0.0353235
-0.112342
0.0364221
-0.107877
0.0375607
-0.103588
0.0387436
-0.0994744
0.0399661
-0.095521
0.041243
-0.0917277
0.0425504
-0.0880743
0.0439215
-0.0845761
0.045335
-0.0812088
0.0468016
-0.0779827
0.0483205
-0.074873
0.0498794
-0.071895
0.0515035
-0.0690339
0.0531675
-0.066285
0.0548829
-0.0636439
0.0566729
-0.0611108
0.0585132
-0.0586759
0.0603967
-0.0563348
0.0623581
-0.0540971
0.0643019
-0.300515
0.0173246
-0.287979
0.0178418
-0.276337
0.0183825
-0.265104
0.0189465
-0.254541
0.0195296
-0.244283
0.0201262
-0.234467
0.0207362
-0.225026
0.0213618
-0.215975
0.0220022
-0.207236
0.0226573
-0.198897
0.0233313
-0.190881
0.0240232
-0.183198
0.0247335
-0.17583
0.025465
-0.168766
0.0262161
-0.161988
0.0269897
-0.1555
0.0277882
-0.14927
0.0286105
-0.143304
0.0294644
-0.137584
0.0303454
-0.132091
0.0312599
-0.126828
0.032206
-0.121784
0.0331878
-0.116934
0.0342058
-0.112285
0.0352659
-0.107822
0.0363669
-0.103535
0.0375079
-0.0994239
0.0386932
-0.0954731
0.0399182
-0.0916824
0.0411977
-0.0880317
0.0425078
-0.0845361
0.0438814
-0.0811708
0.045297
-0.0779465
0.0467655
-0.0748386
0.0482861
-0.0718622
0.0498467
-0.0690027
0.0514724
-0.0662552
0.0531377
-0.0636151
0.0548542
-0.0610829
0.056645
-0.0586488
0.0584861
-0.0563081
0.06037
-0.0540712
0.0623321
-0.0519178
0.0642752
-0.300488
0.0167885
-0.287946
0.0172918
-0.276311
0.0178162
-0.265085
0.0183628
-0.254524
0.0189291
-0.244261
0.0195076
-0.234441
0.0200998
-0.224995
0.0207051
-0.21594
0.0213269
-0.207197
0.0219636
-0.198855
0.0226152
-0.190836
0.0232857
-0.18315
0.0239744
-0.175778
0.0246816
-0.168712
0.0254101
-0.161931
0.0261584
-0.15544
0.0269297
-0.149209
0.0277266
-0.143241
0.028548
-0.137521
0.0294015
-0.132028
0.0302824
-0.126765
0.0311973
-0.121723
0.0321443
-0.116873
0.0331276
-0.112227
0.0341476
-0.107766
0.0352102
-0.103482
0.0363137
-0.0993731
0.0374571
-0.0954247
0.0386448
-0.0916366
0.0398724
-0.0879887
0.0411547
-0.0844957
0.0424674
-0.0811328
0.0438434
-0.0779105
0.045261
-0.0748043
0.0467312
-0.0718296
0.0482535
-0.0689717
0.0498157
-0.0662257
0.0514429
-0.0635869
0.0531094
-0.0610556
0.0548269
-0.0586223
0.0566186
-0.0562823
0.0584603
-0.0540458
0.0603446
-0.0518932
0.0623075
-0.0498241
0.0642499
-0.30046
0.016269
-0.287915
0.0167574
-0.276287
0.0172679
-0.265067
0.0177981
-0.254507
0.0183463
-0.24424
0.018908
-0.234415
0.0194823
-0.224965
0.02007
-0.215907
0.0206717
-0.207161
0.02129
-0.198815
0.0219232
-0.190792
0.0225713
-0.183102
0.0232385
-0.175728
0.023924
-0.168658
0.0246284
-0.161874
0.025354
-0.155381
0.0260998
-0.149148
0.0268691
-0.143179
0.0276647
-0.137459
0.0284856
-0.131965
0.029339
-0.126703
0.0302201
-0.121661
0.0311356
-0.116813
0.0320838
-0.112168
0.033069
-0.10771
0.0340914
-0.103428
0.0351565
-0.0993219
0.0362625
-0.095376
0.0374083
-0.0915903
0.0385985
-0.087945
0.0398287
-0.0844547
0.0411137
-0.0810944
0.0424291
-0.0778744
0.0438073
-0.0747701
0.0452268
-0.0717971
0.0466987
-0.0689408
0.0482226
-0.0661963
0.0497864
-0.0635589
0.0514149
-0.0610289
0.0530827
-0.0585965
0.0548011
-0.0562572
0.0565935
-0.0540214
0.0584359
-0.0518691
0.0603205
-0.0498008
0.0622842
-0.0478161
0.0642258
-0.300432
0.0157663
-0.287885
0.0162397
-0.276265
0.016735
-0.26505
0.0172513
-0.254492
0.0177825
-0.24422
0.0183261
-0.234391
0.0188837
-0.224936
0.0194538
-0.215875
0.0200381
-0.207125
0.0206364
-0.198776
0.0212512
-0.190749
0.021881
-0.183057
0.0225257
-0.175679
0.0231897
-0.168607
0.0238724
-0.16182
0.0245739
-0.155324
0.0252969
-0.149089
0.0260405
-0.143118
0.0268082
-0.137397
0.0276028
-0.131903
0.0284235
-0.126641
0.029277
-0.121599
0.0301587
-0.116752
0.0310751
-0.112109
0.0320248
-0.107653
0.033012
-0.103374
0.0340369
-0.0992702
0.0351047
-0.0953267
0.0362133
-0.0915436
0.0373616
-0.0879008
0.0385543
-0.0844131
0.0397871
-0.0810555
0.0410748
-0.077838
0.0423927
-0.0747359
0.0437731
-0.0717647
0.0451944
-0.06891
0.0466679
-0.0661671
0.0481934
-0.0635311
0.0497586
-0.0610024
0.0513885
-0.0585712
0.0530573
-0.0562328
0.0547767
-0.0539976
0.0565697
-0.051846
0.0584128
-0.0497779
0.0602977
-0.047794
0.0622621
-0.0458938
0.0642028
-0.300403
0.0152778
-0.287858
0.0157387
-0.276244
0.0162187
-0.265035
0.0167198
-0.254477
0.0172365
-0.244201
0.0177632
-0.234368
0.0183028
-0.224909
0.0188565
-0.215844
0.0194233
-0.207091
0.0200043
-0.198739
0.0205993
-0.190709
0.0212108
-0.183013
0.0218371
-0.175632
0.0224786
-0.168556
0.0231396
-0.161767
0.0238194
-0.155268
0.0245183
-0.149031
0.0252389
-0.143058
0.0259805
-0.137336
0.026747
-0.131841
0.0275411
-0.126579
0.0283617
-0.121538
0.0292157
-0.116692
0.0300982
-0.11205
0.0310158
-0.107596
0.0319673
-0.103319
0.0329569
-0.0992177
0.0339845
-0.095277
0.035055
-0.0914964
0.0361661
-0.0878561
0.0373169
-0.084371
0.0385121
-0.081016
0.0397476
-0.0778011
0.0410379
-0.0747014
0.0423582
-0.0717323
0.0437406
-0.0688793
0.0451637
-0.0661379
0.0466387
-0.0635034
0.0481657
-0.0609761
0.0497323
-0.0585461
0.0513634
-0.0562088
0.0530333
-0.0539744
0.0547535
-0.0518234
0.0565471
-0.049756
0.0583908
-0.0477723
0.060276
-0.0458728
0.0622411
-0.0440419
0.064181
-0.300373
0.014806
-0.287832
0.0152519
-0.276224
0.0157191
-0.265021
0.0162048
-0.254463
0.0167057
-0.244182
0.017218
-0.234346
0.0177409
-0.224883
0.0182769
-0.215815
0.0188274
-0.207059
0.019391
-0.198703
0.0199688
-0.19067
0.0205606
-0.182971
0.0211686
-0.175586
0.0217916
-0.168508
0.02243
-0.161716
0.0230881
-0.155214
0.0237652
-0.148974
0.0244617
-0.143
0.0251801
-0.137275
0.0259202
-0.13178
0.0266857
-0.126518
0.0274796
-0.121477
0.0283006
-0.116631
0.0291553
-0.11199
0.0300388
-0.107538
0.0309579
-0.103263
0.0319115
-0.0991644
0.0329036
-0.0952264
0.0339339
-0.0914486
0.0350072
-0.0878109
0.0361209
-0.0843283
0.0372742
-0.0809758
0.0384719
-0.0777636
0.0397101
-0.0746665
0.0410029
-0.0716996
0.0423255
-0.0688485
0.0437099
-0.0661088
0.0451346
-0.0634758
0.0466111
-0.0609499
0.0481395
-0.0585213
0.0497075
-0.0561851
0.0513397
-0.0539517
0.0530105
-0.0518014
0.0547315
-0.0497346
0.0565257
-0.0477515
0.05837
-0.0458521
0.0602553
-0.044022
0.0622212
-0.0422657
0.0641602
-0.300343
0.0143483
-0.287808
0.0147819
-0.276206
0.0152335
-0.265008
0.0157064
-0.254449
0.0161914
-0.244165
0.0166881
-0.234325
0.0171968
-0.224858
0.0177163
-0.215788
0.0182492
-0.207028
0.0187966
-0.19867
0.0193571
-0.190633
0.0199316
-0.18293
0.0205201
-0.175543
0.0211248
-0.168461
0.0217447
-0.161666
0.02238
-0.155162
0.0230354
-0.148919
0.02371
-0.142942
0.0244042
-0.137216
0.0251208
-0.13172
0.0258596
-0.126457
0.0266245
-0.121416
0.0274186
-0.116571
0.0282402
-0.111931
0.0290958
-0.10748
0.0299807
-0.103207
0.0309016
-0.0991103
0.0318575
-0.095175
0.0328522
-0.0914001
0.0338854
-0.0877651
0.0349614
-0.084285
0.0360777
-0.0809351
0.0372335
-0.0777254
0.0384338
-0.0746309
0.0396745
-0.0716665
0.0409698
-0.0688176
0.0422946
-0.0660797
0.0436808
-0.0634483
0.045107
-0.0609238
0.046585
-0.0584965
0.0481147
-0.0561615
0.0496839
-0.0539292
0.0513173
-0.0517799
0.0529889
-0.0497137
0.0547106
-0.0477311
0.0565054
-0.0458324
0.0583502
-0.0440024
0.0602357
-0.0422468
0.0622023
-0.04057
0.0641403
-0.300313
0.0139035
-0.287785
0.014326
-0.276189
0.0147646
-0.264997
0.0152219
-0.254437
0.0156936
-0.244148
0.0161746
-0.234304
0.0166679
-0.224835
0.0171734
-0.215761
0.0176899
-0.206999
0.0182198
-0.198637
0.0187642
-0.190597
0.0193215
-0.182892
0.0198929
-0.175501
0.0204781
-0.168416
0.0210796
-0.161617
0.0216963
-0.15511
0.0223288
-0.148865
0.0229816
-0.142886
0.0236539
-0.137158
0.0243461
-0.13166
0.0250611
-0.126396
0.0257989
-0.121355
0.0265637
-0.116511
0.0273581
-0.111871
0.0281806
-0.107421
0.0290375
-0.10315
0.0299239
-0.0990556
0.0308468
-0.0951228
0.0318052
-0.0913506
0.0328028
-0.0877185
0.0338388
-0.0842412
0.0349176
-0.0808939
0.0360365
-0.0776866
0.0371947
-0.0745946
0.0383975
-0.0716328
0.0396407
-0.0687863
0.0409385
-0.0660504
0.0422654
-0.0634207
0.0436532
-0.0608977
0.0450809
-0.0584717
0.0465602
-0.0561381
0.0480912
-0.053907
0.0496617
-0.0517586
0.051296
-0.0496933
0.0529685
-0.0477114
0.0546909
-0.0458131
0.0564861
-0.0439837
0.0583315
-0.0422281
0.0602171
-0.0405521
0.0621844
-0.0389297
0.0641215
-0.300281
0.0134742
-0.287765
0.013883
-0.276172
0.0143098
-0.264986
0.014754
-0.254424
0.0152098
-0.244132
0.0156776
-0.234285
0.0161554
-0.224813
0.0166456
-0.215736
0.0171483
-0.206971
0.017662
-0.198606
0.0181889
-0.190563
0.0187302
-0.182854
0.0192844
-0.17546
0.0198525
-0.168372
0.0204345
-0.16157
0.0210328
-0.155061
0.0216465
-0.148813
0.0222763
-0.142831
0.0229268
-0.137101
0.023597
-0.131601
0.0242874
-0.126336
0.0250011
-0.121294
0.0257384
-0.11645
0.0265033
-0.111812
0.0272984
-0.107363
0.028122
-0.103093
0.0289804
-0.0990003
0.0298686
-0.0950697
0.0307938
-0.0913002
0.0317548
-0.087671
0.0327553
-0.0841966
0.0337942
-0.080852
0.0348757
-0.0776473
0.0359971
-0.0745577
0.0371578
-0.0715984
0.0383631
-0.0687544
0.0396088
-0.0660208
0.0409088
-0.063393
0.0422377
-0.0608716
0.0436271
-0.058447
0.0450562
-0.0561147
0.0465368
-0.0538848
0.0480691
-0.0517376
0.0496406
-0.0496732
0.0512759
-0.047692
0.0529492
-0.0457944
0.0546722
-0.0439654
0.0564679
-0.0422104
0.0583137
-0.0405344
0.0601994
-0.0389128
0.0621674
-0.037365
0.0641035
-0.30025
0.0130565
-0.287746
0.0134554
-0.276157
0.0138676
-0.264976
0.0143001
-0.254413
0.0147424
-0.244117
0.0151945
-0.234267
0.0156594
-0.224791
0.0161343
-0.215712
0.0166218
-0.206945
0.0171217
-0.198577
0.0176325
-0.190531
0.0181565
-0.182819
0.0186947
-0.175422
0.0192457
-0.16833
0.0198107
-0.161525
0.0203894
-0.155012
0.0209847
-0.148762
0.0215955
-0.142778
0.0222228
-0.137045
0.022871
-0.131544
0.0235393
-0.126277
0.0242282
-0.121234
0.0249411
-0.11639
0.0256781
-0.111752
0.0264435
-0.107304
0.0272396
-0.103035
0.0280646
-0.0989445
0.0289246
-0.095016
0.0298149
-0.091249
0.0307425
-0.0876226
0.0317063
-0.0841511
0.0327098
-0.0808094
0.0337516
-0.0776073
0.0348357
-0.0745202
0.0359596
-0.0715633
0.0371228
-0.0687218
0.0383305
-0.0659906
0.0395786
-0.063365
0.0408808
-0.0608454
0.0422115
-0.0584223
0.0436024
-0.0560913
0.0450328
-0.0538627
0.0465147
-0.0517166
0.0480481
-0.0496533
0.0496207
-0.047673
0.0512569
-0.045776
0.0529308
-0.0439476
0.0546544
-0.042193
0.0564505
-0.0405175
0.0582969
-0.0388959
0.0601825
-0.0373489
0.0621513
-0.0358557
0.0640864
-0.300218
0.0126516
-0.287729
0.0130393
-0.276142
0.0134409
-0.264968
0.0138589
-0.254402
0.014289
-0.244102
0.0147279
-0.23425
0.0151772
-0.224771
0.0156393
-0.21569
0.0161117
-0.206919
0.0165966
-0.198549
0.0170937
-0.1905
0.0176016
-0.182785
0.0181225
-0.175385
0.0186576
-0.16829
0.0192055
-0.161482
0.0197673
-0.154966
0.0203429
-0.148712
0.0209352
-0.142726
0.0215434
-0.136991
0.0221683
-0.131487
0.0228145
-0.126219
0.0234812
-0.121175
0.0241688
-0.11633
0.0248811
-0.111692
0.0256183
-0.107245
0.0263844
-0.102978
0.0271818
-0.0988884
0.0280085
-0.0949618
0.0288704
-0.0911969
0.0297629
-0.0875731
0.0306931
-0.0841046
0.0316598
-0.0807658
0.0326662
-0.0775666