/*--------------------------------*- C++ -*----------------------------------*\
  =========                 |
  \\      /  F ield         | OpenFOAM: The Open Source CFD Toolbox
   \\    /   O peration     | Website:  https://openfoam.org
    \\  /    A nd           | Version:  7
     \\/     M anipulation  |
\*---------------------------------------------------------------------------*/
FoamFile
{
    version     2.0;
    format      ascii;
    class       volVectorField;
    location    "2000";
    object      U;
}
// * * * * * * * * * * * * * * * * * * * * * * * * * * * * * * * * * * * * * //

dimensions      [0 1 -1 0 0 0 0];

internalField   nonuniform List<vector> 
23117
(
(49.9709 13.1503 0)
(49.9171 13.0916 0)
(50.0616 13.1464 0)
(49.8947 13.0551 0)
(50.0214 13.1408 0)
(50.1246 13.1215 0)
(49.8767 13.0199 0)
(50.0023 13.128 0)
(50.0911 13.1144 0)
(50.191 13.0844 0)
(49.8658 12.9896 0)
(49.9793 13.1128 0)
(50.0738 13.1044 0)
(50.1537 13.0735 0)
(50.2376 13.0583 0)
(49.8576 12.963 0)
(49.9627 13.0984 0)
(50.0519 13.0928 0)
(50.1349 13.0624 0)
(50.1967 13.0511 0)
(50.2659 13.0301 0)
(49.8513 12.9397 0)
(49.9484 13.0855 0)
(50.0344 13.0808 0)
(50.1108 13.0509 0)
(50.176 13.0409 0)
(50.219 13.0225 0)
(50.2761 12.998 0)
(49.8462 12.9192 0)
(49.9365 13.0744 0)
(50.0182 13.0689 0)
(50.0905 13.0392 0)
(50.1479 13.0304 0)
(50.1952 13.0118 0)
(50.2226 12.9892 0)
(50.2721 12.9645 0)
(49.842 12.9011 0)
(49.9262 13.0651 0)
(50.0038 13.0577 0)
(50.0708 13.0279 0)
(50.1232 13.0195 0)
(50.1625 13.0011 0)
(50.1962 12.9779 0)
(50.2151 12.9554 0)
(50.2631 12.9315 0)
(49.8384 12.8851 0)
(49.917 13.0573 0)
(49.9906 13.0473 0)
(50.0522 13.0172 0)
(50.0985 13.0088 0)
(50.1334 12.9899 0)
(50.1602 12.9669 0)
(50.1884 12.9445 0)
(50.2072 12.9232 0)
(50.2583 12.9013 0)
(49.8352 12.871 0)
(49.9088 13.0511 0)
(49.9784 13.0377 0)
(50.0344 13.0072 0)
(50.0747 12.9985 0)
(50.1042 12.9788 0)
(50.1286 12.9556 0)
(50.1519 12.9338 0)
(50.1826 12.9132 0)
(50.2069 12.8948 0)
(50.262 12.8751 0)
(49.8325 12.8586 0)
(49.9011 13.0461 0)
(49.9668 13.029 0)
(50.0171 12.9981 0)
(50.0515 12.9888 0)
(50.0763 12.9682 0)
(50.0974 12.9447 0)
(50.1208 12.9232 0)
(50.1484 12.9036 0)
(50.1852 12.8859 0)
(50.2158 12.8707 0)
(50.2735 12.8526 0)
(49.83 12.8478 0)
(49.8939 13.0424 0)
(49.9556 13.0211 0)
(50.0002 12.9897 0)
(50.0289 12.9797 0)
(50.0493 12.9582 0)
(50.0681 12.9345 0)
(50.0906 12.9133 0)
(50.12 12.8942 0)
(50.1544 12.8775 0)
(50.1965 12.8627 0)
(50.2309 12.8498 0)
(50.2889 12.8323 0)
(49.8277 12.8383 0)
(49.8871 13.0396 0)
(49.9447 13.0138 0)
(49.9836 12.9821 0)
(50.0068 12.9712 0)
(50.0234 12.9488 0)
(50.0403 12.9251 0)
(50.0629 12.9041 0)
(50.0927 12.8855 0)
(50.1292 12.8693 0)
(50.1685 12.8552 0)
(50.2127 12.8421 0)
(50.2475 12.8306 0)
(50.3042 12.8132 0)
(49.8255 12.83 0)
(49.8803 13.0378 0)
(49.934 13.0072 0)
(49.9671 12.975 0)
(49.9853 12.9632 0)
(49.9986 12.9401 0)
(50.0142 12.9165 0)
(50.037 12.896 0)
(50.0677 12.8777 0)
(50.1045 12.8618 0)
(50.1451 12.8477 0)
(50.1858 12.835 0)
(50.2291 12.8226 0)
(50.2619 12.8119 0)
(50.3168 12.7944 0)
(49.8235 12.8229 0)
(49.8737 13.0368 0)
(49.9232 13.0011 0)
(49.9507 12.9686 0)
(49.9642 12.9558 0)
(49.9749 12.9319 0)
(49.9898 12.9086 0)
(50.013 12.8886 0)
(50.0445 12.8708 0)
(50.0819 12.855 0)
(50.1219 12.8408 0)
(50.1628 12.8278 0)
(50.2019 12.8155 0)
(50.2426 12.8034 0)
(50.2726 12.7931 0)
(50.326 12.7756 0)
(49.8216 12.8169 0)
(49.8671 13.0366 0)
(49.9124 12.9956 0)
(49.9342 12.9629 0)
(49.9436 12.9488 0)
(49.9522 12.9242 0)
(49.9669 12.9013 0)
(49.9908 12.8819 0)
(50.023 12.8646 0)
(50.0604 12.8489 0)
(50.1 12.8344 0)
(50.1394 12.8208 0)
(50.1781 12.8081 0)
(50.2144 12.7961 0)
(50.2526 12.7841 0)
(50.28 12.7743 0)
(50.3323 12.7571 0)
(49.8198 12.8119 0)
(49.8605 13.037 0)
(49.9015 12.9907 0)
(49.9179 12.9579 0)
(49.9236 12.9426 0)
(49.9307 12.9172 0)
(49.9455 12.8945 0)
(49.9702 12.8758 0)
(50.0029 12.8589 0)
(50.0401 12.8434 0)
(50.0788 12.8286 0)
(50.117 12.8144 0)
(50.1538 12.8009 0)
(50.1896 12.7883 0)
(50.2233 12.7766 0)
(50.2595 12.765 0)
(50.285 12.7557 0)
(50.3364 12.739 0)
(49.818 12.8078 0)
(49.8539 13.0381 0)
(49.8905 12.9864 0)
(49.9017 12.9536 0)
(49.9041 12.9371 0)
(49.9103 12.9111 0)
(49.9255 12.8886 0)
(49.951 12.8701 0)
(49.984 12.8536 0)
(50.0207 12.8382 0)
(50.0582 12.8232 0)
(50.0948 12.8084 0)
(50.1302 12.7942 0)
(50.1642 12.7809 0)
(50.1976 12.7686 0)
(50.2294 12.7574 0)
(50.2642 12.7463 0)
(50.2884 12.7377 0)
(50.3393 12.7214 0)
(49.8162 12.8045 0)
(49.8472 13.0397 0)
(49.8796 12.9825 0)
(49.8857 12.9502 0)
(49.8854 12.9326 0)
(49.891 12.906 0)
(49.9069 12.8836 0)
(49.9331 12.8652 0)
(49.9661 12.8487 0)
(50.0019 12.8332 0)
(50.038 12.8179 0)
(50.0731 12.8027 0)
(50.1068 12.7878 0)
(50.1395 12.7737 0)
(50.1713 12.7608 0)
(50.2031 12.7491 0)
(50.2337 12.7386 0)
(50.2676 12.7282 0)
(50.291 12.7203 0)
(50.3413 12.7046 0)
(49.8145 12.802 0)
(49.8404 13.0417 0)
(49.8686 12.979 0)
(49.8701 12.9473 0)
(49.8676 12.9289 0)
(49.8729 12.9021 0)
(49.8895 12.8797 0)
(49.9163 12.8611 0)
(49.9491 12.8443 0)
(49.9838 12.8285 0)
(50.0184 12.8128 0)
(50.0517 12.7971 0)
(50.0839 12.7818 0)
(50.1151 12.7671 0)
(50.1459 12.7534 0)
(50.1764 12.7411 0)
(50.2071 12.7302 0)
(50.2369 12.7204 0)
(50.2703 12.7108 0)
(50.2929 12.7037 0)
(50.3428 12.6884 0)
(49.8127 12.8001 0)
(49.8334 13.0441 0)
(49.8576 12.9758 0)
(49.8548 12.945 0)
(49.8506 12.926 0)
(49.8559 12.8992 0)
(49.8734 12.877 0)
(49.9005 12.8581 0)
(49.9328 12.8407 0)
(49.9663 12.8241 0)
(49.999 12.8079 0)
(50.0306 12.7917 0)
(50.0612 12.7759 0)
(50.0912 12.7607 0)
(50.1209 12.7464 0)
(50.1506 12.7335 0)
(50.1802 12.722 0)
(50.2103 12.7119 0)
(50.2395 12.7029 0)
(50.2723 12.6941 0)
(50.2943 12.6878 0)
(50.3438 12.6729 0)
(49.811 12.7989 0)
(49.8264 13.0468 0)
(49.8465 12.9728 0)
(49.8398 12.9432 0)
(49.8345 12.9235 0)
(49.8402 12.897 0)
(49.8583 12.8753 0)
(49.8856 12.8561 0)
(49.9171 12.8379 0)
(49.9491 12.8204 0)
(49.9801 12.8033 0)
(50.0099 12.7864 0)
(50.0389 12.7701 0)
(50.0676 12.7544 0)
(50.0964 12.7398 0)
(50.1252 12.7263 0)
(50.1542 12.7142 0)
(50.1833 12.7036 0)
(50.2129 12.6944 0)
(50.2415 12.6862 0)
(50.2739 12.6781 0)
(50.2953 12.6726 0)
(50.3443 12.6581 0)
(49.8091 12.7982 0)
(49.8191 13.0497 0)
(49.8355 12.9701 0)
(49.8252 12.9417 0)
(49.8192 12.9215 0)
(49.8255 12.8955 0)
(49.8443 12.8743 0)
(49.8714 12.8551 0)
(49.9019 12.8361 0)
(49.9323 12.8175 0)
(49.9614 12.7993 0)
(49.9895 12.7815 0)
(50.017 12.7645 0)
(50.0445 12.7484 0)
(50.0723 12.7333 0)
(50.1003 12.7194 0)
(50.1286 12.7068 0)
(50.1572 12.6956 0)
(50.1858 12.6859 0)
(50.215 12.6775 0)
(50.2431 12.6701 0)
(50.275 12.6627 0)
(50.2958 12.658 0)
(50.3444 12.6439 0)
(49.8072 12.7981 0)
(49.8117 13.0528 0)
(49.8244 12.9677 0)
(49.8109 12.9406 0)
(49.8047 12.9197 0)
(49.8118 12.8942 0)
(49.8311 12.8737 0)
(49.8578 12.8546 0)
(49.887 12.835 0)
(49.9157 12.8154 0)
(49.943 12.7959 0)
(49.9694 12.7772 0)
(49.9955 12.7593 0)
(50.0218 12.7425 0)
(50.0486 12.7269 0)
(50.0759 12.7126 0)
(50.1036 12.6996 0)
(50.1315 12.688 0)
(50.1597 12.6777 0)
(50.1878 12.6689 0)
(50.2166 12.6613 0)
(50.2442 12.6547 0)
(50.2756 12.6481 0)
(50.296 12.6441 0)
(50.3442 12.6304 0)
(49.8052 12.7984 0)
(49.8042 13.0562 0)
(49.8135 12.9656 0)
(49.7972 12.9401 0)
(49.7911 12.9185 0)
(49.799 12.8934 0)
(49.8187 12.8734 0)
(49.8448 12.8544 0)
(49.8725 12.8345 0)
(49.8994 12.814 0)
(49.9249 12.7934 0)
(49.9497 12.7734 0)
(49.9744 12.7546 0)
(49.9996 12.737 0)
(50.0254 12.7208 0)
(50.0519 12.706 0)
(50.0789 12.6926 0)
(50.1062 12.6805 0)
(50.1339 12.6698 0)
(50.1617 12.6605 0)
(50.1894 12.6526 0)
(50.2177 12.6458 0)
(50.2449 12.64 0)
(50.2759 12.634 0)
(50.2958 12.6308 0)
(50.3436 12.6175 0)
(49.8031 12.7992 0)
(49.7966 13.0598 0)
(49.8027 12.9639 0)
(49.7839 12.9403 0)
(49.7782 12.918 0)
(49.7871 12.8931 0)
(49.807 12.8733 0)
(49.8322 12.8543 0)
(49.8583 12.8342 0)
(49.8832 12.8131 0)
(49.907 12.7915 0)
(49.9303 12.7705 0)
(49.9537 12.7506 0)
(49.9777 12.7321 0)
(50.0026 12.7151 0)
(50.0282 12.6996 0)
(50.0546 12.6856 0)
(50.0814 12.6731 0)
(50.1085 12.662 0)
(50.1358 12.6523 0)
(50.1632 12.6439 0)
(50.1906 12.6369 0)
(50.2185 12.6309 0)
(50.2453 12.6259 0)
(50.2759 12.6206 0)
(50.2953 12.6181 0)
(50.3428 12.6051 0)
(49.801 12.8003 0)
(49.7889 13.0635 0)
(49.7921 12.9625 0)
(49.7713 12.9411 0)
(49.7662 12.9182 0)
(49.7759 12.8936 0)
(49.7959 12.8737 0)
(49.8201 12.8544 0)
(49.8444 12.8341 0)
(49.8674 12.8125 0)
(49.8894 12.7903 0)
(49.9112 12.7682 0)
(49.9333 12.7473 0)
(49.9563 12.7278 0)
(49.9801 12.7098 0)
(50.0049 12.6935 0)
(50.0306 12.6788 0)
(50.0568 12.6658 0)
(50.0834 12.6543 0)
(50.1103 12.6442 0)
(50.1373 12.6354 0)
(50.1645 12.628 0)
(50.1915 12.6218 0)
(50.2191 12.6167 0)
(50.2454 12.6124 0)
(50.2756 12.6079 0)
(50.2946 12.606 0)
(50.3417 12.5933 0)
(49.7987 12.8018 0)
(49.7811 13.0673 0)
(49.7818 12.9613 0)
(49.7593 12.9424 0)
(49.7551 12.9191 0)
(49.7654 12.8949 0)
(49.7853 12.8748 0)
(49.8083 12.8549 0)
(49.8308 12.834 0)
(49.8518 12.8121 0)
(49.8721 12.7894 0)
(49.8924 12.7667 0)
(49.9133 12.7447 0)
(49.9352 12.7241 0)
(49.9581 12.7052 0)
(49.982 12.6879 0)
(50.0069 12.6724 0)
(50.0325 12.6586 0)
(50.0586 12.6466 0)
(50.0851 12.6361 0)
(50.1118 12.627 0)
(50.1385 12.6192 0)
(50.1654 12.6127 0)
(50.1921 12.6075 0)
(50.2194 12.6032 0)
(50.2453 12.5996 0)
(50.2752 12.5957 0)
(50.2937 12.5945 0)
(50.3405 12.5821 0)
(49.7963 12.8035 0)
(49.7733 13.0711 0)
(49.7718 12.9602 0)
(49.7479 12.944 0)
(49.7447 12.9205 0)
(49.7556 12.897 0)
(49.7752 12.8767 0)
(49.7969 12.856 0)
(49.8175 12.8344 0)
(49.8366 12.8119 0)
(49.8551 12.7888 0)
(49.8739 12.7656 0)
(49.8936 12.7428 0)
(49.9144 12.7211 0)
(49.9364 12.7012 0)
(49.9594 12.683 0)
(49.9835 12.6665 0)
(50.0085 12.6518 0)
(50.0341 12.639 0)
(50.0602 12.628 0)
(50.0865 12.6186 0)
(50.113 12.6105 0)
(50.1395 12.6037 0)
(50.1661 12.5981 0)
(50.1926 12.5937 0)
(50.2194 12.5902 0)
(50.245 12.5874 0)
(50.2745 12.5841 0)
(50.2927 12.5835 0)
(50.3391 12.5714 0)
(49.7938 12.8055 0)
(49.7655 13.0749 0)
(49.762 12.9593 0)
(49.7371 12.9459 0)
(49.7352 12.9222 0)
(49.7465 12.8996 0)
(49.7655 12.8792 0)
(49.7858 12.8578 0)
(49.8046 12.8352 0)
(49.8218 12.812 0)
(49.8385 12.7885 0)
(49.8558 12.7648 0)
(49.8742 12.7414 0)
(49.894 12.7188 0)
(49.915 12.6978 0)
(49.9372 12.6785 0)
(49.9604 12.6611 0)
(49.9847 12.6455 0)
(50.0098 12.6317 0)
(50.0355 12.6199 0)
(50.0615 12.61 0)
(50.0877 12.6017 0)
(50.114 12.5947 0)
(50.1403 12.5888 0)
(50.1667 12.5842 0)
(50.1928 12.5806 0)
(50.2193 12.5779 0)
(50.2446 12.5757 0)
(50.2737 12.573 0)
(50.2915 12.5731 0)
(50.3376 12.5612 0)
(49.7911 12.8077 0)
(49.7576 13.0787 0)
(49.7525 12.9585 0)
(49.727 12.9479 0)
(49.7263 12.924 0)
(49.7379 12.9024 0)
(49.7562 12.8822 0)
(49.7749 12.8603 0)
(49.7919 12.8368 0)
(49.8073 12.8127 0)
(49.8224 12.7884 0)
(49.8382 12.7642 0)
(49.8552 12.7404 0)
(49.8738 12.7171 0)
(49.8939 12.6951 0)
(49.9152 12.6747 0)
(49.9376 12.6563 0)
(49.9612 12.6397 0)
(49.9857 12.625 0)
(50.0109 12.6122 0)
(50.0366 12.6015 0)
(50.0626 12.5928 0)
(50.0887 12.5855 0)
(50.1149 12.5795 0)
(50.141 12.5746 0)
(50.1671 12.5708 0)
(50.1929 12.5681 0)
(50.2191 12.5661 0)
(50.244 12.5646 0)
(50.2728 12.5625 0)
(50.2902 12.5632 0)
(50.336 12.5515 0)
(49.7883 12.8101 0)
(49.7497 13.0825 0)
(49.7434 12.9579 0)
(49.7174 12.9503 0)
(49.7181 12.9259 0)
(49.7298 12.9053 0)
(49.7473 12.8853 0)
(49.7643 12.8632 0)
(49.7794 12.8391 0)
(49.7931 12.814 0)
(49.8066 12.7888 0)
(49.821 12.764 0)
(49.8366 12.7397 0)
(49.854 12.7158 0)
(49.873 12.6929 0)
(49.8934 12.6715 0)
(49.9151 12.6519 0)
(49.9379 12.6344 0)
(49.9618 12.6187 0)
(49.9865 12.605 0)
(50.0119 12.5933 0)
(50.0377 12.5838 0)
(50.0637 12.5762 0)
(50.0896 12.57 0)
(50.1156 12.565 0)
(50.1415 12.561 0)
(50.1674 12.5581 0)
(50.1929 12.5562 0)
(50.2188 12.5549 0)
(50.2433 12.5541 0)
(50.2717 12.5525 0)
(50.2888 12.5537 0)
(50.3343 12.5423 0)
(49.7854 12.8126 0)
(49.7418 13.0863 0)
(49.7345 12.9575 0)
(49.7084 12.9529 0)
(49.7105 12.928 0)
(49.7222 12.9082 0)
(49.7386 12.8884 0)
(49.754 12.8663 0)
(49.7672 12.8418 0)
(49.7792 12.816 0)
(49.7913 12.79 0)
(49.8042 12.7643 0)
(49.8185 12.7393 0)
(49.8345 12.7149 0)
(49.8523 12.6912 0)
(49.8718 12.6688 0)
(49.8927 12.6482 0)
(49.9148 12.6296 0)
(49.9381 12.613 0)
(49.9623 12.5983 0)
(49.9873 12.5856 0)
(50.0129 12.5751 0)
(50.0387 12.5668 0)
(50.0646 12.5602 0)
(50.0905 12.5551 0)
(50.1163 12.5511 0)
(50.142 12.548 0)
(50.1676 12.546 0)
(50.1928 12.5449 0)
(50.2183 12.5443 0)
(50.2425 12.5441 0)
(50.2706 12.543 0)
(50.2874 12.5448 0)
(50.3325 12.5335 0)
(49.7823 12.8153 0)
(49.7341 13.09 0)
(49.7261 12.9574 0)
(49.7 12.956 0)
(49.7034 12.9304 0)
(49.715 12.9113 0)
(49.7304 12.8914 0)
(49.744 12.8693 0)
(49.7554 12.8448 0)
(49.7657 12.8187 0)
(49.7762 12.7918 0)
(49.7878 12.7652 0)
(49.8008 12.7394 0)
(49.8155 12.7143 0)
(49.832 12.69 0)
(49.8504 12.6667 0)
(49.8705 12.6449 0)
(49.8919 12.6252 0)
(49.9145 12.6076 0)
(49.9382 12.5921 0)
(49.9628 12.5784 0)
(49.9882 12.5669 0)
(50.0139 12.5575 0)
(50.0397 12.5504 0)
(50.0655 12.545 0)
(50.0913 12.5409 0)
(50.1169 12.5378 0)
(50.1424 12.5357 0)
(50.1677 12.5345 0)
(50.1926 12.5341 0)
(50.2178 12.5342 0)
(50.2416 12.5345 0)
(50.2695 12.534 0)
(50.2859 12.5362 0)
(50.3307 12.5251 0)
(49.7791 12.8181 0)
(49.7264 13.0938 0)
(49.718 12.9575 0)
(49.6921 12.9594 0)
(49.6969 12.9332 0)
(49.7082 12.9146 0)
(49.7224 12.8945 0)
(49.7343 12.8723 0)
(49.7439 12.8478 0)
(49.7526 12.8216 0)
(49.7616 12.7944 0)
(49.7718 12.767 0)
(49.7834 12.7401 0)
(49.7968 12.7142 0)
(49.8121 12.6891 0)
(49.8293 12.6651 0)
(49.8484 12.6423 0)
(49.8691 12.6213 0)
(49.8912 12.6026 0)
(49.9143 12.5861 0)
(49.9385 12.5717 0)
(49.9635 12.5592 0)
(49.989 12.5488 0)
(50.0148 12.5406 0)
(50.0407 12.5347 0)
(50.0664 12.5304 0)
(50.092 12.5273 0)
(50.1175 12.5252 0)
(50.1427 12.5239 0)
(50.1677 12.5235 0)
(50.1923 12.5239 0)
(50.2172 12.5246 0)
(50.2407 12.5255 0)
(50.2682 12.5254 0)
(50.2844 12.5281 0)
(50.3288 12.5172 0)
(49.7757 12.8209 0)
(49.7189 13.0975 0)
(49.7104 12.9577 0)
(49.6848 12.9631 0)
(49.6908 12.9363 0)
(49.7016 12.9184 0)
(49.7146 12.8979 0)
(49.7248 12.8755 0)
(49.7328 12.8508 0)
(49.7399 12.8247 0)
(49.7474 12.7973 0)
(49.7562 12.7694 0)
(49.7665 12.7416 0)
(49.7786 12.7146 0)
(49.7926 12.6888 0)
(49.8086 12.6639 0)
(49.8266 12.6402 0)
(49.8465 12.6181 0)
(49.8679 12.5981 0)
(49.8905 12.5805 0)
(49.9142 12.5652 0)
(49.9388 12.5519 0)
(49.9642 12.5405 0)
(49.99 12.5313 0)
(50.0159 12.5244 0)
(50.0417 12.5197 0)
(50.0673 12.5165 0)
(50.0928 12.5144 0)
(50.118 12.5131 0)
(50.143 12.5127 0)
(50.1677 12.5131 0)
(50.192 12.5142 0)
(50.2166 12.5155 0)
(50.2397 12.5169 0)
(50.267 12.5173 0)
(50.2828 12.5204 0)
(50.327 12.5096 0)
(49.7722 12.8238 0)
(49.7115 13.1011 0)
(49.7032 12.9581 0)
(49.6781 12.9669 0)
(49.6851 12.9396 0)
(49.6954 12.9224 0)
(49.7072 12.9016 0)
(49.7157 12.8788 0)
(49.722 12.854 0)
(49.7276 12.8278 0)
(49.7336 12.8005 0)
(49.7409 12.7723 0)
(49.7499 12.7438 0)
(49.7607 12.7158 0)
(49.7734 12.6889 0)
(49.7882 12.6632 0)
(49.805 12.6387 0)
(49.8239 12.6155 0)
(49.8446 12.5943 0)
(49.8667 12.5754 0)
(49.89 12.559 0)
(49.9143 12.5448 0)
(49.9393 12.5326 0)
(49.965 12.5225 0)
(49.991 12.5145 0)
(50.0169 12.5089 0)
(50.0427 12.5053 0)
(50.0682 12.5032 0)
(50.0935 12.502 0)
(50.1185 12.5017 0)
(50.1432 12.5021 0)
(50.1677 12.5032 0)
(50.1916 12.5049 0)
(50.2159 12.5068 0)
(50.2388 12.5088 0)
(50.2657 12.5096 0)
(50.2813 12.5131 0)
(50.3251 12.5025 0)
(49.7685 12.8267 0)
(49.7043 13.1046 0)
(49.6963 12.9585 0)
(49.6718 12.9708 0)
(49.6799 12.9429 0)
(49.6895 12.9267 0)
(49.7 12.9055 0)
(49.7069 12.8825 0)
(49.7117 12.8573 0)
(49.7157 12.831 0)
(49.7203 12.8037 0)
(49.7261 12.7754 0)
(49.7337 12.7465 0)
(49.7432 12.7177 0)
(49.7546 12.6898 0)
(49.7681 12.6631 0)
(49.7838 12.6376 0)
(49.8016 12.6135 0)
(49.8215 12.5911 0)
(49.843 12.5708 0)
(49.8658 12.5531 0)
(49.8897 12.538 0)
(49.9145 12.525 0)
(49.94 12.5141 0)
(49.966 12.5051 0)
(49.9921 12.4984 0)
(50.018 12.4941 0)
(50.0437 12.4916 0)
(50.0691 12.4905 0)
(50.0942 12.4903 0)
(50.119 12.4907 0)
(50.1434 12.492 0)
(50.1676 12.4938 0)
(50.1912 12.4962 0)
(50.2152 12.4986 0)
(50.2377 12.501 0)
(50.2644 12.5022 0)
(50.2797 12.5062 0)
(50.3232 12.4956 0)
(49.7647 12.8297 0)
(49.6973 13.1081 0)
(49.6898 12.9592 0)
(49.666 12.9749 0)
(49.6751 12.9463 0)
(49.6838 12.9309 0)
(49.693 12.9097 0)
(49.6983 12.8866 0)
(49.7016 12.8611 0)
(49.7043 12.8345 0)
(49.7074 12.807 0)
(49.7118 12.7787 0)
(49.7179 12.7496 0)
(49.726 12.7203 0)
(49.7362 12.6913 0)
(49.7484 12.6635 0)
(49.7629 12.6371 0)
(49.7796 12.6121 0)
(49.7985 12.5886 0)
(49.8193 12.567 0)
(49.8416 12.5478 0)
(49.8652 12.5314 0)
(49.8897 12.5175 0)
(49.915 12.5059 0)
(49.9409 12.4961 0)
(49.9671 12.4884 0)
(49.9933 12.483 0)
(50.0192 12.4799 0)
(50.0448 12.4785 0)
(50.07 12.4784 0)
(50.0949 12.4791 0)
(50.1195 12.4804 0)
(50.1436 12.4824 0)
(50.1674 12.4849 0)
(50.1908 12.4879 0)
(50.2145 12.4908 0)
(50.2367 12.4937 0)
(50.2631 12.4953 0)
(50.2781 12.4996 0)
(50.3213 12.4892 0)
(49.7608 12.8326 0)
(49.6905 13.1114 0)
(49.6837 12.9599 0)
(49.6607 12.979 0)
(49.6705 12.9497 0)
(49.6784 12.9352 0)
(49.6863 12.9138 0)
(49.6901 12.8908 0)
(49.6919 12.8652 0)
(49.6932 12.8383 0)
(49.695 12.8105 0)
(49.698 12.7821 0)
(49.7026 12.7529 0)
(49.7092 12.7232 0)
(49.718 12.6935 0)
(49.7291 12.6647 0)
(49.7423 12.6371 0)
(49.7578 12.6111 0)
(49.7757 12.5866 0)
(49.7956 12.5639 0)
(49.8174 12.5433 0)
(49.8406 12.5254 0)
(49.8649 12.5103 0)
(49.89 12.4977 0)
(49.9158 12.4873 0)
(49.942 12.4788 0)
(49.9684 12.4724 0)
(49.9946 12.4683 0)
(50.0205 12.4664 0)
(50.0459 12.4661 0)
(50.0709 12.467 0)
(50.0956 12.4685 0)
(50.1199 12.4705 0)
(50.1438 12.4733 0)
(50.1673 12.4765 0)
(50.1903 12.48 0)
(50.2137 12.4834 0)
(50.2356 12.4867 0)
(50.2618 12.4886 0)
(50.2765 12.4934 0)
(50.3194 12.483 0)
(49.7567 12.8355 0)
(49.6839 13.1148 0)
(49.678 12.9608 0)
(49.6557 12.9832 0)
(49.6663 12.9531 0)
(49.6732 12.9395 0)
(49.6798 12.918 0)
(49.6821 12.8952 0)
(49.6826 12.8696 0)
(49.6825 12.8425 0)
(49.683 12.8144 0)
(49.6846 12.7857 0)
(49.6877 12.7564 0)
(49.6929 12.7265 0)
(49.7003 12.6963 0)
(49.71 12.6665 0)
(49.722 12.6378 0)
(49.7364 12.6107 0)
(49.7532 12.5852 0)
(49.7722 12.5614 0)
(49.7932 12.5395 0)
(49.816 12.5201 0)
(49.84 12.5035 0)
(49.8649 12.4898 0)
(49.8906 12.4786 0)
(49.9168 12.4694 0)
(49.9433 12.4622 0)
(49.9698 12.4571 0)
(49.996 12.4542 0)
(50.0218 12.4535 0)
(50.047 12.4543 0)
(50.0719 12.456 0)
(50.0963 12.4584 0)
(50.1204 12.4612 0)
(50.1439 12.4646 0)
(50.1671 12.4685 0)
(50.1899 12.4726 0)
(50.213 12.4764 0)
(50.2346 12.4801 0)
(50.2604 12.4824 0)
(50.2749 12.4874 0)
(50.3175 12.4771 0)
(49.7525 12.8384 0)
(49.6776 13.118 0)
(49.6726 12.9619 0)
(49.6512 12.9875 0)
(49.6623 12.9566 0)
(49.6682 12.9438 0)
(49.6736 12.9222 0)
(49.6745 12.8996 0)
(49.6736 12.8741 0)
(49.6723 12.8471 0)
(49.6714 12.8187 0)
(49.6716 12.7896 0)
(49.6734 12.76 0)
(49.677 12.7299 0)
(49.6829 12.6994 0)
(49.6912 12.6689 0)
(49.702 12.6392 0)
(49.7153 12.6109 0)
(49.7309 12.5843 0)
(49.7489 12.5594 0)
(49.7691 12.5364 0)
(49.7913 12.5156 0)
(49.8149 12.4974 0)
(49.8397 12.4822 0)
(49.8653 12.4699 0)
(49.8915 12.4601 0)
(49.9181 12.4522 0)
(49.9448 12.4463 0)
(49.9714 12.4425 0)
(49.9975 12.4408 0)
(50.0231 12.4412 0)
(50.0482 12.443 0)
(50.0728 12.4456 0)
(50.097 12.4488 0)
(50.1208 12.4524 0)
(50.1441 12.4565 0)
(50.167 12.4609 0)
(50.1894 12.4655 0)
(50.2122 12.4698 0)
(50.2335 12.4739 0)
(50.2591 12.4764 0)
(50.2733 12.4818 0)
(50.3157 12.4716 0)
(49.7482 12.8413 0)
(49.6715 13.1211 0)
(49.6675 12.963 0)
(49.647 12.9918 0)
(49.6586 12.9601 0)
(49.6635 12.9481 0)
(49.6676 12.9263 0)
(49.6671 12.904 0)
(49.6651 12.8787 0)
(49.6624 12.8519 0)
(49.6603 12.8235 0)
(49.6591 12.794 0)
(49.6594 12.764 0)
(49.6616 12.7336 0)
(49.666 12.7028 0)
(49.6729 12.6718 0)
(49.6823 12.6412 0)
(49.6944 12.6117 0)
(49.7089 12.5839 0)
(49.7258 12.558 0)
(49.7451 12.5339 0)
(49.7666 12.5118 0)
(49.7898 12.4921 0)
(49.8144 12.4753 0)
(49.8399 12.4615 0)
(49.866 12.4507 0)
(49.8927 12.4422 0)
(49.9196 12.4357 0)
(49.9464 12.431 0)
(49.973 12.4285 0)
(49.9991 12.4281 0)
(50.0245 12.4296 0)
(50.0494 12.4323 0)
(50.0738 12.4358 0)
(50.0978 12.4397 0)
(50.1212 12.444 0)
(50.1442 12.4487 0)
(50.1668 12.4537 0)
(50.1889 12.4588 0)
(50.2114 12.4635 0)
(50.2324 12.4679 0)
(50.2578 12.4707 0)
(50.2717 12.4765 0)
(50.3139 12.4663 0)
(49.7438 12.8441 0)
(49.6658 13.1241 0)
(49.6628 12.9642 0)
(49.6431 12.9962 0)
(49.6551 12.9636 0)
(49.6589 12.9525 0)
(49.6619 12.9305 0)
(49.6601 12.9085 0)
(49.6568 12.8834 0)
(49.653 12.8568 0)
(49.6495 12.8285 0)
(49.6471 12.7989 0)
(49.646 12.7685 0)
(49.6467 12.7376 0)
(49.6496 12.7065 0)
(49.6549 12.6751 0)
(49.663 12.6439 0)
(49.6737 12.6133 0)
(49.6871 12.5842 0)
(49.703 12.557 0)
(49.7213 12.5318 0)
(49.7419 12.5086 0)
(49.7645 12.4876 0)
(49.7888 12.4692 0)
(49.8142 12.4538 0)
(49.8404 12.4415 0)
(49.8671 12.4321 0)
(49.8941 12.425 0)
(49.9213 12.4198 0)
(49.9483 12.4164 0)
(49.9748 12.4151 0)
(50.0008 12.416 0)
(50.026 12.4185 0)
(50.0506 12.4222 0)
(50.0748 12.4264 0)
(50.0985 12.431 0)
(50.1216 12.436 0)
(50.1443 12.4414 0)
(50.1666 12.4469 0)
(50.1884 12.4524 0)
(50.2106 12.4575 0)
(50.2313 12.4623 0)
(50.2565 12.4654 0)
(50.2701 12.4714 0)
(50.3121 12.4612 0)
(49.7392 12.8469 0)
(49.6602 13.1271 0)
(49.6583 12.9655 0)
(49.6396 13.0005 0)
(49.6518 12.9671 0)
(49.6545 12.9568 0)
(49.6564 12.9347 0)
(49.6534 12.913 0)
(49.649 12.888 0)
(49.6439 12.8617 0)
(49.6392 12.8336 0)
(49.6354 12.8041 0)
(49.633 12.7734 0)
(49.6323 12.7421 0)
(49.6336 12.7105 0)
(49.6375 12.6788 0)
(49.644 12.647 0)
(49.6534 12.6156 0)
(49.6655 12.5852 0)
(49.6803 12.5567 0)
(49.6977 12.5302 0)
(49.7174 12.5059 0)
(49.7393 12.4837 0)
(49.7631 12.4639 0)
(49.7883 12.4468 0)
(49.8145 12.4329 0)
(49.8414 12.4222 0)
(49.8685 12.4143 0)
(49.8959 12.4085 0)
(49.9232 12.4046 0)
(49.9502 12.4025 0)
(49.9767 12.4025 0)
(50.0025 12.4045 0)
(50.0275 12.408 0)
(50.0519 12.4126 0)
(50.0758 12.4176 0)
(50.0992 12.4229 0)
(50.1221 12.4285 0)
(50.1444 12.4344 0)
(50.1663 12.4405 0)
(50.1879 12.4464 0)
(50.2099 12.4518 0)
(50.2303 12.457 0)
(50.2553 12.4602 0)
(50.2686 12.4666 0)
(50.3103 12.4564 0)
(49.7346 12.8496 0)
(49.655 13.1299 0)
(49.6542 12.9669 0)
(49.6364 13.0048 0)
(49.6487 12.9705 0)
(49.6503 12.9611 0)
(49.6512 12.9389 0)
(49.647 12.9175 0)
(49.6415 12.8928 0)
(49.6353 12.8667 0)
(49.6293 12.8389 0)
(49.6242 12.8095 0)
(49.6204 12.7787 0)
(49.6183 12.7471 0)
(49.6182 12.715 0)
(49.6205 12.6827 0)
(49.6255 12.6505 0)
(49.6334 12.6184 0)
(49.6442 12.5871 0)
(49.6579 12.5571 0)
(49.6742 12.5292 0)
(49.693 12.5036 0)
(49.7141 12.4803 0)
(49.7373 12.4592 0)
(49.7622 12.4407 0)
(49.7884 12.425 0)
(49.8153 12.4127 0)
(49.8427 12.4036 0)
(49.8702 12.3971 0)
(49.8978 12.3927 0)
(49.9253 12.39 0)
(49.9523 12.3892 0)
(49.9787 12.3904 0)
(50.0042 12.3935 0)
(50.029 12.3981 0)
(50.0532 12.4034 0)
(50.0768 12.4092 0)
(50.0999 12.4151 0)
(50.1224 12.4214 0)
(50.1444 12.4278 0)
(50.1661 12.4344 0)
(50.1873 12.4407 0)
(50.2091 12.4464 0)
(50.2292 12.4519 0)
(50.254 12.4554 0)
(50.2671 12.4621 0)
(50.3086 12.4519 0)
(49.7298 12.8522 0)
(49.6501 13.1327 0)
(49.6503 12.9683 0)
(49.6334 13.0091 0)
(49.6457 12.9739 0)
(49.6463 12.9653 0)
(49.6461 12.943 0)
(49.6408 12.922 0)
(49.6343 12.8975 0)
(49.627 12.8717 0)
(49.6199 12.8441 0)
(49.6135 12.815 0)
(49.6083 12.7843 0)
(49.6047 12.7525 0)
(49.6032 12.7199 0)
(49.604 12.6871 0)
(49.6075 12.6544 0)
(49.6139 12.6217 0)
(49.6233 12.5895 0)
(49.6356 12.5584 0)
(49.6509 12.529 0)
(49.6687 12.5019 0)
(49.689 12.4773 0)
(49.7115 12.4551 0)
(49.736 12.4352 0)
(49.7619 12.418 0)
(49.7889 12.404 0)
(49.8165 12.3932 0)
(49.8443 12.3856 0)
(49.8722 12.3806 0)
(49.9 12.3775 0)
(49.9276 12.3762 0)
(49.9545 12.3766 0)
(49.9807 12.379 0)
(50.006 12.3832 0)
(50.0305 12.3887 0)
(50.0544 12.3948 0)
(50.0778 12.4012 0)
(50.1006 12.4078 0)
(50.1228 12.4146 0)
(50.1445 12.4216 0)
(50.1659 12.4286 0)
(50.1868 12.4353 0)
(50.2083 12.4413 0)
(50.2282 12.4471 0)
(50.2528 12.4508 0)
(50.2656 12.4578 0)
(50.3068 12.4475 0)
(49.7249 12.8548 0)
(49.6455 13.1353 0)
(49.6466 12.9699 0)
(49.6306 13.0133 0)
(49.6429 12.9773 0)
(49.6425 12.9695 0)
(49.6413 12.9471 0)
(49.635 12.9265 0)
(49.6274 12.9023 0)
(49.6191 12.8768 0)
(49.6108 12.8494 0)
(49.6032 12.8205 0)
(49.5966 12.79 0)
(49.5917 12.7582 0)
(49.5887 12.7253 0)
(49.588 12.692 0)
(49.59 12.6586 0)
(49.5948 12.6254 0)
(49.6027 12.5926 0)
(49.6137 12.5604 0)
(49.6277 12.5297 0)
(49.6446 12.501 0)
(49.664 12.4749 0)
(49.6858 12.4513 0)
(49.7096 12.4303 0)
(49.7353 12.4117 0)
(49.7622 12.396 0)
(49.79 12.3835 0)
(49.8181 12.3744 0)
(49.8464 12.3684 0)
(49.8745 12.3648 0)
(49.9025 12.363 0)
(49.93 12.3629 0)
(49.9569 12.3646 0)
(49.9828 12.3682 0)
(50.0079 12.3734 0)
(50.0321 12.3797 0)
(50.0557 12.3866 0)
(50.0788 12.3936 0)
(50.1013 12.4008 0)
(50.1232 12.4082 0)
(50.1446 12.4157 0)
(50.1657 12.4231 0)
(50.1863 12.4302 0)
(50.2076 12.4365 0)
(50.2272 12.4425 0)
(50.2515 12.4464 0)
(50.2641 12.4537 0)
(50.3052 12.4434 0)
(49.72 12.8573 0)
(49.6412 13.1379 0)
(49.6432 12.9715 0)
(49.6282 13.0175 0)
(49.6402 12.9806 0)
(49.6388 12.9737 0)
(49.6367 12.9513 0)
(49.6294 12.9311 0)
(49.6209 12.9071 0)
(49.6115 12.8819 0)
(49.6022 12.8548 0)
(49.5933 12.8261 0)
(49.5854 12.7958 0)
(49.5791 12.7641 0)
(49.5746 12.7312 0)
(49.5725 12.6974 0)
(49.5729 12.6634 0)
(49.5762 12.6295 0)
(49.5825 12.596 0)
(49.592 12.5631 0)
(49.6048 12.5311 0)
(49.6205 12.5009 0)
(49.639 12.4731 0)
(49.66 12.4481 0)
(49.6833 12.4257 0)
(49.7084 12.406 0)
(49.7352 12.3888 0)
(49.7631 12.3747 0)
(49.7915 12.3639 0)
(49.8201 12.3564 0)
(49.8487 12.3519 0)
(49.877 12.3497 0)
(49.9051 12.3492 0)
(49.9326 12.3503 0)
(49.9592 12.3532 0)
(49.985 12.3579 0)
(50.0097 12.3641 0)
(50.0337 12.3712 0)
(50.057 12.3788 0)
(50.0798 12.3865 0)
(50.102 12.3943 0)
(50.1235 12.4022 0)
(50.1446 12.4102 0)
(50.1654 12.4179 0)
(50.1858 12.4253 0)
(50.2068 12.4319 0)
(50.2262 12.4382 0)
(50.2504 12.4423 0)
(50.2627 12.4498 0)
(50.3035 12.4394 0)
(49.715 12.8598 0)
(49.6372 13.1404 0)
(49.64 12.9732 0)
(49.6259 13.0216 0)
(49.6377 12.9839 0)
(49.6353 12.9779 0)
(49.6324 12.9554 0)
(49.624 12.9356 0)
(49.6147 12.9119 0)
(49.6043 12.8871 0)
(49.5939 12.8602 0)
(49.5838 12.8318 0)
(49.5747 12.8017 0)
(49.5669 12.7701 0)
(49.561 12.7372 0)
(49.5574 12.7033 0)
(49.5563 12.6687 0)
(49.558 12.6342 0)
(49.5628 12.5999 0)
(49.5708 12.5662 0)
(49.5821 12.5333 0)
(49.5966 12.5018 0)
(49.6141 12.4723 0)
(49.6343 12.4455 0)
(49.6568 12.4216 0)
(49.6815 12.4006 0)
(49.7079 12.3822 0)
(49.7357 12.3666 0)
(49.7644 12.354 0)
(49.7934 12.3449 0)
(49.8225 12.339 0)
(49.8513 12.3361 0)
(49.8798 12.3352 0)
(49.9078 12.336 0)
(49.9352 12.3384 0)
(49.9617 12.3424 0)
(49.9871 12.3482 0)
(50.0116 12.3553 0)
(50.0353 12.3632 0)
(50.0583 12.3714 0)
(50.0808 12.3797 0)
(50.1026 12.3881 0)
(50.1239 12.3965 0)
(50.1446 12.4049 0)
(50.1652 12.413 0)
(50.1853 12.4207 0)
(50.2061 12.4276 0)
(50.2252 12.4341 0)
(50.2492 12.4383 0)
(50.2613 12.4461 0)
(50.302 12.4357 0)
(49.7099 12.8621 0)
(49.6335 13.1428 0)
(49.637 12.975 0)
(49.6238 13.0257 0)
(49.6353 12.9872 0)
(49.632 12.982 0)
(49.6282 12.9595 0)
(49.619 12.9402 0)
(49.6088 12.9168 0)
(49.5974 12.8923 0)
(49.586 12.8658 0)
(49.5748 12.8375 0)
(49.5644 12.8077 0)
(49.5553 12.7763 0)
(49.548 12.7435 0)
(49.5428 12.7095 0)
(49.5402 12.6746 0)
(49.5403 12.6394 0)
(49.5435 12.6043 0)
(49.55 12.5698 0)
(49.5598 12.5361 0)
(49.5729 12.5034 0)
(49.5893 12.4724 0)
(49.6085 12.4438 0)
(49.6304 12.4182 0)
(49.6545 12.3956 0)
(49.6805 12.3759 0)
(49.7081 12.359 0)
(49.7369 12.345 0)
(49.7663 12.3341 0)
(49.7958 12.3266 0)
(49.8252 12.3224 0)
(49.8542 12.3209 0)
(49.8827 12.3214 0)
(49.9108 12.3235 0)
(49.938 12.327 0)
(49.9642 12.3322 0)
(49.9893 12.339 0)
(50.0135 12.347 0)
(50.0369 12.3556 0)
(50.0596 12.3645 0)
(50.0817 12.3733 0)
(50.1033 12.3822 0)
(50.1242 12.3911 0)
(50.1447 12.3999 0)
(50.1649 12.4083 0)
(50.1848 12.4163 0)
(50.2053 12.4234 0)
(50.2242 12.4302 0)
(50.248 12.4346 0)
(50.2599 12.4426 0)
(50.3004 12.4321 0)
(49.7047 12.8644 0)
(49.6301 13.145 0)
(49.6342 12.9768 0)
(49.6219 13.0296 0)
(49.633 12.9904 0)
(49.6288 12.986 0)
(49.6242 12.9635 0)
(49.6142 12.9448 0)
(49.6032 12.9217 0)
(49.5909 12.8976 0)
(49.5784 12.8713 0)
(49.5661 12.8434 0)
(49.5546 12.8137 0)
(49.5441 12.7825 0)
(49.5354 12.7499 0)
(49.5287 12.7159 0)
(49.5245 12.6808 0)
(49.5231 12.6451 0)
(49.5248 12.6093 0)
(49.5296 12.574 0)
(49.5379 12.5393 0)
(49.5496 12.5057 0)
(49.5646 12.4734 0)
(49.5828 12.4432 0)
(49.6039 12.4156 0)
(49.6273 12.3912 0)
(49.6529 12.3701 0)
(49.6802 12.3519 0)
(49.709 12.3365 0)
(49.7386 12.3241 0)
(49.7686 12.3149 0)
(49.7985 12.3091 0)
(49.8281 12.3065 0)
(49.8573 12.3065 0)
(49.8859 12.3083 0)
(49.9138 12.3115 0)
(49.9408 12.3163 0)
(49.9667 12.3225 0)
(49.9916 12.3303 0)
(50.0154 12.3391 0)
(50.0385 12.3484 0)
(50.0609 12.3579 0)
(50.0827 12.3673 0)
(50.1039 12.3766 0)
(50.1245 12.386 0)
(50.1447 12.3952 0)
(50.1647 12.4039 0)
(50.1843 12.4122 0)
(50.2046 12.4195 0)
(50.2233 12.4265 0)
(50.2469 12.431 0)
(50.2586 12.4393 0)
(50.2989 12.4287 0)
(49.6995 12.8666 0)
(49.627 13.1472 0)
(49.6315 12.9785 0)
(49.6202 13.0334 0)
(49.6307 12.9935 0)
(49.6258 12.9899 0)
(49.6205 12.9675 0)
(49.6096 12.9493 0)
(49.5979 12.9266 0)
(49.5847 12.9029 0)
(49.5713 12.877 0)
(49.5579 12.8493 0)
(49.5451 12.8199 0)
(49.5335 12.7889 0)
(49.5233 12.7564 0)
(49.5152 12.7225 0)
(49.5094 12.6874 0)
(49.5064 12.6514 0)
(49.5064 12.6149 0)
(49.5097 12.5787 0)
(49.5164 12.5431 0)
(49.5265 12.5085 0)
(49.5402 12.4751 0)
(49.5572 12.4434 0)
(49.5773 12.4141 0)
(49.6001 12.3877 0)
(49.6251 12.3647 0)
(49.6521 12.345 0)
(49.6807 12.3284 0)
(49.7104 12.3146 0)
(49.7408 12.3039 0)
(49.7713 12.2964 0)
(49.8016 12.2924 0)
(49.8314 12.2914 0)
(49.8606 12.2927 0)
(49.8891 12.2958 0)
(49.9169 12.3002 0)
(49.9437 12.3061 0)
(49.9693 12.3134 0)
(49.9938 12.3221 0)
(50.0173 12.3317 0)
(50.04 12.3416 0)
(50.0621 12.3516 0)
(50.0836 12.3615 0)
(50.1045 12.3714 0)
(50.1248 12.3811 0)
(50.1447 12.3907 0)
(50.1644 12.3997 0)
(50.1838 12.4083 0)
(50.2039 12.4158 0)
(50.2223 12.423 0)