/*--------------------------------*- C++ -*----------------------------------*\
  =========                 |
  \\      /  F ield         | OpenFOAM: The Open Source CFD Toolbox
   \\    /   O peration     | Website:  https://openfoam.org
    \\  /    A nd           | Version:  7
     \\/     M anipulation  |
\*---------------------------------------------------------------------------*/
FoamFile
{
    version     2.0;
    format      ascii;
    class       volScalarField;
    location    "2000";
    object      yPlus;
}
// * * * * * * * * * * * * * * * * * * * * * * * * * * * * * * * * * * * * * //

dimensions      [0 0 0 0 0 0 0];

internalField   uniform 0;

boundaryField
{
    inlet-l
    {
        type            calculated;
        value           uniform 0;
    }
    airfoil-l1
    {
        type            calculated;
        value           nonuniform 0();
    }
    empty-1
    {
        type            empty;
    }
    empty-2
    {
        type            empty;
    }
    wall-l1
    {
        type            calculated;
        value           nonuniform List<scalar> 
67
(
136.24
136.094
135.743
135.446
135.202
134.967
134.721
134.478
134.239
134.007
133.778
133.553
133.338
133.125
132.912
132.702
132.505
132.309
132.111
131.918
131.735
131.554
131.37
131.195
131.025
130.857
130.694
130.526
130.37
130.218
130.064
129.919
129.772
129.632
129.487
129.354
129.224
129.096
128.974
128.855
128.737
128.621
128.506
128.391
128.28
128.168
128.062
127.963
127.869
127.78
127.695
127.609
127.527
127.441
127.355
127.271
127.189
127.111
127.042
126.97
126.91
126.849
126.786
126.722
126.654
126.589
126.532
)
;
    }
    airfoil-l2
    {
        type            calculated;
        value           nonuniform List<scalar> 
66
(
21.5446
21.8205
22.0527
22.2505
22.4206
22.5673
22.6993
22.817
22.9189
23.0092
23.0882
23.1589
23.2257
23.2835
23.3354
23.382
23.4241
23.462
23.4976
23.5296
23.5563
23.5838
23.6065
23.628
23.6486
23.6647
23.679
23.6928
23.7048
23.7129
23.7234
23.7301
23.7352
23.7392
23.7435
23.7494
23.7506
23.7457
23.7447
23.7472
23.7434
23.7408
23.7371
23.7296
23.7212
23.7142
23.7058
23.6937
23.6801
23.6655
23.6513
23.6378
23.62
23.5975
23.5725
23.5449
23.5138
23.479
23.441
23.3979
23.3475
23.2862
23.2192
23.1204
23.0559
22.7062
)
;
    }
    empty-3
    {
        type            empty;
    }
    empty-4
    {
        type            empty;
    }
    wall-l2
    {
        type            calculated;
        value           nonuniform List<scalar> 
74
(
126.416
126.335
126.279
126.209
126.142
126.091
126.058
126.042
126.046
126.071
126.115
126.178
126.259
126.359
126.479
126.622
126.785
126.969
127.173
127.396
127.639
127.901
128.182
128.483
128.803
129.139
129.492
129.859
130.239
130.632
131.037
131.451
131.872
132.299
132.729
133.16
133.588
134.012
134.429
134.835
135.227
135.601
135.953
136.279
136.577
136.842
137.069
137.254
137.39
137.47
137.489
137.441
137.32
137.12
136.835
136.454
135.969
135.369
134.642
133.776
132.759
131.576
130.212
128.645
126.852
124.806
122.474
119.824
116.823
113.47
109.795
106.156
103.341
103.189
)
;
    }
    outlet-l
    {
        type            calculated;
        value           uniform 0;
    }
    empty-5
    {
        type            empty;
    }
    empty-6
    {
        type            empty;
    }
    outlet-h
    {
        type            calculated;
        value           nonuniform 0();
    }
    wall-h2
    {
        type            calculated;
        value           nonuniform 0();
    }
    empty-7
    {
        type            empty;
    }
    empty-8
    {
        type            empty;
    }
    airfoil-h2
    {
        type            calculated;
        value           nonuniform 0();
    }
    wall-h1
    {
        type            calculated;
        value           nonuniform 0();
    }
    empty-9
    {
        type            empty;
    }
    empty-10
    {
        type            empty;
    }
    inlet-h
    {
        type            calculated;
        value           nonuniform 0();
    }
    airfoil-h1
    {
        type            calculated;
        value           nonuniform 0();
    }
    empty-11
    {
        type            empty;
    }
    empty-12
    {
        type            empty;
    }
    procBoundary1to0
    {
        type            processor;
        value           uniform 0;
    }
    procBoundary1to2
    {
        type            processor;
        value           uniform 0;
    }
}


// ************************************************************************* //
