/*--------------------------------*- C++ -*----------------------------------*\
  =========                 |
  \\      /  F ield         | OpenFOAM: The Open Source CFD Toolbox
   \\    /   O peration     | Website:  https://openfoam.org
    \\  /    A nd           | Version:  7
     \\/     M anipulation  |
\*---------------------------------------------------------------------------*/
FoamFile
{
    version     2.0;
    format      ascii;
    class       volScalarField;
    location    "400";
    object      nut;
}
// * * * * * * * * * * * * * * * * * * * * * * * * * * * * * * * * * * * * * //

dimensions      [0 2 -1 0 0 0 0];

internalField   nonuniform List<scalar> 
23064
(
5.20726e-06
5.2086e-06
5.20726e-06
5.20985e-06
5.2086e-06
5.20726e-06
5.21102e-06
5.20985e-06
5.2086e-06
5.20726e-06
5.21213e-06
5.21103e-06
5.20986e-06
5.2086e-06
5.20727e-06
5.21317e-06
5.21214e-06
5.21104e-06
5.20986e-06
5.20861e-06
5.20727e-06
5.21414e-06
5.21318e-06
5.21215e-06
5.21104e-06
5.20986e-06
5.20861e-06
5.20727e-06
5.21506e-06
5.21416e-06
5.21319e-06
5.21215e-06
5.21105e-06
5.20987e-06
5.20861e-06
5.20727e-06
5.21591e-06
5.21507e-06
5.21417e-06
5.2132e-06
5.21216e-06
5.21105e-06
5.20987e-06
5.20862e-06
5.20727e-06
5.2167e-06
5.21592e-06
5.21508e-06
5.21418e-06
5.21321e-06
5.21217e-06
5.21106e-06
5.20988e-06
5.20862e-06
5.20727e-06
5.21744e-06
5.21672e-06
5.21594e-06
5.2151e-06
5.21419e-06
5.21322e-06
5.21218e-06
5.21106e-06
5.20988e-06
5.20862e-06
5.20727e-06
5.21813e-06
5.21746e-06
5.21674e-06
5.21595e-06
5.21511e-06
5.2142e-06
5.21323e-06
5.21218e-06
5.21107e-06
5.20988e-06
5.20862e-06
5.20727e-06
5.21877e-06
5.21815e-06
5.21748e-06
5.21675e-06
5.21597e-06
5.21512e-06
5.21421e-06
5.21323e-06
5.21219e-06
5.21107e-06
5.20988e-06
5.20862e-06
5.20728e-06
5.21936e-06
5.21879e-06
5.21817e-06
5.2175e-06
5.21677e-06
5.21598e-06
5.21514e-06
5.21422e-06
5.21324e-06
5.21219e-06
5.21107e-06
5.20989e-06
5.20862e-06
5.20728e-06
5.21991e-06
5.21938e-06
5.21881e-06
5.21819e-06
5.21751e-06
5.21678e-06
5.216e-06
5.21515e-06
5.21423e-06
5.21325e-06
5.2122e-06
5.21108e-06
5.20989e-06
5.20862e-06
5.20728e-06
5.22042e-06
5.21993e-06
5.2194e-06
5.21883e-06
5.21821e-06
5.21753e-06
5.2168e-06
5.21601e-06
5.21516e-06
5.21424e-06
5.21326e-06
5.2122e-06
5.21108e-06
5.20989e-06
5.20863e-06
5.20728e-06
5.22089e-06
5.22044e-06
5.21995e-06
5.21942e-06
5.21885e-06
5.21822e-06
5.21755e-06
5.21682e-06
5.21602e-06
5.21517e-06
5.21425e-06
5.21326e-06
5.21221e-06
5.21108e-06
5.20989e-06
5.20863e-06
5.20728e-06
5.22133e-06
5.22091e-06
5.22046e-06
5.21997e-06
5.21944e-06
5.21887e-06
5.21824e-06
5.21756e-06
5.21683e-06
5.21604e-06
5.21518e-06
5.21426e-06
5.21327e-06
5.21221e-06
5.21108e-06
5.20989e-06
5.20863e-06
5.20728e-06
5.22173e-06
5.22134e-06
5.22093e-06
5.22048e-06
5.21999e-06
5.21946e-06
5.21888e-06
5.21826e-06
5.21758e-06
5.21685e-06
5.21605e-06
5.21519e-06
5.21427e-06
5.21328e-06
5.21222e-06
5.21109e-06
5.20989e-06
5.20862e-06
5.20728e-06
5.22209e-06
5.22174e-06
5.22136e-06
5.22095e-06
5.2205e-06
5.22001e-06
5.21948e-06
5.2189e-06
5.21828e-06
5.2176e-06
5.21686e-06
5.21607e-06
5.21521e-06
5.21428e-06
5.21328e-06
5.21222e-06
5.21109e-06
5.20989e-06
5.20862e-06
5.20728e-06
5.22243e-06
5.22211e-06
5.22176e-06
5.22138e-06
5.22096e-06
5.22052e-06
5.22003e-06
5.2195e-06
5.21892e-06
5.2183e-06
5.21762e-06
5.21688e-06
5.21608e-06
5.21522e-06
5.21429e-06
5.21329e-06
5.21222e-06
5.21109e-06
5.20989e-06
5.20862e-06
5.20728e-06
5.22273e-06
5.22244e-06
5.22212e-06
5.22177e-06
5.2214e-06
5.22098e-06
5.22054e-06
5.22005e-06
5.21952e-06
5.21894e-06
5.21831e-06
5.21763e-06
5.21689e-06
5.21609e-06
5.21523e-06
5.21429e-06
5.21329e-06
5.21222e-06
5.21109e-06
5.20988e-06
5.20862e-06
5.20728e-06
5.22301e-06
5.22275e-06
5.22246e-06
5.22214e-06
5.22179e-06
5.22141e-06
5.221e-06
5.22056e-06
5.22007e-06
5.21954e-06
5.21896e-06
5.21833e-06
5.21765e-06
5.21691e-06
5.2161e-06
5.21524e-06
5.2143e-06
5.2133e-06
5.21222e-06
5.21108e-06
5.20988e-06
5.20862e-06
5.20728e-06
5.22326e-06
5.22302e-06
5.22276e-06
5.22247e-06
5.22215e-06
5.22181e-06
5.22143e-06
5.22102e-06
5.22058e-06
5.22009e-06
5.21956e-06
5.21898e-06
5.21835e-06
5.21766e-06
5.21692e-06
5.21612e-06
5.21525e-06
5.21431e-06
5.2133e-06
5.21222e-06
5.21108e-06
5.20988e-06
5.20861e-06
5.20728e-06
5.22348e-06
5.22327e-06
5.22303e-06
5.22277e-06
5.22249e-06
5.22217e-06
5.22183e-06
5.22145e-06
5.22104e-06
5.2206e-06
5.22011e-06
5.21958e-06
5.219e-06
5.21837e-06
5.21768e-06
5.21694e-06
5.21613e-06
5.21526e-06
5.21431e-06
5.2133e-06
5.21222e-06
5.21108e-06
5.20987e-06
5.20861e-06
5.20728e-06
5.22368e-06
5.22349e-06
5.22328e-06
5.22305e-06
5.22279e-06
5.2225e-06
5.22219e-06
5.22184e-06
5.22147e-06
5.22106e-06
5.22062e-06
5.22013e-06
5.2196e-06
5.21902e-06
5.21838e-06
5.2177e-06
5.21695e-06
5.21614e-06
5.21526e-06
5.21432e-06
5.21331e-06
5.21222e-06
5.21108e-06
5.20987e-06
5.2086e-06
5.20727e-06
5.22386e-06
5.22369e-06
5.2235e-06
5.22329e-06
5.22306e-06
5.2228e-06
5.22252e-06
5.2222e-06
5.22186e-06
5.22149e-06
5.22108e-06
5.22064e-06
5.22015e-06
5.21962e-06
5.21904e-06
5.2184e-06
5.21771e-06
5.21696e-06
5.21615e-06
5.21527e-06
5.21433e-06
5.21331e-06
5.21222e-06
5.21107e-06
5.20986e-06
5.2086e-06
5.20727e-06
5.22401e-06
5.22386e-06
5.2237e-06
5.22351e-06
5.22331e-06
5.22307e-06
5.22282e-06
5.22253e-06
5.22222e-06
5.22188e-06
5.22151e-06
5.2211e-06
5.22066e-06
5.22017e-06
5.21964e-06
5.21906e-06
5.21842e-06
5.21773e-06
5.21698e-06
5.21616e-06
5.21528e-06
5.21433e-06
5.21331e-06
5.21222e-06
5.21106e-06
5.20985e-06
5.20859e-06
5.20727e-06
5.22414e-06
5.22402e-06
5.22387e-06
5.22371e-06
5.22352e-06
5.22332e-06
5.22309e-06
5.22283e-06
5.22255e-06
5.22224e-06
5.2219e-06
5.22153e-06
5.22112e-06
5.22068e-06
5.22019e-06
5.21966e-06
5.21907e-06
5.21844e-06
5.21775e-06
5.21699e-06
5.21617e-06
5.21529e-06
5.21434e-06
5.21331e-06
5.21222e-06
5.21106e-06
5.20985e-06
5.20859e-06
5.20727e-06
5.22425e-06
5.22414e-06
5.22402e-06
5.22388e-06
5.22372e-06
5.22354e-06
5.22333e-06
5.2231e-06
5.22285e-06
5.22256e-06
5.22226e-06
5.22192e-06
5.22155e-06
5.22114e-06
5.2207e-06
5.22021e-06
5.21968e-06
5.21909e-06
5.21846e-06
5.21776e-06
5.21701e-06
5.21619e-06
5.2153e-06
5.21434e-06
5.21331e-06
5.21221e-06
5.21105e-06
5.20984e-06
5.20858e-06
5.20726e-06
5.22434e-06
5.22425e-06
5.22415e-06
5.22403e-06
5.22389e-06
5.22373e-06
5.22355e-06
5.22334e-06
5.22311e-06
5.22286e-06
5.22258e-06
5.22228e-06
5.22194e-06
5.22157e-06
5.22117e-06
5.22072e-06
5.22023e-06
5.2197e-06
5.21911e-06
5.21847e-06
5.21778e-06
5.21702e-06
5.2162e-06
5.2153e-06
5.21434e-06
5.21331e-06
5.21221e-06
5.21104e-06
5.20983e-06
5.20857e-06
5.20726e-06
0.000175768
5.2244e-06
5.22434e-06
5.22426e-06
5.22416e-06
5.22404e-06
5.2239e-06
5.22374e-06
5.22356e-06
5.22336e-06
5.22313e-06
5.22288e-06
5.2226e-06
5.22229e-06
5.22196e-06
5.22159e-06
5.22119e-06
5.22074e-06
5.22025e-06
5.21972e-06
5.21913e-06
5.21849e-06
5.21779e-06
5.21703e-06
5.21621e-06
5.21531e-06
5.21435e-06
5.21331e-06
5.2122e-06
5.21103e-06
5.20981e-06
5.20856e-06
5.20726e-06
0.000243437
0.000148916
5.22445e-06
5.22441e-06
5.22434e-06
5.22426e-06
5.22416e-06
5.22404e-06
5.22391e-06
5.22375e-06
5.22357e-06
5.22337e-06
5.22314e-06
5.22289e-06
5.22262e-06
5.22231e-06
5.22198e-06
5.22161e-06
5.22121e-06
5.22076e-06
5.22027e-06
5.21974e-06
5.21915e-06
5.21851e-06
5.21781e-06
5.21705e-06
5.21622e-06
5.21532e-06
5.21435e-06
5.2133e-06
5.21219e-06
5.21102e-06
5.2098e-06
5.20855e-06
5.20725e-06
0.000390442
0.000274129
0.000102541
5.22448e-06
5.22445e-06
5.22441e-06
5.22435e-06
5.22427e-06
5.22417e-06
5.22405e-06
5.22392e-06
5.22376e-06
5.22358e-06
5.22338e-06
5.22316e-06
5.22291e-06
5.22263e-06
5.22233e-06
5.222e-06
5.22163e-06
5.22123e-06
5.22078e-06
5.22029e-06
5.21976e-06
5.21917e-06
5.21853e-06
5.21782e-06
5.21706e-06
5.21623e-06
5.21532e-06
5.21435e-06
5.2133e-06
5.21218e-06
5.21101e-06
5.20979e-06
5.20853e-06
5.20725e-06
0.000622853
0.000436375
0.000319577
4.71991e-05
5.2245e-06
5.22448e-06
5.22446e-06
5.22441e-06
5.22435e-06
5.22427e-06
5.22418e-06
5.22406e-06
5.22393e-06
5.22377e-06
5.22359e-06
5.2234e-06
5.22317e-06
5.22293e-06
5.22265e-06
5.22235e-06
5.22202e-06
5.22165e-06
5.22125e-06
5.2208e-06
5.22031e-06
5.21978e-06
5.21919e-06
5.21854e-06
5.21784e-06
5.21707e-06
5.21624e-06
5.21533e-06
5.21435e-06
5.2133e-06
5.21217e-06
5.21099e-06
5.20977e-06
5.20852e-06
5.20724e-06
0.000916569
0.000631568
0.000506056
0.000404425
0.000186038
5.2245e-06
5.2245e-06
5.22448e-06
5.22446e-06
5.22442e-06
5.22436e-06
5.22428e-06
5.22418e-06
5.22407e-06
5.22394e-06
5.22378e-06
5.22361e-06
5.22341e-06
5.22319e-06
5.22294e-06
5.22267e-06
5.22237e-06
5.22204e-06
5.22168e-06
5.22127e-06
5.22083e-06
5.22034e-06
5.2198e-06
5.21921e-06
5.21856e-06
5.21786e-06
5.21708e-06
5.21625e-06
5.21533e-06
5.21435e-06
5.21329e-06
5.21216e-06
5.21098e-06
5.20975e-06
5.2085e-06
5.20723e-06
0.00125928
0.00087453
0.00069968
0.000612188
0.000522482
0.000388905
5.22448e-06
5.22449e-06
5.2245e-06
5.22449e-06
5.22446e-06
5.22442e-06
5.22436e-06
5.22428e-06
5.22419e-06
5.22408e-06
5.22395e-06
5.22379e-06
5.22362e-06
5.22342e-06
5.2232e-06
5.22296e-06
5.22269e-06
5.22239e-06
5.22206e-06
5.2217e-06
5.22129e-06
5.22085e-06
5.22036e-06
5.21982e-06
5.21923e-06
5.21858e-06
5.21787e-06
5.2171e-06
5.21625e-06
5.21534e-06
5.21435e-06
5.21328e-06
5.21215e-06
5.21096e-06
5.20973e-06
5.20848e-06
5.20722e-06
0.00164606
0.00118819
0.000914966
0.000800161
0.00079153
0.000605303
0.000531698
5.22444e-06
5.22447e-06
5.22449e-06
5.2245e-06
5.22449e-06
5.22446e-06
5.22442e-06
5.22436e-06
5.22429e-06
5.2242e-06
5.22409e-06
5.22396e-06
5.22381e-06
5.22363e-06
5.22344e-06
5.22322e-06
5.22298e-06
5.22271e-06
5.22241e-06
5.22208e-06
5.22172e-06
5.22131e-06
5.22087e-06
5.22038e-06
5.21984e-06
5.21925e-06
5.2186e-06
5.21789e-06
5.21711e-06
5.21626e-06
5.21534e-06
5.21435e-06
5.21328e-06
5.21214e-06
5.21094e-06
5.20971e-06
5.20847e-06
5.20722e-06
0.0020709
0.00155139
0.00116106
0.000997532
0.000984321
0.00103063
0.000610921
0.000633834
5.2244e-06
5.22443e-06
5.22447e-06
5.22449e-06
5.2245e-06
5.22449e-06
5.22447e-06
5.22443e-06
5.22437e-06
5.2243e-06
5.22421e-06
5.2241e-06
5.22397e-06
5.22382e-06
5.22365e-06
5.22345e-06
5.22324e-06
5.223e-06
5.22273e-06
5.22243e-06
5.22211e-06
5.22174e-06
5.22134e-06
5.22089e-06
5.2204e-06
5.21986e-06
5.21927e-06
5.21862e-06
5.2179e-06
5.21712e-06
5.21627e-06
5.21535e-06
5.21435e-06
5.21327e-06
5.21212e-06
5.21092e-06
5.20969e-06
5.20844e-06
5.20721e-06
0.00253047
0.00195824
0.00146292
0.00121808
0.00115285
0.00130891
0.00130227
0.000698122
0.000656064
5.22439e-06
5.2244e-06
5.22443e-06
5.22446e-06
5.22449e-06
5.2245e-06
5.22449e-06
5.22447e-06
5.22443e-06
5.22438e-06
5.2243e-06
5.22421e-06
5.22411e-06
5.22398e-06
5.22383e-06
5.22366e-06
5.22347e-06
5.22325e-06
5.22302e-06
5.22275e-06
5.22246e-06
5.22213e-06
5.22176e-06
5.22136e-06
5.22091e-06
5.22042e-06
5.21988e-06
5.21929e-06
5.21863e-06
5.21792e-06
5.21713e-06
5.21628e-06
5.21535e-06
5.21434e-06
5.21326e-06
5.21211e-06
5.2109e-06
5.20966e-06
5.20842e-06
5.20719e-06
0.00302234
0.00240298
0.00183212
0.00146967
0.00132927
0.00149646
0.00172423
0.00151368
0.000653437
0.00062232
5.22439e-06
5.22438e-06
5.22439e-06
5.22442e-06
5.22446e-06
5.22449e-06
5.2245e-06
5.22449e-06
5.22447e-06
5.22443e-06
5.22438e-06
5.22431e-06
5.22422e-06
5.22412e-06
5.22399e-06
5.22384e-06
5.22367e-06
5.22348e-06
5.22327e-06
5.22304e-06
5.22277e-06
5.22248e-06
5.22215e-06
5.22179e-06
5.22138e-06
5.22094e-06
5.22044e-06
5.2199e-06
5.21931e-06
5.21865e-06
5.21793e-06
5.21715e-06
5.21629e-06
5.21535e-06
5.21434e-06
5.21325e-06
5.21209e-06
5.21087e-06
5.20963e-06
5.20839e-06
5.20718e-06
0.00354452
0.00288129
0.00224945
0.00175686
0.00153158
0.00163819
0.00200508
0.00207011
0.00137223
0.000534296
0.000579868
5.22441e-06
5.22438e-06
5.22438e-06
5.22439e-06
5.22442e-06
5.22446e-06
5.22448e-06
5.2245e-06
5.22449e-06
5.22447e-06
5.22444e-06
5.22439e-06
5.22432e-06
5.22423e-06
5.22413e-06
5.224e-06
5.22385e-06
5.22369e-06
5.2235e-06
5.22329e-06
5.22306e-06
5.22279e-06
5.2225e-06
5.22217e-06
5.22181e-06
5.2214e-06
5.22096e-06
5.22047e-06
5.21992e-06
5.21933e-06
5.21867e-06
5.21795e-06
5.21716e-06
5.2163e-06
5.21535e-06
5.21433e-06
5.21324e-06
5.21207e-06
5.21085e-06
5.2096e-06
5.20836e-06
5.20717e-06
0.00409529
0.0033906
0.00270839
0.0020914
0.00176845
0.00176845
0.00219604
0.00248357
0.00212133
0.00111008
0.000470983
0.000542033
5.22445e-06
5.2244e-06
5.22438e-06
5.22437e-06
5.22438e-06
5.22441e-06
5.22446e-06
5.22448e-06
5.2245e-06
5.2245e-06
5.22448e-06
5.22444e-06
5.22439e-06
5.22433e-06
5.22424e-06
5.22414e-06
5.22401e-06
5.22387e-06
5.2237e-06
5.22352e-06
5.22331e-06
5.22307e-06
5.22281e-06
5.22252e-06
5.22219e-06
5.22183e-06
5.22143e-06
5.22098e-06
5.22049e-06
5.21995e-06
5.21935e-06
5.21869e-06
5.21797e-06
5.21717e-06
5.2163e-06
5.21536e-06
5.21433e-06
5.21322e-06
5.21205e-06
5.21082e-06
5.20957e-06
5.20833e-06
5.20715e-06
0.00467241
0.0039292
0.00320227
0.00250016
0.00204351
0.00191475
0.00232806
0.00278943
0.00271799
0.00183278
0.000930485
0.0004681
0.000506631
5.22451e-06
5.22444e-06
5.2244e-06
5.22438e-06
5.22437e-06
5.22438e-06
5.22441e-06
5.22446e-06
5.22448e-06
5.2245e-06
5.2245e-06
5.22448e-06
5.22445e-06
5.2244e-06
5.22433e-06
5.22425e-06
5.22415e-06
5.22402e-06
5.22388e-06
5.22372e-06
5.22353e-06
5.22333e-06
5.2231e-06
5.22283e-06
5.22254e-06
5.22222e-06
5.22185e-06
5.22145e-06
5.22101e-06
5.22051e-06
5.21997e-06
5.21937e-06
5.21871e-06
5.21798e-06
5.21718e-06
5.21631e-06
5.21536e-06
5.21432e-06
5.21321e-06
5.21202e-06
5.21079e-06
5.20953e-06
5.2083e-06
5.20714e-06
0.00527084
0.00449584
0.0037273
0.0029606
0.00235779
0.00209573
0.00242693
0.00301028
0.00318556
0.0026291
0.0015331
0.000869583
0.000455136
0.000479461
5.22459e-06
5.22451e-06
5.22444e-06
5.2244e-06
5.22438e-06
5.22437e-06
5.22438e-06
5.22441e-06
5.22446e-06
5.22449e-06
5.2245e-06
5.2245e-06
5.22449e-06
5.22445e-06
5.22441e-06
5.22434e-06
5.22426e-06
5.22416e-06
5.22404e-06
5.2239e-06
5.22373e-06
5.22355e-06
5.22335e-06
5.22312e-06
5.22286e-06
5.22257e-06
5.22224e-06
5.22188e-06
5.22148e-06
5.22103e-06
5.22054e-06
5.21999e-06
5.21939e-06
5.21873e-06
5.218e-06
5.21719e-06
5.21632e-06
5.21536e-06
5.21431e-06
5.21319e-06
5.212e-06
5.21075e-06
5.20949e-06
5.20826e-06
5.20712e-06
0.00588344
0.00508924
0.00428151
0.00346378
0.00271258
0.00232183
0.00251653
0.00316515
0.00354836
0.00328182
0.00224583
0.00132508
0.000851898
0.000404779
0.000475406
5.22469e-06
5.22459e-06
5.2245e-06
5.22444e-06
5.2244e-06
5.22438e-06
5.22437e-06
5.22438e-06
5.22441e-06
5.22445e-06
5.22449e-06
5.2245e-06
5.2245e-06
5.22449e-06
5.22446e-06
5.22441e-06
5.22435e-06
5.22427e-06
5.22417e-06
5.22405e-06
5.22391e-06
5.22375e-06
5.22357e-06
5.22337e-06
5.22314e-06
5.22288e-06
5.22259e-06
5.22226e-06
5.2219e-06
5.2215e-06
5.22105e-06
5.22056e-06
5.22001e-06
5.21941e-06
5.21875e-06
5.21801e-06
5.21721e-06
5.21632e-06
5.21536e-06
5.21431e-06
5.21317e-06
5.21197e-06
5.21071e-06
5.20945e-06
5.20822e-06
5.20709e-06
0.00650499
0.00570589
0.00486385
0.0040021
0.00313808
0.00259676
0.00261966
0.00327217
0.00382485
0.00381009
0.00304525
0.00190067
0.00122534
0.000749607
0.000371533
0.000491055
5.2248e-06
5.22469e-06
5.22459e-06
5.2245e-06
5.22444e-06
5.2244e-06
5.22437e-06
5.22437e-06
5.22438e-06
5.22441e-06
5.22445e-06
5.22449e-06
5.22451e-06
5.22451e-06
5.22449e-06
5.22447e-06
5.22442e-06
5.22436e-06
5.22428e-06
5.22418e-06
5.22406e-06
5.22392e-06
5.22377e-06
5.22359e-06
5.22339e-06
5.22316e-06
5.2229e-06
5.22261e-06
5.22229e-06
5.22193e-06
5.22152e-06
5.22108e-06
5.22058e-06
5.22004e-06
5.21943e-06
5.21876e-06
5.21803e-06
5.21722e-06
5.21633e-06
5.21536e-06
5.2143e-06
5.21316e-06
5.21194e-06
5.21067e-06
5.2094e-06
5.20818e-06
5.20707e-06
0.00713392
0.00633847
0.00547389
0.00457151
0.00362868
0.00292069
0.00275698
0.00334897
0.00403052
0.00423588
0.00374812
0.0025747
0.00164641
0.00108176
0.000631084
0.000385775
0.000510055
5.22494e-06
5.2248e-06
5.22469e-06
5.22459e-06
5.22451e-06
5.22444e-06
5.2244e-06
5.22437e-06
5.22437e-06
5.22438e-06
5.22441e-06
5.22445e-06
5.22449e-06
5.22451e-06
5.22451e-06
5.2245e-06
5.22447e-06
5.22443e-06
5.22437e-06
5.22429e-06
5.22419e-06
5.22408e-06
5.22394e-06
5.22378e-06
5.22361e-06
5.22341e-06
5.22318e-06
5.22292e-06
5.22263e-06
5.22231e-06
5.22195e-06
5.22155e-06
5.2211e-06
5.22061e-06
5.22006e-06
5.21945e-06
5.21878e-06
5.21805e-06
5.21723e-06
5.21634e-06
5.21535e-06
5.21429e-06
5.21313e-06
5.21191e-06
5.21063e-06
5.20935e-06
5.20813e-06
5.20704e-06
0.00777176
0.00698037
0.00610989
0.00517055
0.00416979
0.00329219
0.00294385
0.00341386
0.00417967
0.00457591
0.00433894
0.00330823
0.00218417
0.00143164
0.000889134
0.000616085
0.000411659
0.000525294
5.2251e-06
5.22494e-06
5.22481e-06
5.22469e-06
5.22459e-06
5.22451e-06
5.22445e-06
5.2244e-06
5.22438e-06
5.22437e-06
5.22438e-06
5.22441e-06
5.22445e-06
5.22449e-06
5.22451e-06
5.22452e-06
5.2245e-06
5.22448e-06
5.22444e-06
5.22438e-06
5.2243e-06
5.2242e-06
5.22409e-06
5.22396e-06
5.2238e-06
5.22363e-06
5.22343e-06
5.2232e-06
5.22295e-06
5.22266e-06
5.22234e-06
5.22198e-06
5.22157e-06
5.22113e-06
5.22063e-06
5.22008e-06
5.21948e-06
5.2188e-06
5.21806e-06
5.21724e-06
5.21634e-06
5.21535e-06
5.21428e-06
5.21311e-06
5.21187e-06
5.21058e-06
5.2093e-06
5.20807e-06
5.20701e-06
0.00842218
0.0076294
0.00676447
0.00579916
0.00475142
0.00371194
0.00318935
0.00348551
0.00428564
0.00484391
0.00483015
0.00407553
0.00280392
0.00182974
0.00116346
0.000846283
0.000688826
0.000439376
0.000534852
5.22527e-06
5.2251e-06
5.22494e-06
5.22481e-06
5.22469e-06
5.22459e-06
5.22451e-06
5.22445e-06
5.2244e-06
5.22438e-06
5.22437e-06
5.22438e-06
5.22441e-06
5.22446e-06
5.22449e-06
5.22451e-06
5.22452e-06
5.22451e-06
5.22448e-06
5.22444e-06
5.22439e-06
5.22431e-06
5.22422e-06
5.2241e-06
5.22397e-06
5.22382e-06
5.22365e-06
5.22345e-06
5.22322e-06
5.22297e-06
5.22268e-06
5.22236e-06
5.222e-06
5.2216e-06
5.22115e-06
5.22066e-06
5.22011e-06
5.2195e-06
5.21882e-06
5.21808e-06
5.21725e-06
5.21635e-06
5.21535e-06
5.21426e-06
5.21309e-06
5.21184e-06
5.21054e-06
5.20924e-06
5.20802e-06
5.20698e-06
0.00909087
0.00828723
0.00742896
0.00645723
0.00536811
0.00421332
0.00349709
0.00358235
0.00436195
0.00505177
0.0052366
0.0047372
0.00348838
0.00233328
0.001477
0.00107244
0.000954106
0.000788275
0.00047307
0.000536827
5.22546e-06
5.22527e-06
5.2251e-06
5.22495e-06
5.22481e-06
5.22469e-06
5.22459e-06
5.22451e-06
5.22445e-06
5.22441e-06
5.22438e-06
5.22437e-06
5.22438e-06
5.22441e-06
5.22446e-06
5.22449e-06
5.22452e-06
5.22452e-06
5.22452e-06
5.22449e-06
5.22445e-06
5.22439e-06
5.22432e-06
5.22423e-06
5.22412e-06
5.22399e-06
5.22384e-06
5.22367e-06
5.22347e-06
5.22325e-06
5.22299e-06
5.22271e-06
5.22239e-06
5.22203e-06
5.22163e-06
5.22118e-06
5.22069e-06
5.22013e-06
5.21952e-06
5.21885e-06
5.2181e-06
5.21727e-06
5.21635e-06
5.21535e-06
5.21425e-06
5.21306e-06
5.2118e-06
5.21048e-06
5.20918e-06
5.20795e-06
5.20694e-06
0.00978578
0.00895831
0.00810012
0.00713768
0.00601841
0.00478333
0.0038664
0.00372154
0.00442252
0.00521027
0.00557113
0.005301
0.00420955
0.00290772
0.00188427
0.00131202
0.00120041
0.00110994
0.000897446
0.000516798
0.000530372
5.22566e-06
5.22546e-06
5.22528e-06
5.2251e-06
5.22495e-06
5.22481e-06
5.2247e-06
5.2246e-06
5.22452e-06
5.22445e-06
5.22441e-06
5.22438e-06
5.22437e-06
5.22438e-06
5.22441e-06
5.22446e-06
5.2245e-06
5.22452e-06
5.22453e-06
5.22452e-06
5.2245e-06
5.22446e-06
5.2244e-06
5.22433e-06
5.22424e-06
5.22413e-06
5.22401e-06
5.22386e-06
5.22369e-06
5.22349e-06
5.22327e-06
5.22302e-06
5.22273e-06
5.22241e-06
5.22205e-06
5.22165e-06
5.22121e-06
5.22071e-06
5.22016e-06
5.21955e-06
5.21887e-06
5.21811e-06
5.21728e-06
5.21636e-06
5.21535e-06
5.21424e-06
5.21304e-06
5.21176e-06
5.21043e-06
5.20911e-06
5.20788e-06
5.2069e-06
0.0105174
0.00964939
0.00877969
0.00782853
0.00670307
0.00540834
0.00429502
0.00391796
0.00448185
0.00532974
0.00584461
0.00577902
0.00494478
0.0035401
0.00236506
0.00161945
0.00143516
0.0014087
0.00127783
0.00100681
0.000559623
0.000516438
5.22588e-06
5.22567e-06
5.22547e-06
5.22528e-06
5.22511e-06
5.22495e-06
5.22482e-06
5.2247e-06
5.2246e-06
5.22452e-06
5.22446e-06
5.22441e-06
5.22439e-06
5.22438e-06
5.22439e-06
5.22442e-06
5.22446e-06
5.2245e-06
5.22452e-06
5.22453e-06
5.22453e-06
5.22451e-06
5.22447e-06
5.22442e-06
5.22434e-06
5.22426e-06
5.22415e-06
5.22402e-06
5.22388e-06
5.22371e-06
5.22351e-06
5.22329e-06
5.22304e-06
5.22276e-06
5.22244e-06
5.22208e-06
5.22168e-06
5.22124e-06
5.22074e-06
5.22019e-06
5.21957e-06
5.21889e-06
5.21813e-06
5.21729e-06
5.21636e-06
5.21534e-06
5.21422e-06
5.21301e-06
5.21171e-06
5.21037e-06
5.20903e-06
5.20781e-06
5.20686e-06
0.0112982
0.0103698
0.00947275
0.00852494
0.00741549
0.00607828
0.00478175
0.00418107
0.00455507
0.00542021
0.00606657
0.00618406
0.00558853
0.00421493
0.00290579
0.0020108
0.00167533
0.00168764
0.00163617
0.00144962
0.00111033
0.000596461
0.000496497
5.22611e-06
5.22589e-06
5.22568e-06
5.22547e-06
5.22528e-06
5.22511e-06
5.22496e-06
5.22482e-06
5.2247e-06
5.22461e-06
5.22453e-06
5.22446e-06
5.22442e-06
5.22439e-06
5.22438e-06
5.22439e-06
5.22442e-06
5.22446e-06
5.2245e-06
5.22453e-06
5.22454e-06
5.22453e-06
5.22451e-06
5.22448e-06
5.22443e-06
5.22436e-06
5.22427e-06
5.22416e-06
5.22404e-06
5.2239e-06
5.22373e-06
5.22354e-06
5.22332e-06
5.22307e-06
5.22278e-06
5.22247e-06
5.22211e-06
5.22171e-06
5.22126e-06
5.22077e-06
5.22021e-06
5.2196e-06
5.21891e-06
5.21815e-06
5.2173e-06
5.21637e-06
5.21534e-06
5.21421e-06
5.21298e-06
5.21167e-06
5.2103e-06
5.20896e-06
5.20773e-06
5.20681e-06
0.0121367
0.0111318
0.0101869
0.0092287
0.00813822
0.00678982
0.00533999
0.00451501
0.0046575
0.00549197
0.00624554
0.00652716
0.00614539
0.00491506
0.00350053
0.00247372
0.00197696
0.00195451
0.00197249
0.0018721
0.00161871
0.00120256
0.000627605
0.000471512
5.22635e-06
5.22612e-06
5.2259e-06
5.22568e-06
5.22547e-06
5.22528e-06
5.22511e-06
5.22496e-06
5.22483e-06
5.22471e-06
5.22461e-06
5.22453e-06
5.22447e-06
5.22442e-06
5.22439e-06
5.22438e-06
5.22439e-06
5.22442e-06
5.22446e-06
5.2245e-06
5.22453e-06
5.22454e-06
5.22454e-06
5.22452e-06
5.22449e-06
5.22444e-06
5.22437e-06
5.22428e-06
5.22418e-06
5.22406e-06
5.22392e-06
5.22375e-06
5.22356e-06
5.22334e-06
5.22309e-06
5.22281e-06
5.22249e-06
5.22214e-06
5.22174e-06
5.22129e-06
5.2208e-06
5.22024e-06
5.21962e-06
5.21893e-06
5.21817e-06
5.21732e-06
5.21637e-06
5.21533e-06
5.21419e-06
5.21295e-06
5.21162e-06
5.21023e-06
5.20887e-06
5.20764e-06
5.20675e-06
0.0130328
0.0119485
0.0109324
0.00994535
0.00886443
0.00753903
0.00598416
0.0049199
0.00480374
0.0055558
0.00638944
0.00681752
0.00662639
0.00562557
0.00413565
0.00299925
0.00236595
0.00222455
0.00229231
0.00227214
0.00210963
0.001776
0.00128088
0.000654239
0.00044157
5.2266e-06
5.22636e-06
5.22613e-06
5.22591e-06
5.22569e-06
5.22548e-06
5.22529e-06
5.22512e-06
5.22497e-06
5.22483e-06
5.22472e-06
5.22462e-06
5.22454e-06
5.22447e-06
5.22443e-06
5.2244e-06
5.22439e-06
5.2244e-06
5.22442e-06
5.22446e-06
5.22451e-06
5.22454e-06
5.22455e-06
5.22455e-06
5.22453e-06
5.2245e-06
5.22445e-06
5.22438e-06
5.2243e-06
5.2242e-06
5.22408e-06
5.22394e-06
5.22377e-06
5.22358e-06
5.22337e-06
5.22312e-06
5.22284e-06
5.22252e-06
5.22217e-06
5.22177e-06
5.22132e-06
5.22082e-06
5.22027e-06
5.21965e-06
5.21896e-06
5.21819e-06
5.21733e-06
5.21638e-06
5.21533e-06
5.21417e-06
5.21291e-06
5.21156e-06
5.21016e-06
5.20878e-06
5.20754e-06
5.20669e-06
0.013984
0.0128265
0.0117226
0.0106828
0.00959599
0.0083009
0.00669519
0.0053924
0.00500654
0.00562314
0.00650586
0.00706327
0.00704324
0.00626419
0.00480266
0.0035757
0.00283443
0.00253851
0.00260508
0.00265513
0.00257903
0.0023382
0.00191502
0.00134723
0.000679205
0.000405443
5.22687e-06
5.22662e-06
5.22638e-06
5.22614e-06
5.22591e-06
5.22569e-06
5.22548e-06
5.2253e-06
5.22513e-06
5.22497e-06
5.22484e-06
5.22472e-06
5.22462e-06
5.22454e-06
5.22448e-06
5.22443e-06
5.2244e-06
5.22439e-06
5.2244e-06
5.22443e-06
5.22447e-06
5.22451e-06
5.22454e-06
5.22456e-06
5.22456e-06
5.22454e-06
5.22451e-06
5.22446e-06
5.2244e-06
5.22431e-06
5.22421e-06
5.2241e-06
5.22396e-06
5.2238e-06
5.22361e-06
5.22339e-06
5.22315e-06
5.22287e-06
5.22255e-06
5.2222e-06
5.2218e-06
5.22135e-06
5.22085e-06
5.2203e-06
5.21968e-06
5.21898e-06
5.21821e-06
5.21734e-06
5.21639e-06
5.21532e-06
5.21416e-06
5.21288e-06
5.21151e-06
5.21008e-06
5.20869e-06
5.20744e-06
5.20666e-06
0.0149896
0.013764
0.012572
0.0114514
0.0103388
0.00906378
0.00745859
0.00592885
0.00527625
0.0057062
0.00660207
0.00727157
0.00740615
0.0068257
0.00549484
0.00419665
0.0033703
0.00294914
0.00292753
0.00303043
0.00303264
0.00288193
0.00254685
0.00203578
0.00140587
0.000703406
0.000360858
5.22715e-06
5.22689e-06
5.22664e-06
5.22639e-06
5.22615e-06
5.22592e-06
5.2257e-06
5.22549e-06
5.2253e-06
5.22513e-06
5.22498e-06
5.22485e-06
5.22473e-06
5.22463e-06
5.22455e-06
5.22449e-06
5.22444e-06
5.22441e-06
5.2244e-06
5.22441e-06
5.22443e-06
5.22447e-06
5.22452e-06
5.22455e-06
5.22456e-06
5.22456e-06
5.22455e-06
5.22452e-06
5.22447e-06
5.22441e-06
5.22433e-06
5.22423e-06
5.22412e-06
5.22398e-06
5.22382e-06
5.22363e-06
5.22342e-06
5.22317e-06
5.22289e-06
5.22258e-06
5.22223e-06
5.22183e-06
5.22138e-06
5.22089e-06
5.22033e-06
5.2197e-06
5.21901e-06
5.21823e-06
5.21736e-06
5.21639e-06
5.21532e-06
5.21414e-06
5.21284e-06
5.21145e-06
5.21e-06
5.20858e-06
5.20733e-06
5.20667e-06
0.016051
0.0147593
0.0134867
0.0122647
0.0111009
0.00982908
0.0082628
0.00653031
0.00561895
0.00581774
0.00668562
0.00744867
0.00772348
0.00731979
0.00617388
0.00485791
0.00396471
0.00344221
0.00330238
0.00341247
0.00348106
0.00341274
0.00316588
0.00273209
0.00214219
0.00145939
0.000721437
0.00030515
5.22745e-06
5.22717e-06
5.22691e-06
5.22665e-06
5.2264e-06
5.22616e-06
5.22592e-06
5.2257e-06
5.2255e-06
5.22531e-06
5.22514e-06
5.22499e-06
5.22486e-06
5.22474e-06
5.22464e-06
5.22456e-06
5.22449e-06
5.22445e-06
5.22442e-06
5.2244e-06
5.22441e-06
5.22443e-06
5.22447e-06
5.22452e-06
5.22455e-06
5.22457e-06
5.22457e-06
5.22456e-06
5.22453e-06
5.22448e-06
5.22442e-06
5.22435e-06
5.22425e-06
5.22414e-06
5.224e-06
5.22384e-06
5.22366e-06
5.22344e-06
5.2232e-06
5.22292e-06
5.22261e-06
5.22226e-06
5.22186e-06
5.22142e-06
5.22092e-06
5.22036e-06
5.21973e-06
5.21903e-06
5.21825e-06
5.21737e-06
5.2164e-06
5.21532e-06
5.21412e-06
5.21281e-06
5.21139e-06
5.20992e-06
5.20847e-06
5.20723e-06
5.20671e-06
0.017171
0.0158128
0.0144648
0.013139
0.011892
0.0106031
0.00907299
0.00723177
0.0060369
0.0059703
0.00676412
0.00760031
0.00800209
0.007757
0.00679104
0.00552728
0.00461005
0.00400703
0.00378619
0.00382955
0.00394076
0.00394231
0.00377679
0.00342308
0.00289597
0.00223749
0.00149965
0.000704626
0.000247197
5.22776e-06
5.22747e-06
5.22719e-06
5.22693e-06
5.22667e-06
5.22642e-06
5.22617e-06
5.22593e-06
5.22571e-06
5.2255e-06
5.22532e-06
5.22515e-06
5.225e-06
5.22487e-06
5.22475e-06
5.22465e-06
5.22457e-06
5.2245e-06
5.22445e-06
5.22442e-06
5.22441e-06
5.22442e-06
5.22444e-06
5.22447e-06
5.22452e-06
5.22456e-06
5.22458e-06
5.22458e-06
5.22457e-06
5.22454e-06
5.2245e-06
5.22444e-06
5.22436e-06
5.22427e-06
5.22416e-06
5.22402e-06
5.22387e-06
5.22368e-06
5.22347e-06
5.22323e-06
5.22295e-06
5.22264e-06
5.22229e-06
5.22189e-06
5.22145e-06
5.22095e-06
5.22039e-06
5.21976e-06
5.21906e-06
5.21827e-06
5.21739e-06
5.21641e-06
5.21531e-06
5.2141e-06
5.21277e-06
5.21133e-06
5.20983e-06
5.20836e-06
5.20713e-06
5.20677e-06
0.0183538
0.016927
0.0155047
0.0140845
0.012724
0.011394
0.00988232
0.00801064
0.0065298
0.00617537
0.00684595
0.00773175
0.00824793
0.00814658
0.00734471
0.00616742
0.0052579
0.00463198
0.00435866
0.00435733
0.00444165
0.00448947
0.00439224
0.00411277
0.00365253
0.00304023
0.00231181
0.00147894
0.000581077
0.000231271
5.22808e-06
5.22778e-06
5.22749e-06
5.22721e-06
5.22694e-06
5.22668e-06
5.22643e-06
5.22618e-06
5.22594e-06
5.22571e-06
5.22551e-06
5.22533e-06
5.22516e-06
5.22501e-06
5.22487e-06
5.22476e-06
5.22466e-06
5.22458e-06
5.22451e-06
5.22446e-06
5.22443e-06
5.22442e-06
5.22442e-06
5.22444e-06
5.22448e-06
5.22453e-06
5.22456e-06
5.22458e-06
5.22459e-06
5.22458e-06
5.22455e-06
5.22451e-06
5.22445e-06
5.22438e-06
5.22429e-06
5.22418e-06
5.22405e-06
5.22389e-06
5.22371e-06
5.2235e-06
5.22326e-06
5.22298e-06
5.22267e-06
5.22232e-06
5.22193e-06
5.22148e-06
5.22098e-06
5.22042e-06
5.21979e-06
5.21908e-06
5.21829e-06
5.21741e-06
5.21641e-06
5.21531e-06
5.21408e-06
5.21273e-06
5.21127e-06
5.20973e-06
5.20823e-06
5.20707e-06
5.20686e-06
0.0196043
0.0181054
0.0166073
0.0150995
0.0136126
0.0122107
0.0106961
0.00884742
0.00709587
0.00644266
0.00693999
0.00784807
0.00846647
0.0084963
0.00784296
0.00676694
0.00588718
0.00531213
0.00501212
0.00499447
0.00505414
0.00508843
0.00503391
0.00481497
0.00441571
0.00385238
0.00315191
0.00230725
0.0012438
0.000364505
0.000279896
5.22841e-06
5.2281e-06
5.2278e-06
5.22751e-06
5.22723e-06
5.22696e-06
5.2267e-06
5.22644e-06
5.22618e-06
5.22594e-06
5.22572e-06
5.22552e-06
5.22534e-06
5.22517e-06
5.22502e-06
5.22488e-06
5.22477e-06
5.22467e-06
5.22459e-06
5.22452e-06
5.22447e-06
5.22444e-06
5.22443e-06
5.22443e-06
5.22445e-06
5.22448e-06
5.22453e-06
5.22457e-06
5.22459e-06
5.2246e-06
5.22459e-06
5.22456e-06
5.22452e-06
5.22447e-06
5.2244e-06
5.22431e-06
5.2242e-06
5.22407e-06
5.22391e-06
5.22373e-06
5.22353e-06
5.22329e-06
5.22301e-06
5.22271e-06
5.22236e-06
5.22196e-06
5.22152e-06
5.22102e-06
5.22046e-06
5.21982e-06
5.21911e-06
5.21832e-06
5.21742e-06
5.21642e-06
5.2153e-06
5.21406e-06
5.21269e-06
5.2112e-06
5.20963e-06
5.20811e-06
5.20704e-06
5.20698e-06
0.020928
0.0193525
0.0177755
0.0161818
0.0145761
0.0130635
0.0115226
0.00971348
0.00773358
0.00677908
0.00705581
0.00795418
0.00866227
0.00881262
0.00829448
0.00732547
0.00649324
0.00601419
0.00573629
0.00572652
0.00579562
0.005813
0.00574272
0.00555528
0.00520111
0.00467816
0.00400386
0.00316596
0.00202122
0.000794949
0.000274942
0.00030126
5.22875e-06
5.22844e-06
5.22813e-06
5.22783e-06
5.22753e-06
5.22725e-06
5.22698e-06
5.22671e-06
5.22644e-06
5.22619e-06
5.22595e-06
5.22573e-06
5.22553e-06
5.22535e-06
5.22518e-06
5.22503e-06
5.2249e-06
5.22478e-06
5.22468e-06
5.2246e-06
5.22453e-06
5.22448e-06
5.22445e-06
5.22443e-06
5.22444e-06