/*--------------------------------*- C++ -*----------------------------------*\
  =========                 |
  \\      /  F ield         | OpenFOAM: The Open Source CFD Toolbox
   \\    /   O peration     | Website:  https://openfoam.org
    \\  /    A nd           | Version:  7
     \\/     M anipulation  |
\*---------------------------------------------------------------------------*/
FoamFile
{
    version     2.0;
    format      ascii;
    class       volScalarField;
    location    "400";
    object      nuTilda;
}
// * * * * * * * * * * * * * * * * * * * * * * * * * * * * * * * * * * * * * //

dimensions      [0 2 -1 0 0 0 0];

internalField   nonuniform List<scalar> 
23064
(
3.43223e-05
3.43248e-05
3.43223e-05
3.43271e-05
3.43248e-05
3.43223e-05
3.43293e-05
3.43271e-05
3.43248e-05
3.43223e-05
3.43314e-05
3.43293e-05
3.43271e-05
3.43248e-05
3.43223e-05
3.43333e-05
3.43314e-05
3.43293e-05
3.43271e-05
3.43248e-05
3.43223e-05
3.43351e-05
3.43333e-05
3.43314e-05
3.43294e-05
3.43272e-05
3.43248e-05
3.43223e-05
3.43368e-05
3.43352e-05
3.43334e-05
3.43314e-05
3.43294e-05
3.43272e-05
3.43248e-05
3.43223e-05
3.43384e-05
3.43369e-05
3.43352e-05
3.43334e-05
3.43314e-05
3.43294e-05
3.43272e-05
3.43248e-05
3.43223e-05
3.43399e-05
3.43385e-05
3.43369e-05
3.43352e-05
3.43334e-05
3.43315e-05
3.43294e-05
3.43272e-05
3.43248e-05
3.43223e-05
3.43413e-05
3.43399e-05
3.43385e-05
3.43369e-05
3.43352e-05
3.43334e-05
3.43315e-05
3.43294e-05
3.43272e-05
3.43248e-05
3.43223e-05
3.43426e-05
3.43413e-05
3.434e-05
3.43385e-05
3.43369e-05
3.43352e-05
3.43334e-05
3.43315e-05
3.43294e-05
3.43272e-05
3.43248e-05
3.43223e-05
3.43438e-05
3.43426e-05
3.43414e-05
3.434e-05
3.43385e-05
3.4337e-05
3.43353e-05
3.43334e-05
3.43315e-05
3.43294e-05
3.43272e-05
3.43248e-05
3.43223e-05
3.43449e-05
3.43438e-05
3.43426e-05
3.43414e-05
3.434e-05
3.43386e-05
3.4337e-05
3.43353e-05
3.43335e-05
3.43315e-05
3.43294e-05
3.43272e-05
3.43248e-05
3.43223e-05
3.43459e-05
3.43449e-05
3.43438e-05
3.43427e-05
3.43414e-05
3.43401e-05
3.43386e-05
3.4337e-05
3.43353e-05
3.43335e-05
3.43315e-05
3.43294e-05
3.43272e-05
3.43248e-05
3.43223e-05
3.43468e-05
3.43459e-05
3.43449e-05
3.43439e-05
3.43427e-05
3.43415e-05
3.43401e-05
3.43386e-05
3.4337e-05
3.43353e-05
3.43335e-05
3.43315e-05
3.43294e-05
3.43272e-05
3.43248e-05
3.43223e-05
3.43477e-05
3.43469e-05
3.4346e-05
3.4345e-05
3.43439e-05
3.43427e-05
3.43415e-05
3.43401e-05
3.43386e-05
3.43371e-05
3.43353e-05
3.43335e-05
3.43315e-05
3.43294e-05
3.43272e-05
3.43248e-05
3.43223e-05
3.43485e-05
3.43477e-05
3.43469e-05
3.4346e-05
3.4345e-05
3.43439e-05
3.43428e-05
3.43415e-05
3.43402e-05
3.43387e-05
3.43371e-05
3.43354e-05
3.43335e-05
3.43315e-05
3.43294e-05
3.43272e-05
3.43248e-05
3.43223e-05
3.43493e-05
3.43485e-05
3.43478e-05
3.43469e-05
3.4346e-05
3.4345e-05
3.4344e-05
3.43428e-05
3.43415e-05
3.43402e-05
3.43387e-05
3.43371e-05
3.43354e-05
3.43335e-05
3.43315e-05
3.43294e-05
3.43272e-05
3.43248e-05
3.43223e-05
3.43499e-05
3.43493e-05
3.43486e-05
3.43478e-05
3.4347e-05
3.43461e-05
3.43451e-05
3.4344e-05
3.43428e-05
3.43416e-05
3.43402e-05
3.43387e-05
3.43371e-05
3.43354e-05
3.43335e-05
3.43315e-05
3.43294e-05
3.43272e-05
3.43248e-05
3.43223e-05
3.43506e-05
3.435e-05
3.43493e-05
3.43486e-05
3.43478e-05
3.4347e-05
3.43461e-05
3.43451e-05
3.4344e-05
3.43429e-05
3.43416e-05
3.43402e-05
3.43387e-05
3.43371e-05
3.43354e-05
3.43335e-05
3.43316e-05
3.43294e-05
3.43272e-05
3.43248e-05
3.43223e-05
3.43511e-05
3.43506e-05
3.435e-05
3.43494e-05
3.43486e-05
3.43479e-05
3.4347e-05
3.43461e-05
3.43452e-05
3.43441e-05
3.43429e-05
3.43416e-05
3.43403e-05
3.43388e-05
3.43372e-05
3.43354e-05
3.43336e-05
3.43316e-05
3.43294e-05
3.43272e-05
3.43248e-05
3.43223e-05
3.43516e-05
3.43512e-05
3.43506e-05
3.435e-05
3.43494e-05
3.43487e-05
3.43479e-05
3.43471e-05
3.43462e-05
3.43452e-05
3.43441e-05
3.43429e-05
3.43417e-05
3.43403e-05
3.43388e-05
3.43372e-05
3.43354e-05
3.43336e-05
3.43316e-05
3.43294e-05
3.43272e-05
3.43248e-05
3.43223e-05
3.43521e-05
3.43517e-05
3.43512e-05
3.43506e-05
3.43501e-05
3.43494e-05
3.43487e-05
3.4348e-05
3.43471e-05
3.43462e-05
3.43452e-05
3.43442e-05
3.4343e-05
3.43417e-05
3.43403e-05
3.43388e-05
3.43372e-05
3.43354e-05
3.43336e-05
3.43316e-05
3.43294e-05
3.43272e-05
3.43248e-05
3.43223e-05
3.43525e-05
3.43521e-05
3.43517e-05
3.43512e-05
3.43507e-05
3.43501e-05
3.43494e-05
3.43488e-05
3.4348e-05
3.43472e-05
3.43463e-05
3.43453e-05
3.43442e-05
3.4343e-05
3.43417e-05
3.43403e-05
3.43388e-05
3.43372e-05
3.43355e-05
3.43336e-05
3.43316e-05
3.43294e-05
3.43272e-05
3.43248e-05
3.43223e-05
3.43529e-05
3.43525e-05
3.43522e-05
3.43517e-05
3.43512e-05
3.43507e-05
3.43501e-05
3.43495e-05
3.43488e-05
3.4348e-05
3.43472e-05
3.43463e-05
3.43453e-05
3.43442e-05
3.4343e-05
3.43418e-05
3.43404e-05
3.43389e-05
3.43372e-05
3.43355e-05
3.43336e-05
3.43316e-05
3.43294e-05
3.43272e-05
3.43248e-05
3.43223e-05
3.43532e-05
3.43529e-05
3.43526e-05
3.43522e-05
3.43517e-05
3.43513e-05
3.43507e-05
3.43502e-05
3.43495e-05
3.43488e-05
3.43481e-05
3.43472e-05
3.43463e-05
3.43453e-05
3.43443e-05
3.43431e-05
3.43418e-05
3.43404e-05
3.43389e-05
3.43372e-05
3.43355e-05
3.43336e-05
3.43316e-05
3.43294e-05
3.43272e-05
3.43248e-05
3.43223e-05
3.43535e-05
3.43532e-05
3.43529e-05
3.43526e-05
3.43522e-05
3.43518e-05
3.43513e-05
3.43508e-05
3.43502e-05
3.43496e-05
3.43489e-05
3.43481e-05
3.43473e-05
3.43464e-05
3.43454e-05
3.43443e-05
3.43431e-05
3.43418e-05
3.43404e-05
3.43389e-05
3.43373e-05
3.43355e-05
3.43336e-05
3.43316e-05
3.43294e-05
3.43271e-05
3.43248e-05
3.43223e-05
3.43537e-05
3.43535e-05
3.43532e-05
3.43529e-05
3.43526e-05
3.43522e-05
3.43518e-05
3.43513e-05
3.43508e-05
3.43502e-05
3.43496e-05
3.43489e-05
3.43481e-05
3.43473e-05
3.43464e-05
3.43454e-05
3.43443e-05
3.43431e-05
3.43419e-05
3.43405e-05
3.43389e-05
3.43373e-05
3.43355e-05
3.43336e-05
3.43315e-05
3.43294e-05
3.43271e-05
3.43248e-05
3.43223e-05
3.43539e-05
3.43537e-05
3.43535e-05
3.43533e-05
3.4353e-05
3.43526e-05
3.43522e-05
3.43518e-05
3.43513e-05
3.43508e-05
3.43502e-05
3.43496e-05
3.43489e-05
3.43482e-05
3.43474e-05
3.43464e-05
3.43455e-05
3.43444e-05
3.43432e-05
3.43419e-05
3.43405e-05
3.43389e-05
3.43373e-05
3.43355e-05
3.43336e-05
3.43315e-05
3.43294e-05
3.43271e-05
3.43248e-05
3.43223e-05
3.43541e-05
3.43539e-05
3.43538e-05
3.43535e-05
3.43533e-05
3.4353e-05
3.43526e-05
3.43523e-05
3.43518e-05
3.43514e-05
3.43509e-05
3.43503e-05
3.43497e-05
3.4349e-05
3.43482e-05
3.43474e-05
3.43465e-05
3.43455e-05
3.43444e-05
3.43432e-05
3.43419e-05
3.43405e-05
3.4339e-05
3.43373e-05
3.43355e-05
3.43336e-05
3.43315e-05
3.43294e-05
3.43271e-05
3.43247e-05
3.43223e-05
0.000181476
3.43542e-05
3.43541e-05
3.4354e-05
3.43538e-05
3.43535e-05
3.43533e-05
3.4353e-05
3.43527e-05
3.43523e-05
3.43519e-05
3.43514e-05
3.43509e-05
3.43503e-05
3.43497e-05
3.4349e-05
3.43483e-05
3.43474e-05
3.43465e-05
3.43455e-05
3.43444e-05
3.43432e-05
3.43419e-05
3.43405e-05
3.4339e-05
3.43373e-05
3.43355e-05
3.43336e-05
3.43315e-05
3.43293e-05
3.43271e-05
3.43247e-05
3.43223e-05
0.000247382
0.000156008
3.43543e-05
3.43542e-05
3.43541e-05
3.4354e-05
3.43538e-05
3.43536e-05
3.43533e-05
3.4353e-05
3.43527e-05
3.43523e-05
3.43519e-05
3.43514e-05
3.43509e-05
3.43504e-05
3.43497e-05
3.43491e-05
3.43483e-05
3.43475e-05
3.43466e-05
3.43456e-05
3.43445e-05
3.43433e-05
3.4342e-05
3.43406e-05
3.4339e-05
3.43373e-05
3.43355e-05
3.43336e-05
3.43315e-05
3.43293e-05
3.4327e-05
3.43247e-05
3.43223e-05
0.00039195
0.000277423
0.000112283
3.43544e-05
3.43543e-05
3.43542e-05
3.43541e-05
3.4354e-05
3.43538e-05
3.43536e-05
3.43533e-05
3.4353e-05
3.43527e-05
3.43523e-05
3.43519e-05
3.43515e-05
3.4351e-05
3.43504e-05
3.43498e-05
3.43491e-05
3.43483e-05
3.43475e-05
3.43466e-05
3.43456e-05
3.43445e-05
3.43433e-05
3.4342e-05
3.43406e-05
3.4339e-05
3.43373e-05
3.43355e-05
3.43336e-05
3.43315e-05
3.43293e-05
3.4327e-05
3.43247e-05
3.43223e-05
0.000623395
0.000437712
0.000322125
7.59494e-05
3.43544e-05
3.43544e-05
3.43543e-05
3.43542e-05
3.43541e-05
3.4354e-05
3.43538e-05
3.43536e-05
3.43533e-05
3.43531e-05
3.43527e-05
3.43524e-05
3.43519e-05
3.43515e-05
3.4351e-05
3.43504e-05
3.43498e-05
3.43491e-05
3.43484e-05
3.43476e-05
3.43466e-05
3.43456e-05
3.43445e-05
3.43433e-05
3.4342e-05
3.43406e-05
3.4339e-05
3.43374e-05
3.43355e-05
3.43336e-05
3.43315e-05
3.43293e-05
3.4327e-05
3.43246e-05
3.43223e-05
0.000916816
0.000632183
0.000507091
0.000406257
0.000192054
3.43544e-05
3.43544e-05
3.43544e-05
3.43543e-05
3.43542e-05
3.43541e-05
3.4354e-05
3.43538e-05
3.43536e-05
3.43534e-05
3.43531e-05
3.43528e-05
3.43524e-05
3.4352e-05
3.43515e-05
3.4351e-05
3.43505e-05
3.43499e-05
3.43492e-05
3.43484e-05
3.43476e-05
3.43467e-05
3.43457e-05
3.43446e-05
3.43434e-05
3.43421e-05
3.43406e-05
3.43391e-05
3.43374e-05
3.43355e-05
3.43336e-05
3.43314e-05
3.43292e-05
3.43269e-05
3.43246e-05
3.43222e-05
0.00125941
0.000874809
0.000700199
0.00061294
0.000523382
0.000391541
3.43543e-05
3.43544e-05
3.43544e-05
3.43544e-05
3.43543e-05
3.43542e-05
3.43541e-05
3.4354e-05
3.43538e-05
3.43536e-05
3.43534e-05
3.43531e-05
3.43528e-05
3.43524e-05
3.4352e-05
3.43516e-05
3.43511e-05
3.43505e-05
3.43499e-05
3.43492e-05
3.43485e-05
3.43476e-05
3.43467e-05
3.43457e-05
3.43446e-05
3.43434e-05
3.43421e-05
3.43407e-05
3.43391e-05
3.43374e-05
3.43355e-05
3.43335e-05
3.43314e-05
3.43292e-05
3.43269e-05
3.43246e-05
3.43222e-05
0.00164614
0.00118834
0.000915255
0.000800572
0.000791984
0.000605984
0.000532697
3.43543e-05
3.43543e-05
3.43544e-05
3.43544e-05
3.43544e-05
3.43543e-05
3.43543e-05
3.43541e-05
3.4354e-05
3.43538e-05
3.43536e-05
3.43534e-05
3.43531e-05
3.43528e-05
3.43524e-05
3.4352e-05
3.43516e-05
3.43511e-05
3.43505e-05
3.43499e-05
3.43493e-05
3.43485e-05
3.43477e-05
3.43468e-05
3.43458e-05
3.43447e-05
3.43434e-05
3.43421e-05
3.43407e-05
3.43391e-05
3.43374e-05
3.43355e-05
3.43335e-05
3.43314e-05
3.43292e-05
3.43269e-05
3.43245e-05
3.43222e-05
0.00207094
0.00155148
0.00116123
0.000997783
0.000984614
0.0010309
0.000611553
0.000634449
3.43542e-05
3.43543e-05
3.43543e-05
3.43544e-05
3.43544e-05
3.43544e-05
3.43543e-05
3.43543e-05
3.43542e-05
3.4354e-05
3.43539e-05
3.43537e-05
3.43534e-05
3.43531e-05
3.43528e-05
3.43525e-05
3.43521e-05
3.43516e-05
3.43511e-05
3.43506e-05
3.435e-05
3.43493e-05
3.43485e-05
3.43477e-05
3.43468e-05
3.43458e-05
3.43447e-05
3.43435e-05
3.43422e-05
3.43407e-05
3.43391e-05
3.43374e-05
3.43355e-05
3.43335e-05
3.43314e-05
3.43291e-05
3.43268e-05
3.43245e-05
3.43222e-05
0.0025305
0.0019583
0.00146302
0.00121824
0.00115305
0.00130908
0.00130244
0.000698618
0.000656576
3.43542e-05
3.43542e-05
3.43542e-05
3.43543e-05
3.43544e-05
3.43544e-05
3.43544e-05
3.43543e-05
3.43543e-05
3.43542e-05
3.4354e-05
3.43539e-05
3.43537e-05
3.43534e-05
3.43532e-05
3.43528e-05
3.43525e-05
3.43521e-05
3.43517e-05
3.43512e-05
3.43506e-05
3.435e-05
3.43493e-05
3.43486e-05
3.43478e-05
3.43468e-05
3.43458e-05
3.43447e-05
3.43435e-05
3.43422e-05
3.43407e-05
3.43391e-05
3.43374e-05
3.43355e-05
3.43335e-05
3.43313e-05
3.43291e-05
3.43268e-05
3.43245e-05
3.43222e-05
0.00302236
0.00240302
0.00183218
0.00146978
0.00132942
0.0014966
0.00172433
0.00151379
0.000653889
0.000622865
3.43542e-05
3.43542e-05
3.43542e-05
3.43542e-05
3.43543e-05
3.43544e-05
3.43544e-05
3.43544e-05
3.43543e-05
3.43543e-05
3.43542e-05
3.4354e-05
3.43539e-05
3.43537e-05
3.43535e-05
3.43532e-05
3.43529e-05
3.43525e-05
3.43521e-05
3.43517e-05
3.43512e-05
3.43507e-05
3.43501e-05
3.43494e-05
3.43486e-05
3.43478e-05
3.43469e-05
3.43459e-05
3.43448e-05
3.43435e-05
3.43422e-05
3.43407e-05
3.43391e-05
3.43374e-05
3.43355e-05
3.43335e-05
3.43313e-05
3.4329e-05
3.43267e-05
3.43244e-05
3.43222e-05
0.00354454
0.00288131
0.00224949
0.00175694
0.00153169
0.0016383
0.00200516
0.00207017
0.00137233
0.000534977
0.000580492
3.43542e-05
3.43542e-05
3.43542e-05
3.43542e-05
3.43542e-05
3.43543e-05
3.43544e-05
3.43544e-05
3.43544e-05
3.43543e-05
3.43543e-05
3.43542e-05
3.43541e-05
3.43539e-05
3.43537e-05
3.43535e-05
3.43532e-05
3.43529e-05
3.43526e-05
3.43522e-05
3.43517e-05
3.43512e-05
3.43507e-05
3.43501e-05
3.43494e-05
3.43487e-05
3.43478e-05
3.43469e-05
3.43459e-05
3.43448e-05
3.43436e-05
3.43422e-05
3.43408e-05
3.43392e-05
3.43374e-05
3.43355e-05
3.43335e-05
3.43313e-05
3.4329e-05
3.43267e-05
3.43244e-05
3.43221e-05
0.00409531
0.00339062
0.00270842
0.00209145
0.00176852
0.00176854
0.0021961
0.00248361
0.00212137
0.00111023
0.000471914
0.000542754
3.43543e-05
3.43542e-05
3.43542e-05
3.43541e-05
3.43542e-05
3.43542e-05
3.43543e-05
3.43544e-05
3.43544e-05
3.43544e-05
3.43543e-05
3.43543e-05
3.43542e-05
3.43541e-05
3.43539e-05
3.43537e-05
3.43535e-05
3.43532e-05
3.43529e-05
3.43526e-05
3.43522e-05
3.43518e-05
3.43513e-05
3.43507e-05
3.43501e-05
3.43495e-05
3.43487e-05
3.43479e-05
3.4347e-05
3.4346e-05
3.43448e-05
3.43436e-05
3.43423e-05
3.43408e-05
3.43392e-05
3.43374e-05
3.43355e-05
3.43334e-05
3.43312e-05
3.43289e-05
3.43266e-05
3.43243e-05
3.43221e-05
0.00467242
0.00392921
0.00320229
0.00250019
0.00204356
0.00191482
0.00232812
0.00278946
0.00271802
0.00183283
0.000930716
0.000469183
0.00050745
3.43544e-05
3.43543e-05
3.43542e-05
3.43542e-05
3.43541e-05
3.43542e-05
3.43542e-05
3.43543e-05
3.43544e-05
3.43544e-05
3.43544e-05
3.43544e-05
3.43543e-05
3.43542e-05
3.43541e-05
3.43539e-05
3.43537e-05
3.43535e-05
3.43533e-05
3.4353e-05
3.43526e-05
3.43522e-05
3.43518e-05
3.43513e-05
3.43508e-05
3.43502e-05
3.43495e-05
3.43488e-05
3.43479e-05
3.4347e-05
3.4346e-05
3.43449e-05
3.43437e-05
3.43423e-05
3.43408e-05
3.43392e-05
3.43374e-05
3.43355e-05
3.43334e-05
3.43312e-05
3.43289e-05
3.43265e-05
3.43242e-05
3.43221e-05
0.00527085
0.00449585
0.00372731
0.00296062
0.00235783
0.00209578
0.00242698
0.00301031
0.00318558
0.00262913
0.00153318
0.000869895
0.000456175
0.000480392
3.43545e-05
3.43544e-05
3.43543e-05
3.43542e-05
3.43541e-05
3.43541e-05
3.43541e-05
3.43542e-05
3.43543e-05
3.43544e-05
3.43544e-05
3.43544e-05
3.43544e-05
3.43543e-05
3.43542e-05
3.43541e-05
3.43539e-05
3.43538e-05
3.43535e-05
3.43533e-05
3.4353e-05
3.43526e-05
3.43523e-05
3.43518e-05
3.43514e-05
3.43508e-05
3.43502e-05
3.43495e-05
3.43488e-05
3.4348e-05
3.43471e-05
3.4346e-05
3.43449e-05
3.43437e-05
3.43423e-05
3.43408e-05
3.43392e-05
3.43374e-05
3.43355e-05
3.43334e-05
3.43311e-05
3.43288e-05
3.43265e-05
3.43242e-05
3.4322e-05
0.00588345
0.00508925
0.00428152
0.0034638
0.00271261
0.00232187
0.00251657
0.00316518
0.00354838
0.00328184
0.00224587
0.0013252
0.000852202
0.000406025
0.000476389
3.43547e-05
3.43545e-05
3.43544e-05
3.43543e-05
3.43542e-05
3.43541e-05
3.43541e-05
3.43541e-05
3.43542e-05
3.43543e-05
3.43544e-05
3.43544e-05
3.43544e-05
3.43544e-05
3.43543e-05
3.43542e-05
3.43541e-05
3.4354e-05
3.43538e-05
3.43536e-05
3.43533e-05
3.4353e-05
3.43527e-05
3.43523e-05
3.43519e-05
3.43514e-05
3.43509e-05
3.43503e-05
3.43496e-05
3.43488e-05
3.4348e-05
3.43471e-05
3.43461e-05
3.4345e-05
3.43437e-05
3.43424e-05
3.43409e-05
3.43392e-05
3.43374e-05
3.43355e-05
3.43333e-05
3.43311e-05
3.43287e-05
3.43264e-05
3.43241e-05
3.4322e-05
0.006505
0.00570589
0.00486386
0.00400211
0.0031381
0.00259679
0.0026197
0.0032722
0.00382487
0.0038101
0.00304527
0.00190072
0.00122548
0.000749965
0.000373113
0.000491995
3.43549e-05
3.43547e-05
3.43545e-05
3.43544e-05
3.43543e-05
3.43542e-05
3.43541e-05
3.43541e-05
3.43541e-05
3.43542e-05
3.43543e-05
3.43544e-05
3.43544e-05
3.43544e-05
3.43544e-05
3.43543e-05
3.43542e-05
3.43541e-05
3.4354e-05
3.43538e-05
3.43536e-05
3.43533e-05
3.4353e-05
3.43527e-05
3.43523e-05
3.43519e-05
3.43514e-05
3.43509e-05
3.43503e-05
3.43496e-05
3.43489e-05
3.43481e-05
3.43471e-05
3.43461e-05
3.4345e-05
3.43438e-05
3.43424e-05
3.43409e-05
3.43392e-05
3.43374e-05
3.43354e-05
3.43333e-05
3.4331e-05
3.43287e-05
3.43263e-05
3.4324e-05
3.43219e-05
0.00713392
0.00633848
0.0054739
0.00457152
0.0036287
0.00292071
0.00275701
0.00334899
0.00403054
0.0042359
0.00374813
0.00257473
0.00164649
0.00108194
0.000631594
0.000387323
0.000510924
3.43552e-05
3.43549e-05
3.43547e-05
3.43545e-05
3.43544e-05
3.43543e-05
3.43542e-05
3.43541e-05
3.43541e-05
3.43541e-05
3.43542e-05
3.43543e-05
3.43544e-05
3.43544e-05
3.43544e-05
3.43544e-05
3.43543e-05
3.43543e-05
3.43541e-05
3.4354e-05
3.43538e-05
3.43536e-05
3.43534e-05
3.43531e-05
3.43528e-05
3.43524e-05
3.4352e-05
3.43515e-05
3.4351e-05
3.43504e-05
3.43497e-05
3.43489e-05
3.43481e-05
3.43472e-05
3.43462e-05
3.4345e-05
3.43438e-05
3.43424e-05
3.43409e-05
3.43392e-05
3.43374e-05
3.43354e-05
3.43333e-05
3.4331e-05
3.43286e-05
3.43262e-05
3.43239e-05
3.43219e-05
0.00777176
0.00698037
0.00610989
0.00517056
0.0041698
0.00329221
0.00294388
0.00341389
0.00417969
0.00457593
0.00433895
0.00330825
0.00218422
0.00143174
0.000889385
0.000616695
0.000413024
0.000526108
3.43555e-05
3.43552e-05
3.43549e-05
3.43547e-05
3.43545e-05
3.43544e-05
3.43543e-05
3.43542e-05
3.43541e-05
3.43541e-05
3.43541e-05
3.43542e-05
3.43543e-05
3.43544e-05
3.43544e-05
3.43544e-05
3.43544e-05
3.43543e-05
3.43543e-05
3.43542e-05
3.4354e-05
3.43538e-05
3.43536e-05
3.43534e-05
3.43531e-05
3.43528e-05
3.43524e-05
3.4352e-05
3.43515e-05
3.4351e-05
3.43504e-05
3.43497e-05
3.4349e-05
3.43482e-05
3.43472e-05
3.43462e-05
3.43451e-05
3.43438e-05
3.43425e-05
3.43409e-05
3.43392e-05
3.43374e-05
3.43354e-05
3.43332e-05
3.43309e-05
3.43285e-05
3.43261e-05
3.43238e-05
3.43218e-05
0.00842218
0.0076294
0.00676447
0.00579916
0.00475142
0.00371196
0.00318937
0.00348553
0.00428566
0.00484392
0.00483016
0.00407554
0.00280395
0.0018298
0.0011636
0.000846605
0.000689341
0.000440575
0.000535632
3.43558e-05
3.43555e-05
3.43552e-05
3.43549e-05
3.43547e-05
3.43545e-05
3.43544e-05
3.43543e-05
3.43542e-05
3.43541e-05
3.43541e-05
3.43541e-05
3.43542e-05
3.43543e-05
3.43544e-05
3.43544e-05
3.43544e-05
3.43544e-05
3.43544e-05
3.43543e-05
3.43542e-05
3.4354e-05
3.43539e-05
3.43537e-05
3.43534e-05
3.43531e-05
3.43528e-05
3.43525e-05
3.4352e-05
3.43516e-05
3.4351e-05
3.43504e-05
3.43498e-05
3.4349e-05
3.43482e-05
3.43473e-05
3.43463e-05
3.43451e-05
3.43439e-05
3.43425e-05
3.43409e-05
3.43393e-05
3.43374e-05
3.43354e-05
3.43332e-05
3.43308e-05
3.43284e-05
3.4326e-05
3.43237e-05
3.43218e-05
0.00909088
0.00828724
0.00742896
0.00645724
0.00536811
0.00421333
0.00349711
0.00358237
0.00436196
0.00505178
0.00523661
0.00473721
0.00348839
0.00233332
0.00147709
0.00107263
0.000954378
0.000788668
0.000474109
0.000537594
3.43562e-05
3.43558e-05
3.43555e-05
3.43552e-05
3.4355e-05
3.43547e-05
3.43545e-05
3.43544e-05
3.43543e-05
3.43542e-05
3.43541e-05
3.43541e-05
3.43541e-05
3.43542e-05
3.43543e-05
3.43544e-05
3.43544e-05
3.43544e-05
3.43544e-05
3.43544e-05
3.43543e-05
3.43542e-05
3.43541e-05
3.43539e-05
3.43537e-05
3.43535e-05
3.43532e-05
3.43529e-05
3.43525e-05
3.43521e-05
3.43516e-05
3.43511e-05
3.43505e-05
3.43498e-05
3.43491e-05
3.43483e-05
3.43473e-05
3.43463e-05
3.43452e-05
3.43439e-05
3.43425e-05
3.4341e-05
3.43393e-05
3.43374e-05
3.43354e-05
3.43331e-05
3.43308e-05
3.43283e-05
3.43259e-05
3.43236e-05
3.43217e-05
0.00978578
0.00895831
0.00810013
0.00713768
0.00601842
0.00478334
0.00386641
0.00372156
0.00442253
0.00521028
0.00557114
0.00530101
0.00420956
0.00290775
0.00188433
0.00131215
0.00120058
0.00111014
0.000897746
0.000517672
0.000531151
3.43565e-05
3.43562e-05
3.43558e-05
3.43555e-05
3.43552e-05
3.4355e-05
3.43547e-05
3.43546e-05
3.43544e-05
3.43543e-05
3.43542e-05
3.43541e-05
3.43541e-05
3.43541e-05
3.43542e-05
3.43543e-05
3.43544e-05
3.43544e-05
3.43544e-05
3.43544e-05
3.43544e-05
3.43543e-05
3.43542e-05
3.43541e-05
3.43539e-05
3.43537e-05
3.43535e-05
3.43532e-05
3.43529e-05
3.43525e-05
3.43521e-05
3.43517e-05
3.43511e-05
3.43505e-05
3.43499e-05
3.43491e-05
3.43483e-05
3.43474e-05
3.43464e-05
3.43452e-05
3.4344e-05
3.43425e-05
3.4341e-05
3.43393e-05
3.43374e-05
3.43353e-05
3.43331e-05
3.43307e-05
3.43282e-05
3.43258e-05
3.43235e-05
3.43216e-05
0.0105174
0.00964939
0.00877969
0.00782854
0.00670308
0.00540834
0.00429503
0.00391798
0.00448187
0.00532975
0.00584462
0.00577902
0.00494479
0.00354011
0.0023651
0.00161953
0.00143528
0.00140882
0.00127798
0.00100705
0.00056036
0.000517255
3.43569e-05
3.43566e-05
3.43562e-05
3.43558e-05
3.43555e-05
3.43552e-05
3.4355e-05
3.43547e-05
3.43546e-05
3.43544e-05
3.43543e-05
3.43542e-05
3.43542e-05
3.43541e-05
3.43542e-05
3.43542e-05
3.43543e-05
3.43544e-05
3.43544e-05
3.43544e-05
3.43544e-05
3.43544e-05
3.43543e-05
3.43542e-05
3.43541e-05
3.43539e-05
3.43537e-05
3.43535e-05
3.43532e-05
3.43529e-05
3.43526e-05
3.43522e-05
3.43517e-05
3.43512e-05
3.43506e-05
3.43499e-05
3.43492e-05
3.43484e-05
3.43474e-05
3.43464e-05
3.43453e-05
3.4344e-05
3.43426e-05
3.4341e-05
3.43393e-05
3.43374e-05
3.43353e-05
3.4333e-05
3.43306e-05
3.43281e-05
3.43256e-05
3.43233e-05
3.43215e-05
0.0112982
0.0103698
0.00947276
0.00852495
0.00741549
0.00607829
0.00478176
0.00418108
0.00455508
0.00542021
0.00606658
0.00618406
0.00558854
0.00421494
0.00290582
0.00201085
0.00167542
0.00168773
0.00163626
0.00144973
0.00111052
0.000597103
0.000497376
3.43574e-05
3.4357e-05
3.43566e-05
3.43562e-05
3.43558e-05
3.43555e-05
3.43552e-05
3.4355e-05
3.43548e-05
3.43546e-05
3.43544e-05
3.43543e-05
3.43542e-05
3.43542e-05
3.43541e-05
3.43542e-05
3.43542e-05
3.43543e-05
3.43544e-05
3.43544e-05
3.43544e-05
3.43544e-05
3.43544e-05
3.43543e-05
3.43542e-05
3.43541e-05
3.4354e-05
3.43538e-05
3.43535e-05
3.43533e-05
3.4353e-05
3.43526e-05
3.43522e-05
3.43518e-05
3.43512e-05
3.43506e-05
3.435e-05
3.43492e-05
3.43484e-05
3.43475e-05
3.43465e-05
3.43453e-05
3.4344e-05
3.43426e-05
3.4341e-05
3.43393e-05
3.43374e-05
3.43353e-05
3.4333e-05
3.43305e-05
3.4328e-05
3.43255e-05
3.43232e-05
3.43215e-05
0.0121367
0.0111318
0.0101869
0.0092287
0.00813823
0.00678982
0.00534
0.00451502
0.00465751
0.00549198
0.00624554
0.00652716
0.0061454
0.00491507
0.00350054
0.00247376
0.00197702
0.00195457
0.00197256
0.00187217
0.0016188
0.00120272
0.00062818
0.000472482
3.43578e-05
3.43574e-05
3.4357e-05
3.43566e-05
3.43562e-05
3.43558e-05
3.43555e-05
3.43552e-05
3.4355e-05
3.43548e-05
3.43546e-05
3.43544e-05
3.43543e-05
3.43542e-05
3.43542e-05
3.43541e-05
3.43542e-05
3.43542e-05
3.43543e-05
3.43544e-05
3.43544e-05
3.43545e-05
3.43545e-05
3.43544e-05
3.43544e-05
3.43543e-05
3.43541e-05
3.4354e-05
3.43538e-05
3.43536e-05
3.43533e-05
3.4353e-05
3.43527e-05
3.43523e-05
3.43518e-05
3.43513e-05
3.43507e-05
3.435e-05
3.43493e-05
3.43485e-05
3.43475e-05
3.43465e-05
3.43454e-05
3.43441e-05
3.43427e-05
3.43411e-05
3.43393e-05
3.43374e-05
3.43352e-05
3.43329e-05
3.43304e-05
3.43279e-05
3.43253e-05
3.4323e-05
3.43213e-05
0.0130328
0.0119485
0.0109324
0.00994535
0.00886444
0.00753904
0.00598417
0.0049199
0.00480375
0.00555581
0.00638944
0.00681752
0.0066264
0.00562558
0.00413566
0.00299927
0.00236599
0.0022246
0.00229236
0.00227219
0.00210969
0.00177607
0.00128102
0.000654766
0.000442671
3.43583e-05
3.43579e-05
3.43574e-05
3.4357e-05
3.43566e-05
3.43562e-05
3.43558e-05
3.43555e-05
3.43552e-05
3.4355e-05
3.43548e-05
3.43546e-05
3.43544e-05
3.43543e-05
3.43542e-05
3.43542e-05
3.43542e-05
3.43542e-05
3.43542e-05
3.43543e-05
3.43544e-05
3.43544e-05
3.43545e-05
3.43545e-05
3.43544e-05
3.43544e-05
3.43543e-05
3.43542e-05
3.4354e-05
3.43538e-05
3.43536e-05
3.43534e-05
3.43531e-05
3.43527e-05
3.43523e-05
3.43518e-05
3.43513e-05
3.43507e-05
3.43501e-05
3.43493e-05
3.43485e-05
3.43476e-05
3.43466e-05
3.43454e-05
3.43441e-05
3.43427e-05
3.43411e-05
3.43393e-05
3.43374e-05
3.43352e-05
3.43329e-05
3.43303e-05
3.43277e-05
3.43251e-05
3.43228e-05
3.43212e-05
0.013984
0.0128265
0.0117226
0.0106828
0.00959599
0.0083009
0.00669519
0.0053924
0.00500655
0.00562315
0.00650586
0.00706328
0.00704324
0.0062642
0.00480267
0.00357572
0.00283446
0.00253854
0.00260512
0.00265517
0.00257907
0.00233824
0.00191508
0.00134735
0.000679694
0.000406737
3.43588e-05
3.43583e-05
3.43579e-05
3.43574e-05
3.4357e-05
3.43566e-05
3.43562e-05
3.43559e-05
3.43555e-05
3.43553e-05
3.4355e-05
3.43548e-05
3.43546e-05
3.43544e-05
3.43543e-05
3.43542e-05
3.43542e-05
3.43542e-05
3.43542e-05
3.43542e-05
3.43543e-05
3.43544e-05
3.43544e-05
3.43545e-05
3.43545e-05
3.43544e-05
3.43544e-05
3.43543e-05
3.43542e-05
3.4354e-05
3.43539e-05
3.43537e-05
3.43534e-05
3.43531e-05
3.43528e-05
3.43524e-05
3.43519e-05
3.43514e-05
3.43508e-05
3.43501e-05
3.43494e-05
3.43486e-05
3.43477e-05
3.43466e-05
3.43455e-05
3.43442e-05
3.43427e-05
3.43411e-05
3.43393e-05
3.43374e-05
3.43352e-05
3.43328e-05
3.43302e-05
3.43276e-05
3.4325e-05
3.43226e-05
3.43212e-05
0.0149896
0.013764
0.012572
0.0114514
0.0103388
0.00906378
0.00745859
0.00592886
0.00527626
0.00570621
0.00660208
0.00727157
0.00740616
0.0068257
0.00549485
0.00419666
0.00337032
0.00294917
0.00292755
0.00303045
0.00303266
0.00288196
0.00254689
0.00203583
0.00140599
0.000703861
0.000362466
3.43593e-05
3.43588e-05
3.43584e-05
3.43579e-05
3.43575e-05
3.4357e-05
3.43566e-05
3.43562e-05
3.43559e-05
3.43556e-05
3.43553e-05
3.4355e-05
3.43548e-05
3.43546e-05
3.43545e-05
3.43543e-05
3.43542e-05
3.43542e-05
3.43542e-05
3.43542e-05
3.43542e-05
3.43543e-05
3.43544e-05
3.43544e-05
3.43545e-05
3.43545e-05
3.43545e-05
3.43544e-05
3.43543e-05
3.43542e-05
3.43541e-05
3.43539e-05
3.43537e-05
3.43534e-05
3.43531e-05
3.43528e-05
3.43524e-05
3.43519e-05
3.43514e-05
3.43509e-05
3.43502e-05
3.43495e-05
3.43486e-05
3.43477e-05
3.43467e-05
3.43455e-05
3.43442e-05
3.43428e-05
3.43411e-05
3.43393e-05
3.43373e-05
3.43351e-05
3.43327e-05
3.43301e-05
3.43274e-05
3.43248e-05
3.43224e-05
3.43212e-05
0.016051
0.0147593
0.0134867
0.0122647
0.0111009
0.00982908
0.0082628
0.00653032
0.00561896
0.00581775
0.00668562
0.00744867
0.00772348
0.0073198
0.00617388
0.00485792
0.00396472
0.00344223
0.0033024
0.00341249
0.00348108
0.00341276
0.00316591
0.00273212
0.00214224
0.00145949
0.000721867
0.000307341
3.43599e-05
3.43594e-05
3.43589e-05
3.43584e-05
3.43579e-05
3.43575e-05
3.4357e-05
3.43566e-05
3.43562e-05
3.43559e-05
3.43556e-05
3.43553e-05
3.4355e-05
3.43548e-05
3.43546e-05
3.43545e-05
3.43544e-05
3.43543e-05
3.43542e-05
3.43542e-05
3.43542e-05
3.43542e-05
3.43543e-05
3.43544e-05
3.43545e-05
3.43545e-05
3.43545e-05
3.43545e-05
3.43544e-05
3.43544e-05
3.43542e-05
3.43541e-05
3.43539e-05
3.43537e-05
3.43535e-05
3.43532e-05
3.43528e-05
3.43524e-05
3.4352e-05
3.43515e-05
3.43509e-05
3.43503e-05
3.43495e-05
3.43487e-05
3.43478e-05
3.43467e-05
3.43456e-05
3.43443e-05
3.43428e-05
3.43412e-05
3.43394e-05
3.43373e-05
3.43351e-05
3.43327e-05
3.433e-05
3.43273e-05
3.43246e-05
3.43222e-05
3.43213e-05
0.017171
0.0158129
0.0144648
0.013139
0.011892
0.0106031
0.009073
0.00723178
0.0060369
0.00597031
0.00676413
0.00760031
0.00800209
0.00775701
0.00679105
0.00552729
0.00461006
0.00400704
0.0037862
0.00382957
0.00394077
0.00394233
0.0037768
0.0034231
0.00289599
0.00223754
0.00149974
0.00070506
0.000250509
3.43605e-05
3.43599e-05
3.43594e-05
3.43589e-05
3.43584e-05
3.4358e-05
3.43575e-05
3.4357e-05
3.43566e-05
3.43562e-05
3.43559e-05
3.43556e-05
3.43553e-05
3.43551e-05
3.43548e-05
3.43546e-05
3.43545e-05
3.43544e-05
3.43543e-05
3.43542e-05
3.43542e-05
3.43542e-05
3.43542e-05
3.43543e-05
3.43544e-05
3.43545e-05
3.43545e-05
3.43545e-05
3.43545e-05
3.43545e-05
3.43544e-05
3.43543e-05
3.43541e-05
3.4354e-05
3.43538e-05
3.43535e-05
3.43532e-05
3.43529e-05
3.43525e-05
3.43521e-05
3.43515e-05
3.4351e-05
3.43503e-05
3.43496e-05
3.43488e-05
3.43478e-05
3.43468e-05
3.43456e-05
3.43443e-05
3.43428e-05
3.43412e-05
3.43394e-05
3.43373e-05
3.43351e-05
3.43326e-05
3.43299e-05
3.43271e-05
3.43244e-05
3.43221e-05
3.43214e-05
0.0183538
0.016927
0.0155047
0.0140845
0.012724
0.011394
0.00988232
0.00801064
0.0065298
0.00617538
0.00684595
0.00773175
0.00824793
0.00814659
0.00734472
0.00616742
0.00525791
0.00463199
0.00435867
0.00435734
0.00444166
0.00448948
0.00439225
0.00411278
0.00365255
0.00304026
0.00231185
0.00147904
0.000581653
0.000235428
3.43611e-05
3.43605e-05
3.436e-05
3.43594e-05
3.43589e-05
3.43585e-05
3.4358e-05
3.43575e-05
3.43571e-05
3.43566e-05
3.43563e-05
3.43559e-05
3.43556e-05
3.43553e-05
3.43551e-05
3.43548e-05
3.43547e-05
3.43545e-05
3.43544e-05
3.43543e-05
3.43542e-05
3.43542e-05
3.43542e-05
3.43542e-05
3.43543e-05
3.43544e-05
3.43545e-05
3.43545e-05
3.43545e-05
3.43545e-05
3.43545e-05
3.43544e-05
3.43543e-05
3.43542e-05
3.4354e-05
3.43538e-05
3.43536e-05
3.43533e-05
3.43529e-05
3.43526e-05
3.43521e-05
3.43516e-05
3.4351e-05
3.43504e-05
3.43496e-05
3.43488e-05
3.43479e-05
3.43468e-05
3.43457e-05
3.43444e-05
3.43429e-05
3.43412e-05
3.43394e-05
3.43373e-05
3.4335e-05
3.43325e-05
3.43298e-05
3.43269e-05
3.43241e-05
3.43219e-05
3.43216e-05
0.0196043
0.0181054
0.0166073
0.0150995
0.0136126
0.0122107
0.0106961
0.00884742
0.00709587
0.00644267
0.00694
0.00784808
0.00846647
0.0084963
0.00784296
0.00676694
0.00588719
0.00531214
0.00501213
0.00499448
0.00505415
0.00508844
0.00503392
0.00481498
0.00441572
0.00385239
0.00315193
0.00230729
0.00124393
0.000365846
0.000282864
3.43617e-05
3.43611e-05
3.43605e-05
3.436e-05
3.43595e-05
3.4359e-05
3.43585e-05
3.4358e-05
3.43575e-05
3.43571e-05
3.43567e-05
3.43563e-05
3.43559e-05
3.43556e-05
3.43553e-05
3.43551e-05
3.43549e-05
3.43547e-05
3.43545e-05
3.43544e-05
3.43543e-05
3.43542e-05
3.43542e-05
3.43542e-05
3.43543e-05
3.43543e-05
3.43544e-05
3.43545e-05
3.43545e-05
3.43545e-05
3.43545e-05
3.43545e-05
3.43544e-05
3.43543e-05
3.43542e-05
3.4354e-05
3.43538e-05
3.43536e-05
3.43533e-05
3.4353e-05
3.43526e-05
3.43522e-05
3.43517e-05
3.43511e-05
3.43504e-05
3.43497e-05
3.43489e-05
3.4348e-05
3.43469e-05
3.43457e-05
3.43444e-05
3.43429e-05
3.43413e-05
3.43394e-05
3.43373e-05
3.4335e-05
3.43324e-05
3.43297e-05
3.43267e-05
3.43239e-05
3.43219e-05
3.43218e-05
0.020928
0.0193525
0.0177755
0.0161818
0.0145761
0.0130635
0.0115226
0.00971348
0.00773358
0.00677909
0.00705581
0.00795418
0.00866227
0.00881262
0.00829448
0.00732548
0.00649324
0.0060142
0.0057363
0.00572653
0.00579563
0.005813
0.00574273
0.00555529
0.00520111
0.00467818
0.00400388
0.00316599
0.00202127
0.000795235
0.000277762
0.000303607
3.43623e-05
3.43617e-05
3.43612e-05
3.43606e-05
3.436e-05
3.43595e-05
3.4359e-05
3.43585e-05
3.4358e-05
3.43575e-05
3.43571e-05
3.43567e-05
3.43563e-05
3.4356e-05
3.43556e-05
3.43554e-05
3.43551e-05
3.43549e-05
3.43547e-05
3.43545e-05
3.43544e-05