/*--------------------------------*- C++ -*----------------------------------*\
  =========                 |
  \\      /  F ield         | OpenFOAM: The Open Source CFD Toolbox
   \\    /   O peration     | Website:  https://openfoam.org
    \\  /    A nd           | Version:  7
     \\/     M anipulation  |
\*---------------------------------------------------------------------------*/
FoamFile
{
    version     2.0;
    format      ascii;
    class       volScalarField;
    location    "400";
    object      p;
}
// * * * * * * * * * * * * * * * * * * * * * * * * * * * * * * * * * * * * * //

dimensions      [0 2 -2 0 0 0 0];

internalField   nonuniform List<scalar> 
23064
(
2.33083
2.26284
2.02029
2.14368
1.94859
1.70939
2.04318
1.82887
1.63433
1.39822
1.9072
1.72183
1.51442
1.32019
1.08681
1.72968
1.57712
1.40054
1.2004
1.00632
0.775238
1.52197
1.39023
1.24689
1.07935
0.887051
0.692879
0.463617
1.28556
1.17185
1.05065
0.916603
0.758541
0.574493
0.380039
0.152101
1.0195
0.92325
0.821476
0.710907
0.586498
0.43814
0.262834
0.0678969
-0.159288
0.724747
0.643705
0.560504
0.47082
0.371192
0.256557
0.118239
-0.0477449
-0.243328
-0.470397
0.402267
0.334134
0.267349
0.19744
0.120097
0.0316237
-0.0729703
-0.200871
-0.357118
-0.55351
-0.781093
0.052651
-0.00450404
-0.0571744
-0.109469
-0.165819
-0.230546
-0.307601
-0.401904
-0.519249
-0.665092
-0.862333
-1.09135
-0.323657
-0.371596
-0.412087
-0.449042
-0.486625
-0.529196
-0.581062
-0.646401
-0.730237
-0.836547
-0.971453
-1.16982
-1.40094
-0.726211
-0.766695
-0.796751
-0.820338
-0.841385
-0.863997
-0.892554
-0.931248
-0.984668
-1.05777
-1.15283
-1.27612
-1.47565
-1.70991
-1.15466
-1.18936
-1.21076
-1.2227
-1.22917
-1.23403
-1.24146
-1.25569
-1.28109
-1.32221
-1.38434
-1.46774
-1.57886
-1.77968
-2.01794
-1.60875
-1.63932
-1.65368
-1.65572
-1.64934
-1.63842
-1.62687
-1.61883
-1.61858
-1.63024
-1.65882
-1.70969
-1.78122
-1.87955
-2.08164
-2.32498
-2.08825
-2.11621
-2.12521
-2.11901
-2.1015
-2.07651
-2.04796
-2.01978
-1.99603
-1.98093
-1.97872
-1.99439
-2.03387
-2.09318
-2.17792
-2.38135
-2.63093
-2.59293
-2.6199
-2.62507
-2.61224
-2.58522
-2.54792
-2.5041
-2.45766
-2.41257
-2.37288
-2.34277
-2.32624
-2.32883
-2.35664
-2.40336
-2.4739
-2.67866
-2.93554
-3.12274
-3.15023
-3.15308
-3.13515
-3.10025
-3.0522
-2.99482
-2.9319
-2.86738
-2.80512
-2.74923
-2.70375
-2.67276
-2.66188
-2.67771
-2.71158
-2.76724
-2.97319
-3.23884
-3.6776
-3.70712
-3.70915
-3.68761
-3.64633
-3.5891
-3.51975
-3.44208
-3.35984
-3.27697
-3.19731
-3.12494
-3.06396
-3.01809
-2.99347
-2.99697
-3.0177
-3.05768
-3.26487
-3.54056
-4.25732
-4.29051
-4.29324
-4.26953
-4.22333
-4.15843
-4.07866
-3.98773
-3.88952
-3.78775
-3.68627
-3.58896
-3.49988
-3.42303
-3.36215
-3.32334
-3.31437
-3.32159
-3.34515
-3.55338
-3.8405
-4.86203
-4.90032
-4.90531
-4.88091
-4.8312
-4.76009
-4.67132
-4.56871
-4.45602
-4.337
-4.21544
-4.09513
-3.97991
-3.87386
-3.78086
-3.70461
-3.65139
-3.62967
-3.62312
-3.62938
-3.83846
-4.13839
-5.49161
-5.5366
-5.54532
-5.52176
-5.47002
-5.39404
-5.29769
-5.18482
-5.05914
-4.9244
-4.78439
-4.64278
-4.50338
-4.37001
-4.24671
-4.13739
-4.04541
-3.97746
-3.94258
-3.92187
-3.91024
-4.11993
-4.43441
-6.14603
-6.19942
-6.21331
-6.1921
-6.13972
-6.06031
-5.95781
-5.83603
-5.69876
-5.54978
-5.39279
-5.23151
-5.0696
-4.91089
-4.75911
-4.61829
-4.49231
-4.38436
-4.30117
-4.25294
-4.21788
-4.1875
-4.3975
-4.7281
-6.82532
-6.88868
-6.90947
-6.89198
-6.84049
-6.75905
-6.65171
-6.52238
-6.37484
-6.21298
-6.04044
-5.86096
-5.67817
-5.49577
-5.31747
-5.14702
-4.98844
-4.84549
-4.72117
-4.62261
-4.5606
-4.51086
-4.46081
-4.67086
-5.0194
-7.52943
-7.60449
-7.63376
-7.62158
-7.57234
-7.49035
-7.3795
-7.24394
-7.08751
-6.91407
-6.72734
-6.531
-6.32873
-6.12422
-5.92108
-5.72294
-5.53358
-5.35695
-5.19682
-5.05594
-4.94153
-4.86542
-4.80069
-4.73021
-4.93973
-5.30804
-8.2584
-8.34688
-8.38623
-8.381
-8.33558
-8.25426
-8.14136
-8.0009
-7.83682
-7.65308
-7.45339
-7.24158
-7.0212
-6.79599
-6.56951
-6.34535
-6.12716
-5.91862
-5.72366
-5.54603
-5.38826
-5.25752
-5.16714
-5.08721
-4.9953
-5.20389
-5.59377
-9.01213
-9.1159
-9.16703
-9.17027
-9.13023
-9.05122
-8.93752
-8.79346
-8.62303
-8.43022
-8.21887
-7.99273
-7.75555
-7.51094
-7.26251
-7.01383
-6.76845
-6.52995
-6.30196
-6.08841
-5.89299
-5.71788
-5.57064
-5.46557
-5.37008
-5.25603
-5.46304
-5.87647
-9.79069
-9.91155
-9.97629
-9.98963
-9.95649
-9.88119
-9.76823
-9.62188
-9.4464
-9.24571
-9.02384
-8.78467
-8.53184
-8.26906
-7.99999
-7.72814
-7.45701
-7.19014
-6.93111
-6.68341
-6.45102
-6.23753
-6.04483
-5.88063
-5.7604
-5.64916
-5.51199
-5.71685
-6.15588
-10.5939
-10.7338
-10.814
-10.8393
-10.8146
-10.7445
-10.6337
-10.4865
-10.3072
-10.0999
-9.86871
-9.61756
-9.35027
-9.07052
-8.78196
-8.48817
-8.19264
-7.89884
-7.61031
-7.33045
-7.0628
-6.81129
-6.57942
-6.36892
-6.18726
-6.05165
-5.9242
-5.76309
-5.96497
-6.4317
-11.4217
-11.5827
-11.6803
-11.7193
-11.7047
-11.6415
-11.5343
-11.3875
-11.2057
-10.9931
-10.7537
-10.4918
-10.2112
-9.91551
-9.60858
-9.29399
-8.97528
-8.65585
-8.33917
-8.02871
-7.72782
-7.43997
-7.16901
-6.91848
-6.68974
-6.49044
-6.33888
-6.19515
-6.00912
-6.20727
-6.70382
-1573.13
-12.2741
-12.4583
-12.5751
-12.6296
-12.627
-12.5724
-12.4701
-12.3253
-12.1424
-11.9256
-11.6794
-11.4078
-11.1148
-10.8044
-10.4802
-10.1459
-9.80501
-9.46111
-9.11759
-8.77781
-8.44516
-8.12301
-7.81468
-7.52402
-7.25454
-7.00728
-6.7897
-6.62197
-6.46167
-6.24988
-6.44326
-6.97198
-1572.7
-1427.06
-13.1509
-13.3604
-13.4985
-13.5705
-13.5817
-13.5371
-13.4417
-13.3003
-13.1175
-12.898
-12.646
-12.3659
-12.0618
-11.7375
-11.397
-11.044
-10.6821
-10.3148
-9.94549
-9.57766
-9.21455
-8.85951
-8.51582
-8.18675
-7.87613
-7.58739
-7.32125
-7.08504
-6.90068
-6.72349
-6.48503
-6.6727
-7.23608
-1572.31
-1426.52
-1241.01
-14.052
-14.2891
-14.4506
-14.5421
-14.569
-14.5364
-14.4492
-14.3128
-14.1316
-13.9105
-13.6541
-13.3667
-13.0524
-12.7154
-12.3596
-11.9888
-11.6068
-11.2171
-10.823
-10.4282
-10.0358
-9.64917
-9.27155
-8.90608
-8.55604
-8.22513
-7.91682
-7.6315
-7.37627
-7.17481
-6.98049
-6.71446
-6.89518
-7.4955
-1571.98
-1426.05
-1240.34
-1010.28
-14.9775
-15.2442
-15.4314
-15.5444
-15.5888
-15.5699
-15.4929
-15.3629
-15.185
-14.9639
-14.7042
-14.4106
-14.0873
-13.7386
-13.3684
-12.9809
-12.5796
-12.1684
-11.7506
-11.3297
-10.909
-10.4919
-10.0815
-9.68104
-9.2936
-8.92229
-8.57082
-8.24263
-7.93779
-7.66321
-7.44417
-7.23245
-6.93796
-7.11049
-7.75005
-1571.7
-1425.69
-1239.78
-1009.35
-751.857
-15.927
-16.2259
-16.4408
-16.5774
-16.6414
-16.6382
-16.573
-16.4513
-16.278
-16.0583
-15.7967
-15.4982
-15.167
-14.8076
-14.4241
-14.0207
-13.6011
-13.1692
-12.7284
-12.2824
-11.8344
-11.3878
-10.9457
-10.5113
-10.0878
-9.67813
-9.28532
-8.91302
-8.56464
-8.23994
-7.94547
-7.70844
-7.47917
-7.15535
-7.31818
-7.99941
-1571.49
-1425.41
-1239.48
-1008.54
-750.528
-543.644
-16.9005
-17.2339
-17.4789
-17.6414
-17.727
-17.7413
-17.6899
-17.5781
-17.4112
-17.1943
-16.9323
-16.63
-16.2921
-15.9231
-15.5273
-15.109
-14.6718
-14.2201
-13.7572
-13.2868
-12.8123
-12.3371
-11.8643
-11.397
-10.9385
-10.4916
-10.0595
-9.64495
-9.2515
-8.88264
-8.53773
-8.22286
-7.96741
-7.72028
-7.36624
-7.51791
-8.24362
-1571.34
-1425.22
-1239.33
-1008.34
-749.343
-542.247
-449.874
-17.8979
-18.2681
-18.5455
-18.7361
-18.8456
-18.8795
-18.8438
-18.7437
-18.5849
-18.3723
-18.1113
-17.8067
-17.4633
-17.0858
-16.6787
-16.2462
-15.7926
-15.3217
-14.8375
-14.3434
-13.8432
-13.3401
-12.8374
-12.3382
-11.8456
-11.3627
-10.8924
-10.4375
-10.0009
-9.58608
-9.19642
-8.83096
-8.49532
-8.22086
-7.9557
-7.57057
-7.70943
-8.48229
-1571.28
-1425.13
-1239.36
-1008.63
-749.244
-540.974
-448.742
-335.27
-18.9192
-19.3287
-19.6409
-19.8617
-19.9972
-20.053
-20.0349
-19.9485
-19.7993
-19.5928
-19.3343
-19.0286
-18.681
-18.2963
-17.8788
-17.4334
-16.964
-16.4749
-15.97
-15.4531
-14.9277
-14.3974
-13.8655
-13.3351
-12.8094
-12.2913
-11.7838
-11.2897
-10.812
-10.3531
-9.91657
-9.50577
-9.11944
-8.76259
-8.4687
-8.18513
-7.76815
-7.89232
-8.71488
-1571.31
-1425.17
-1239.53
-1009.27
-750.077
-540.749
-447.165
-334.231
-86.4189
-19.9643
-20.4155
-20.7648
-21.0184
-21.1822
-21.2618
-21.2634
-21.1926
-21.055
-20.8563
-20.6017
-20.2967
-19.9461
-19.5552
-19.1287
-18.671
-18.1869
-17.6803
-17.1556
-16.6165
-16.0666
-15.5098
-14.9492
-14.3883
-13.8301
-13.2776
-12.7338
-12.2015
-11.6836
-11.1826
-10.7013
-10.2427
-9.81047
-9.40292
-9.0244
-8.71045
-8.40841
-7.95876
-8.06617
-8.94086
-1571.43
-1425.32
-1239.9
-1010.26
-751.614
-541.416
-445.729
-332.399
-85.3628
195.022
-21.0333
-21.5286
-21.9175
-22.2061
-22.4003
-22.5062
-22.5295
-22.4763
-22.3522
-22.163
-21.9141
-21.6111
-21.2592
-20.8634
-20.4287
-19.9601
-19.4621
-18.939
-18.3951
-17.8344
-17.2607
-16.6779
-16.0893
-15.4984
-14.9082
-14.322
-13.7427
-13.173
-12.6157
-12.0736
-11.5493
-11.0452
-10.5644
-10.1103
-9.68121
-9.28055
-8.94596
-8.62527
-8.14212
-8.23064
-9.1604
-1571.65
-1425.61
-1240.46
-1011.54
-753.763
-542.723
-444.705
-330.114
-83.8385
196.11
433.971
-22.1264
-22.6682
-23.099
-23.4249
-23.652
-23.7862
-23.8334
-23.7999
-23.6912
-23.5133
-23.272
-22.9725
-22.6205
-22.2215
-21.78
-21.3015
-20.7905
-20.2516
-19.6893
-19.1078
-18.5109
-17.9026
-17.2865
-16.6661
-16.0446
-15.4252
-14.8107
-14.2043
-13.6086
-13.0262
-12.4597
-11.9118
-11.3846
-10.8813
-10.4051
-9.95411
-9.53086
-9.17508
-8.83537
-8.31814
-8.38546
-9.37293
-1571.97
-1426.03
-1241.23
-1013.15
-756.5
-544.598
-444.05
-327.76
-82.0257
197.169
434.951
627.193
-23.2436
-23.8344
-24.3094
-24.675
-24.9372
-25.102
-25.1755
-25.1636
-25.0725
-24.9079
-24.6757
-24.3816
-24.0311
-23.6299
-23.183
-22.6958
-22.1728
-21.6192
-21.0393
-20.4376
-19.8182
-19.185
-18.5419
-17.8923
-17.2398
-16.5877
-15.9387
-15.296
-14.6623
-14.0403
-13.4326
-12.8416
-12.2698
-11.7194
-11.1932
-10.6947
-10.2214
-9.7751
-9.39754
-9.03867
-8.48661
-8.53015
-9.57749
-1572.41
-1426.61
-1242.22
-1015.07
-759.761
-547.061
-443.754
-325.326
-79.9119
198.341
435.712
627.983
741.725
-24.3854
-25.0273
-25.5489
-25.9566
-26.2563
-26.4538
-26.5557
-26.5678
-26.4962
-26.3469
-26.1258
-25.8386
-25.4915
-25.0895
-24.6386
-24.1437
-23.6101
-23.0426
-22.446
-21.8249
-21.1835
-20.526
-19.8563
-19.1782
-18.4951
-17.8104
-17.1273
-16.4487
-15.7775
-15.1164
-14.4681
-13.8349
-13.2191
-12.6233
-12.0494
-11.5
-10.9788
-10.4829
-10.0131
-9.61306
-9.23485
-8.64725
-8.66436
-9.77496
-1572.96
-1427.33
-1243.42
-1017.34
-763.528
-550.147
-443.802
-322.865
-77.4639
199.845
436.392
628.521
742.312
749.796
-25.5521
-26.2473
-26.8179
-27.2699
-27.6093
-27.8421
-27.9745
-28.0127
-27.9628
-27.8307
-27.6227
-27.3445
-27.0021
-26.6012
-26.1475
-25.6465
-25.1032
-24.5229
-23.9104
-23.2707
-22.608
-21.9267
-21.231
-20.5246
-19.8112
-19.0944
-18.3773
-17.6632
-16.9549
-16.2551
-15.5665
-14.8916
-14.2327
-13.592
-12.9719
-12.3742
-11.8015
-11.2571
-10.7383
-10.2446
-9.82145
-9.42363
-8.80003
-8.78768
-9.96416
-1573.64
-1428.2
-1244.84
-1019.94
-767.755
-553.872
-444.16
-320.484
-74.7178
201.733
437.333
628.946
742.711
750.217
670.732
-26.7444
-27.4951
-28.1167
-28.6152
-28.9965
-29.2669
-29.4323
-29.4985
-29.4725
-29.3597
-29.1667
-28.8993
-28.5635
-28.1653
-27.7104
-27.2043
-26.6528
-26.0607
-25.4335
-24.7759
-24.0927
-23.3882
-22.6669
-21.9327
-21.1894
-20.4407
-19.69
-18.9405
-18.1952
-17.457
-16.7285
-16.0122
-15.3106
-14.6258
-13.9601
-13.3155
-12.6938
-12.0974
-11.5296
-10.9875
-10.4693
-10.0225
-9.60482
-8.94471
-8.89991
-10.1442
-1574.42
-1429.23
-1246.47
-1022.86
-772.463
-558.222
-444.776
-318.234
-71.7416
203.969
438.63
629.525
743.053
750.553
671.027
545.14
-27.9632
-28.7713
-29.4459
-29.9931
-30.4186
-30.7284
-30.9289
-31.0258
-31.0256
-30.9343
-30.7584
-30.5036
-30.1762
-29.7826
-29.328
-28.8185
-28.2597
-27.6573
-27.0163
-26.3417
-25.6387
-24.9117
-24.1653
-23.4038
-22.6309
-21.8506
-21.0664
-20.2817
-19.4996
-18.723
-17.9548
-17.1974
-16.4534
-15.7248
-15.0141
-14.3231
-13.6539
-13.0079
-12.3875
-11.796
-11.2303
-10.6873
-10.2159
-9.77818
-9.08126
-9.00057
-10.3158
-1575.34
-1430.42
-1248.33
-1026.11
-777.615
-563.155
-445.677
-316.216
-68.6761
206.465
440.271
630.342
743.492
750.899
671.328
545.37
406.032
-29.2092
-30.0764
-30.8063
-31.404
-31.8757
-32.2275
-32.4649
-32.5947
-32.6227
-32.5549
-32.398
-32.1581
-31.8411
-31.4534
-31.0011
-30.4896
-29.9253
-29.3133
-28.6597
-27.9693
-27.2472
-26.4984
-25.7275
-24.9389
-24.1369
-23.3253
-22.5078
-21.688
-20.8692
-20.0544
-19.2464
-18.448
-17.6617
-16.8897
-16.1342
-15.3973
-14.6808
-13.9867
-13.3163
-12.6716
-12.0561
-11.4664
-10.8981
-10.4015
-9.94349
-9.2094
-9.08926
-10.4783
-1576.37
-1431.78
-1250.41
-1029.66
-783.199
-568.638
-446.91
-314.417
-65.5631
209.177
442.226
631.42
744.018
751.338
671.694
545.634
406.276
272.576
-30.484
-31.4121
-32.1984
-32.849
-33.3688
-33.7644
-34.0413
-34.2056
-34.264
-34.222
-34.0862
-33.863
-33.5584
-33.1786
-32.7298
-32.2184
-31.6496
-31.0301
-30.3647
-29.6595
-28.9193
-28.1495
-27.3547
-26.5397
-25.7087
-24.8661
-24.0155
-23.1607
-22.3052
-21.4521
-20.6045
-19.765
-18.9364
-18.1209
-17.321
-16.5384
-15.7752
-15.0331
-14.3139
-13.6188
-12.9496
-12.3097
-11.6957
-11.1016
-10.5791
-10.1005
-9.32903
-9.16573
-10.631
-1577.53
-1433.3
-1252.7
-1033.52
-789.196
-574.636
-448.546
-312.836
-62.5604
212.054
444.485
632.818
744.651
751.826
672.134
545.962
406.565
272.872
159.182
-31.789
-32.7793
-33.624
-34.3286
-34.8986
-35.3396
-35.6581
-35.8594
-35.95
-35.9359
-35.8235
-35.6189
-35.3284
-34.9588
-34.5155
-34.0053
-33.4341
-32.8078
-32.1324
-31.4133
-30.6561
-29.8661
-29.0482
-28.2073
-27.3478
-26.4744
-25.5909
-24.7012
-23.809
-22.9177
-22.0302
-21.1497
-20.2787
-19.4198
-18.5751
-17.747
-16.9372
-16.1475
-15.3797
-14.6352
-13.9152
-13.2212
-12.5566
-11.9179
-11.2977
-10.7485
-10.249
-9.4401
-9.22963
-10.7722
-1578.82
-1434.97
-1255.21
-1037.66
-795.572
-581.115
-450.627
-311.447
-59.7486
215.06
447.005
634.534
745.434
752.334
672.632
546.336
406.896
273.204
159.536
76.9843
-33.1258
-34.1796
-35.0839
-35.8443
-36.4657
-36.9546
-37.316
-37.5565
-37.6815
-37.6971
-37.6101
-37.4263
-37.1522
-36.7941
-36.3585
-35.8515
-35.2791
-34.648
-33.9636
-33.232
-32.4586
-31.6494
-30.809
-29.9429
-29.0555
-28.1516
-27.2355
-26.311
-25.3823
-24.4525
-23.5252
-22.6033
-21.6898
-20.7872
-19.8978
-19.0239
-18.1675
-17.3303
-16.5141
-15.7203
-14.9504
-14.2053
-13.4863
-12.7966
-12.1329
-11.4861
-10.9094
-10.3888
-9.54256
-9.28047
-10.9034
-1580.24
-1436.8
-1257.93
-1042.09
-802.305
-588.057
-453.175
-310.245
-57.2067
218.121
449.751
636.56
746.425
752.855
673.166
546.761
407.249
273.556
159.895
77.3689
15.0815
-34.4973
-35.6154
-36.5801
-37.3976
-38.0722
-38.61
-39.0164
-39.2974
-39.4587
-39.5066
-39.4468
-39.2858
-39.03
-38.6858
-38.2592
-37.7573
-37.1857
-36.551
-35.8592
-35.1163
-34.3283
-33.5005
-32.6388
-31.7479
-30.8332
-29.8992
-28.9506
-27.9916
-27.0262
-26.0581
-25.0908
-24.1274
-23.1711
-22.2244
-21.2901
-20.3702
-19.4669
-18.5822
-17.7176
-16.8747
-16.0549
-15.2593
-14.4889
-13.7445
-13.0296
-12.3406
-11.6668
-11.0617
-10.5196
-9.63627
-9.31798
-11.0234
-1581.8
-1438.79
-1260.85
-1046.78
-809.359
-595.429
-456.186
-309.292
-55.0105
221.169
452.694
638.874
747.66
753.396
673.703
547.232
407.63
273.932
160.254
77.7185
15.4516
-44.6243
-35.9058
-37.0882
-38.1147
-38.9897
-39.7189
-40.3074
-40.7604
-41.0836
-41.283
-41.3646
-41.3342
-41.1979
-40.9624
-40.634
-40.2188
-39.7233
-39.1545
-38.5179
-37.8202
-37.0675
-36.2658
-35.4209
-34.5382
-33.6238
-32.6823
-31.7186
-30.738
-29.7446
-28.7426
-27.736
-26.7285
-25.7235
-24.7241
-23.7331
-22.7534
-21.7872
-20.8368
-19.9041
-18.9909
-18.0988
-17.2291
-16.383
-15.5618
-14.7658
-13.9959
-13.2552
-12.5405
-11.8394
-11.2051
-10.6412
-9.7212
-9.34187
-11.1316
-1583.51
-1440.95
-1263.97
-1051.72
-816.719
-603.196
-459.638
-308.658
-53.1866
224.114
455.777
641.452
749.159
753.978
674.234
547.764
408.06
274.319
160.635
78.0487
15.7433
-44.3082
-112.473
-37.3543
-38.6015
-39.6893
-40.6232
-41.4078
-42.0479
-42.5488
-42.916
-43.1552
-43.2721
-43.2729
-43.1635
-42.9504
-42.6394
-42.2374
-41.751
-41.186
-40.5494
-39.8474
-39.0865
-38.2724
-37.4111
-36.5092
-35.5714
-34.6039
-33.6115
-32.5991
-31.5714
-30.533
-29.488
-28.4401
-27.3932
-26.3503
-25.3148
-24.2892
-23.2763
-22.2783
-21.2973
-20.3351
-19.3935
-18.4737
-17.5771
-16.7047
-15.8575
-15.0358
-14.2401
-13.4734
-12.7328
-12.0039
-11.3396
-10.7534
-9.79733
-9.35188
-11.2269
-1585.37
-1443.28
-1267.28
-1056.87
-824.34
-611.314
-463.522
-308.403
-51.7295
226.871
458.96
644.278
750.921
754.631
674.719
548.313
408.549
274.738
161.054
78.4239
15.9893
-44.1127
-112.241
-197.267
-38.8461
-40.1581
-41.3077
-42.3006
-43.1411
-43.8336
-44.3831
-44.7957
-45.0765
-45.2305
-45.264
-45.1835
-44.9943
-44.7031
-44.316
-43.84
-43.2815
-42.6466
-41.9417
-41.1737
-40.3488
-39.473
-38.5523
-37.5929
-36.5998
-35.579
-34.5354
-33.4739
-32.3991
-31.3156
-30.2274
-29.1383
-28.0518
-26.9711
-25.8993
-24.8391
-23.7929
-22.7631
-21.7514
-20.7597
-19.7895
-18.8421
-17.9184
-17.0196
-16.1462
-15.2986
-14.4769
-13.684
-12.9171
-12.1601
-11.465
-10.856
-9.86464
-9.34766
-11.3097
-1587.41
-1445.79
-1270.79
-1062.25
-832.194
-619.754
-467.824
-308.589
-50.6634
229.335
462.184
647.325
752.934
755.388
675.151
548.863
409.11
275.191
161.487
78.8456
16.2983
-43.9739
-112.164
-197.131
-300.667
-40.3853
-41.7613
-42.9728
-44.0247
-44.921
-45.6666
-46.2658
-46.7246
-47.0478
-47.2407
-47.3086
-47.2582
-47.095
-46.8255
-46.4554
-45.9919
-45.441
-44.8099
-44.1041
-43.3309
-42.4963
-41.6071
-40.6691
-39.6886
-38.6712
-37.6226
-36.5484
-35.4535
-34.3426
-33.2208
-32.0921
-30.9605
-29.83
-28.7039
-27.5854
-26.4773
-25.3825
-24.3031
-23.2413
-22.199
-21.1777
-20.1789
-19.2037
-18.253
-17.3275
-16.428
-15.5543
-14.7063
-13.8868
-13.0932
-12.308
-11.5811
-10.9488
-9.92318
-9.32907
-11.3792
-1589.65
-1448.51
-1274.5
-1067.81
-840.242
-628.472
-472.526
-309.223
-50.0253
231.409
465.392
650.557
755.189
756.276
675.525
549.392
409.729
275.701
161.944
79.3028
16.6601
-43.7739
-112.167
-197.198
-300.66
-429.516
-41.9767
-43.4158
-44.6882
-45.7982
-46.7506
-47.5491
-48.1989
-48.7049
-49.0712
-49.3038
-49.408
-49.3895
-49.2538
-49.0073
-48.6562
-48.207
-47.666
-47.0397
-46.3352
-45.5581
-44.716
-43.8146
-42.8607
-41.8604
-40.8195
-39.744
-38.6396
-37.5116
-36.3651
-35.2051
-34.0358
-32.8618
-31.687
-30.515
-29.3493
-28.1928
-27.0486
-25.919
-24.8064
-23.7127
-22.6397
-21.5888
-20.5614
-19.5583
-18.5804
-17.6283
-16.7024
-15.8024
-14.9281
-14.0816
-13.2612
-12.4472
-11.6878
-11.0316
-9.97302
-9.29589
-11.4353
-1592.09
-1451.44
-1278.43
-1073.58
-848.457
-637.42
-477.611
-310.317
-49.8787
233.012
468.497
653.941
757.668
757.327
675.844
549.879
410.397
276.281
162.432
79.7891
17.0673
-43.5032
-112.106
-197.345
-300.874
-429.636
-594.431
-43.6249
-45.1256
-46.4578
-47.6256
-48.6336
-49.4851
-50.1849
-50.7385
-51.1487
-51.4224
-51.5633
-51.578
-51.4717
-51.2499
-50.9195
-50.4862
-49.957
-49.338
-48.6357
-47.8571
-47.0084
-46.0968
-45.128
-44.109
-43.0458
-41.9445
-40.8106
-39.6503
-38.4684
-37.2702
-36.0606
-34.844
-33.6247
-32.4065
-31.193
-29.9876
-28.7933
-27.6127
-26.4485
-25.3026
-24.1769
-23.0732
-21.9927
-20.9366
-19.9057
-18.9006
-17.9217
-16.9693
-16.043
-15.1419
-14.2684
-13.4207
-12.5779
-11.785
-11.1042
-10.0142
-9.2479
-11.4768
-1594.76
-1454.6
-1282.59
-1079.55
-856.813
-646.545
-483.058
-311.866
-50.2878
234.094
471.423
657.435
760.363
758.549
676.113
550.292
411.088
276.928
162.962
80.2963
17.5093
-43.1885
-111.994
-197.445
-301.202
-430.049
-594.671
-801.601
-45.3362
-46.8963
-48.2865
-49.5107
-50.5731
-51.4772
-52.2274
-52.8279
-53.2827
-53.5976
-53.777
-53.8254
-53.7496
-53.5546
-53.2461
-52.8307
-52.3147
-51.7046
-51.0068
-50.2281
-49.3751
-48.4542
-47.4725
-46.4359
-45.3516
-44.2251
-43.063
-41.8707
-40.654
-39.4181
-38.1682
-36.909
-35.6449
-34.3801
-33.1186
-31.8635
-30.6184
-29.3863
-28.1695
-26.9705
-25.7914
-24.6338
-23.4994
-22.3893
-21.3045
-20.2457
-19.2133
-18.2076
-17.2286
-16.2757
-15.3479
-14.4469
-13.5717
-12.6998
-11.8726
-11.1664
-10.047
-9.18486
-11.5031
-1597.68
-1458.02
-1287.01
-1085.74
-865.31
-655.83
-488.84
-313.859
-51.2997
234.6
474.051
660.987
763.268
759.956
676.366
550.619
411.793
277.648
163.559
80.8414
17.979
-42.8337
-111.844
-197.496
-301.485
-430.576
-595.235
-801.786
-1028.1
-47.117
-48.7341
-50.18
-51.4586
-52.5742
-53.5292
-54.3289
-54.9764
-55.4758
-55.8324
-56.05
-56.1339
-56.0894
-55.9221
-55.6373
-55.2415
-54.7405
-54.141
-53.4493
-52.6721
-51.816
-50.8882
-49.8946
-48.8425
-47.7378
-46.5876
-45.3979
-44.1746
-42.9237
-41.6504
-40.3605
-39.0587
-37.7498
-36.4382
-35.128
-33.8228
-32.5263
-31.2417
-29.9715
-28.7185
-27.4849
-26.2725
-25.0831
-23.918
-22.7783
-21.6648
-20.5781
-19.5184
-18.4857
-17.48
-16.5005
-15.5457
-14.6171
-13.7141
-12.8129
-11.9506
-11.218
-10.0716
-9.1066
-11.5135
-1600.85
-1461.72
-1291.71
-1092.15
-873.942
-665.234
-494.921
-316.301
-52.9643
234.492
476.302
664.542
766.362
761.552
676.628
550.84
412.46
278.422
164.219
81.427
18.4732
-42.4501
-111.668
-197.52
-301.731
-431.078
-595.967
-802.347
-1027.96
-1208.74
-48.9744
-50.6453
-52.1444
-53.4752
-54.6416
-55.6468
-56.4936
-57.1876
-57.7312
-58.129
-58.3853
-58.5051
-58.4928
-58.3543
-58.0944
-57.7193
-57.2353
-56.6479
-55.964
-55.1899
-54.3331
-53.3991
-52.3958
-51.3292
-50.2061
-49.0331
-47.817
-46.5635
-45.279
-43.9689
-42.6394
-41.2951
-39.9412
-38.5825
-37.2234
-35.8677
-34.519
-33.1811
-31.8567
-30.5488
-29.2595
-27.9913
-26.7458
-25.5245
-24.3287
-23.1594
-22.0173
-20.9026
-19.8156
-18.756
-17.7235
-16.7172
-15.7353
-14.7788
-13.8477
-12.9172
-12.0189
-11.2591
-10.088
-9.01301
-11.5087
-1604.31
-1465.71
-1296.7
-1098.83
-882.722
-674.748
-501.283
-319.184
-55.2798
233.712
478.062
668.029
769.626
763.333
676.925
550.958
413.069
279.244
164.965
82.0737
18.9876
-42.0534
-111.48
-197.532
-301.963
-431.561
-596.695
-803.104
-1028.13
-1208.3
-1318.68
-50.9155
-52.6372
-54.186
-55.5662
-56.7809
-57.8337
-58.727
-59.4657
-60.0526
-60.4909
-60.7861
-60.9418
-60.962
-60.8531
-60.619
-60.266
-59.7998
-59.2266
-58.552
-57.7831
-56.9263
-55.9889
-54.9768
-53.8976
-52.7572
-51.563
-50.3214
-49.0389
-47.7213
-46.3752
-45.0062
-43.6198
-42.2213
-40.8154
-39.407
-38
-36.5988
-35.2068
-33.8274
-32.4635
-31.1176
-29.7923
-28.4895
-27.2107
-25.9577
-24.7313
-23.5325
-22.3616
-21.219
-20.1047
-19.0181
-17.9588
-16.9256
-15.9165
-14.9319
-13.9725
-13.0125
-12.0776
-11.2892
-10.0964
-8.90456
-11.4864
-1608.08
-1470.01
-1302.01
-1105.78
-891.679
-684.369
-507.901
-322.489
-58.2517
232.187
479.226
671.355
773.024
765.297
677.276
550.977
413.599
280.075
165.793
82.7887
19.5368
-41.6499
-111.308
-197.553
-302.2
-432.048
-597.436
-803.926
-1028.6
-1207.86
-1318.4
-1315.22
-52.95
-54.7175
-56.3128
-57.7386
-58.9987
-60.0961
-61.0336
-61.8151
-62.4435
-62.922
-63.2555
-63.446
-63.4998
-63.4201
-63.213
-62.8834
-62.4362
-61.8779
-61.2146
-60.4524
-59.5981
-58.6578
-57.6393
-56.5485
-55.3925
-54.1783
-52.9127
-51.6018
-50.2525
-48.871
-47.4632
-46.0348
-44.5917
-43.1385
-41.6807
-40.2223
-38.7679
-37.3212
-35.8857
-34.4649
-33.0614
-31.6778
-30.3164
-28.9791
-27.6673
-26.3825
-25.1256
-23.8972
-22.6977
-21.5272
-20.3855
-19.2719
-18.1857
-17.1257
-16.0892
-15.0764
-14.0883
-13.0989
-12.1268
-11.3082
-10.0977
-8.78092
-11.4472
-1612.19
-1474.66
-1307.65
-1113.03
-900.824
-694.093
-514.76
-326.207
-61.8708
229.862
479.705
674.432
776.525
767.438
677.7
550.914
414.039
280.901
166.716
83.5945
20.1292
-41.2464
-111.171
-197.618
-302.473
-432.564
-598.199
-804.814
-1029.31
-1207.59
-1318.05
-1315.12
-1196.21
-55.0865
-56.8959
-58.5326
-60.0002
-61.3021
-62.4409
-63.4197
-64.2418
-64.9096
-65.4267
-65.7967
-66.022
-66.1082
-66.059
-65.8786
-65.5727
-65.1456
-64.6039
-63.9524
-63.1987
-62.3483
-61.4077
-60.3834
-59.2832
-58.113
-56.8802
-55.5917
-54.254
-52.8739
-51.4578
-50.0119
-48.5424
-47.0546
-45.5543
-44.0468
-42.5367
-41.0286
-39.5265
-38.0343
-36.5555
-35.0934
-33.6504
-32.2291
-30.8316
-29.4599
-28.1152
-26.7987
-25.5112
-24.2534
-23.0253
-21.827
-20.6579
-19.5173
-18.4042
-17.3172
-16.2534
-15.2122
-14.1952
-13.1764
-12.1664
-11.3162
-10.0919
-8.64214
-11.3902
-1616.65
-1479.67
-1313.65
-1120.6
-910.194
-703.957
-521.867
-330.316
-66.1151
226.678
479.422
677.133
780.075
769.749
678.211
550.782
414.38
281.705
167.72
84.5018
20.7744
-40.8278
-111.078
-197.759
-302.826
-433.148
-599.035
-805.782
-1030.24
-1207.57
-1317.64
-1314.93
-1196.24
-1191.68
-57.3354
-59.1813
-60.8549
-62.3595
-63.6986
-64.8753
-65.8917
-66.7508
-67.4561
-68.0095
-68.4142
-68.6734
-68.7913
-68.7721
-68.6187
-68.3365
-67.9301
-67.4056
-66.7679
-66.0235
-65.1782
-64.2386
-63.211
-62.102
-60.9198
-59.6699
-58.3601
-56.9969
-55.587
-54.1372
-52.6539
-51.1435
-49.6118
-48.0647
-46.5074
-44.9454
-43.383
-41.8251
-40.2755
-38.7379
-37.2159
-35.7123
-34.2299
-32.771
-31.3377
-29.9316
-28.5539
-27.2058
-25.888
-24.6007
-23.3442
-22.118
-20.9217
-19.7541
-18.6141
-17.5001
-16.4089
-15.3391
-14.2931
-13.245
-12.1967
-11.313
-10.0793
-8.48862
-11.3148
-1621.52
-1485.08
-1320.04
-1128.51
-919.815
-713.981
-529.213
-334.792
-70.9752
222.594
478.31
679.351
783.617
772.218
678.822
550.584
414.61
282.466
168.795
85.5283
21.4861
-40.3853
-111.021
-197.984
-303.294
-433.85
-599.978
-806.854
-1031.39
-1207.87
-1317.22
-1314.65
-1196.37
-1191.34
-1211
-59.708
-61.5843
-63.2889
-64.8256
-66.1972
-67.4067
-68.4569
-69.3497
-70.0884
-70.6752
-71.1131
-71.4045
-71.5528
-71.5621
-71.4354
-71.1772
-70.7919
-70.2856
-69.6622
-68.9284
-68.0894
-67.1523
-66.1224
-65.0075
-63.8137
-62.5488
-61.2187
-59.8314
-58.3931
-56.9108
-55.391
-53.8405
-52.2652
-50.6715
-49.0649
-47.4505
-45.8338
-44.2194
-42.6116
-41.0144
-39.4316
-37.8662
-36.3214
-34.7998
-33.3034
-31.8343
-30.3939
-28.9834
-27.6039
-26.2557
-24.9391
-23.6542
-22.4002
-21.1766
-19.9821
-18.8153
-17.6743
-16.5556
-15.4573
-14.382
-13.3046
-12.2179
-11.2983
-10.0605
-8.32079
-11.2214
-1626.81
-1490.92
-1326.86
-1136.8
-929.705
-724.198
-536.832
-339.651
-76.4038
217.61
476.306
680.963
787.074
774.823
679.53
550.333
414.726
283.176
169.933
86.6806
22.2741
-39.9162
-110.995
-198.284
-303.877
-434.713
-601.096
-808.088
-1032.7
-1208.49
-1316.81
-1314.21
-1196.56
-1191.19
-1210.57
-1227.36
-62.2158
-64.1166
-65.8461
-67.4084
-68.8072
-70.0445
-71.1232
-72.0458
-72.8142
-73.431
-73.8985
-74.2197
-74.3971
-74.4331
-74.3323
-74.0976
-73.7335
-73.2452
-72.6372
-71.9148
-71.0835
-70.1499
-69.1196
-67.9996
-66.7966
-65.5176
-64.1691
-62.7589
-61.2934
-59.7796
-58.2246
-56.6345
-55.0166
-53.3767
-51.7206
-50.0544
-48.3831
-46.7118
-45.0452
-43.3876
-41.743
-40.1149
-38.5064
-36.9205
-35.3596
-33.8259
-32.321
-30.8465
-29.4035
-27.9925
-26.6141
-25.2683
-23.955
-22.6734
-21.4226
-20.2012
-19.0076
-17.8396
-16.6935
-15.5666
-14.4619
-13.3555
-12.2303
-11.2721
-10.0365
-8.13918
-11.1072
-1632.58
-1497.24
-1334.13
-1145.48
-939.906
-734.651
-544.744
-344.895
-82.3765
211.723
473.33
681.862
790.355
777.537
680.344
550.034
414.72
283.819
171.113
87.9571
23.1485
-39.4128
-111
-198.658
-304.572
-435.716
-602.398
-809.529
-1034.21
-1209.44
-1316.45
-1313.6
-1196.71
-1191.08
-1210.38
-1226.92
-1244.42
-64.8722
-66.79
-68.538
-70.1196
-71.5387
-72.7982
-73.9001
-74.847
-75.641
-76.2838
-76.7778
-77.1247
-77.3285
-77.3905
-77.313
-77.1015
-76.7583
-76.288
-75.6951
-74.985
-74.1622
-73.2332
-72.2035
-71.0801
-69.8694
-68.5778
-67.2123
-65.7808
-64.2891
-62.7455
-61.1561
-59.5282
-57.8676
-56.1822
-54.4774
-52.7591
-51.0329
-49.3045
-47.5788
-45.8602
-44.1528
-42.4607
-40.7874
-39.136
-37.5091
-35.9091
-34.3382
-32.7977
-31.2893
-29.8136
-28.3714
-26.9629
-25.5881
-24.2465
-22.9374
-21.6595
-20.4113
-19.1909
-17.996
-16.8226
-15.6672
-14.5328
-13.3978
-12.2339
-11.2345
-10.0076
-7.94376
-10.9751
-1638.85
-1504.06
-1341.89
-1154.61
-950.445
-745.368
-552.984
-350.538
-88.8649
204.94
469.328
681.917
793.352
780.322
681.252
549.681
414.578
284.385
172.331
89.3559
24.1184
-38.8732
-111.037
-199.112
-305.377
-436.86
-603.9
-811.23
-1035.99
-1210.69
-1316.18
-1312.83
-1196.78
-1190.96
-1210.3
-1226.61
-1244.05
-1256.7
-67.6912
-69.6183
-71.3768
-72.971
-74.4036
-75.6782
-76.7974
-77.7628
-78.5768
-79.241
-79.7571
-80.1273
-80.3533
-80.4379
-80.3828
-80.1924
-79.869
-79.4166
-78.8387
-78.1405
-77.327
-76.4033
-75.3758
-74.2498
-73.0324
-71.73
-70.3495
-68.8978
-67.3822
-65.8094
-64.1871
-62.5217
-60.8205
-59.0899
-57.3364
-55.5666
-53.7859
-52.0002
-50.2147
-48.4343
-46.6637
-44.9067
-43.1673
-41.449
-39.7547
-38.0869
-36.448
-34.8399
-33.2641
-31.7217
-30.2137
-28.7404
-27.302
-25.8982
-24.5286
-23.1919
-21.8871
-20.6123
-19.3652
-18.1434
-16.9427
-15.7589
-14.5948
-13.4313
-12.2297
-11.1852
-9.97476
-7.73599
-10.8235
-1645.66
-1511.43
-1350.18
-1164.21
-961.365
-756.396
-561.594
-356.597
-95.8323
197.284
464.237
681.033
795.938
783.13
682.243
549.278
414.298
284.857
173.57
90.8629
25.1903
-38.2929
-111.111
-199.649
-306.291
-438.141
-605.562
-813.162
-1038.04
-1212.23
-1316.08
-1311.91
-1196.7
-1190.88
-1210.33
-1226.35
-1243.75
-1256.43
-1266.94
-70.6865
-72.6156
-74.3768
-75.9749
-77.4139
-78.6966
-79.8257
-80.8034
-81.6313
-82.3111
-82.8446
-83.2329
-83.4783
-83.5819
-83.5466
-83.3752
-83.0694
-82.6334
-82.0704
-81.3844
-80.5799
-79.6625
-78.6376
-77.5107
-76.2878
-74.9765
-73.5814
-72.1115
-70.5731
-68.9732
-67.319
-65.6178
-63.8761
-62.1015
-60.3003
-58.479
-56.6439
-54.8009
-52.9556
-51.113
-49.278
-47.4554
-45.6489
-43.8624
-42.0992
-40.3619
-38.6536
-36.9759
-35.3308
-33.7198
-32.1437
-30.6035
-29.0993
-27.631
-26.1984
-24.8008
-23.4369
-22.1053
-20.8039
-19.5302
-18.2817
-17.054
-15.8419
-14.6479
-13.4563
-12.2177
-11.1244
-9.93882
-7.51671
-10.6501
-1653.08
-1519.39
-1359.04
-1174.32
-972.706
-767.784
-570.629
-363.105
-103.275
188.791
458.032
679.119
797.98
785.898
683.299
548.813
413.864
285.231
174.829
92.4703
26.3586
-37.6561
-111.225
-200.275
-307.332
-439.575
-607.413
-815.322
-1040.37
-1214.08
-1316.17
-1310.84
-1196.43
-1190.84
-1210.51
-1226.21
-1243.42
-1256.15
-1266.7
-1278.51
-73.8752
-75.7967
-77.552
-79.146
-80.5828
-81.8658
-82.9974
-83.9796
-84.8148
-85.5041
-86.0489
-86.4504
-86.7102
-86.8296
-86.8104
-86.6542
-86.3643
-85.9433
-85.3932
-84.7191
-83.9243
-83.0132
-81.9912
-80.8646
-79.6373