/*--------------------------------*- C++ -*----------------------------------*\
  =========                 |
  \\      /  F ield         | OpenFOAM: The Open Source CFD Toolbox
   \\    /   O peration     | Website:  https://openfoam.org
    \\  /    A nd           | Version:  7
     \\/     M anipulation  |
\*---------------------------------------------------------------------------*/
FoamFile
{
    version     2.0;
    format      ascii;
    class       surfaceScalarField;
    location    "400";
    object      phi;
}
// * * * * * * * * * * * * * * * * * * * * * * * * * * * * * * * * * * * * * //

dimensions      [0 3 -1 0 0 0 0];

internalField   nonuniform List<scalar> 
45818
(
0.0756399
0.146618
0.0724683
0.140226
0.0757366
0.14994
0.069428
0.134118
0.0725585
0.143404
0.0758134
0.153256
0.0665173
0.128274
0.0695167
0.13716
0.0726303
0.146587
0.075872
0.156563
0.0637191
0.122706
0.066601
0.13119
0.069592
0.140198
0.0727007
0.149758
0.0759206
0.159868
0.0610453
0.117349
0.0638198
0.125487
0.0666797
0.134102
0.0696658
0.143233
0.0727577
0.152921
0.0759544
0.163168
0.0584874
0.112238
0.0611545
0.120015
0.063902
0.128265
0.0667571
0.137011
0.0697213
0.14627
0.07279
0.156086
0.0759649
0.166479
0.0560389
0.107368
0.0585767
0.114816
0.0612168
0.1227
0.0639645
0.131057
0.0667977
0.139935
0.0697486
0.149311
0.0728089
0.159242
0.0759605
0.169773
0.0536902
0.102707
0.056129
0.109816
0.058661
0.117372
0.0612928
0.125371
0.0640185
0.133837
0.0668518
0.142831
0.0697843
0.152336
0.0728079
0.162394
0.0759463
0.173063
0.0514401
0.0982475
0.0537821
0.105053
0.0562151
0.112261
0.0587405
0.119924
0.0613588
0.128031
0.0640662
0.136622
0.0668861
0.14573
0.0697784
0.155365
0.0727837
0.165557
0.0759172
0.176332
0.0492889
0.0939883
0.0515329
0.100497
0.0538642
0.107404
0.0562837
0.114718
0.0587966
0.122486
0.0614016
0.130696
0.0640955
0.139413
0.0668836
0.148624
0.0697845
0.158364
0.0727814
0.168693
0.0758514
0.179601
0.0472267
0.0899192
0.0493749
0.0961463
0.051618
0.102743
0.0539409
0.109747
0.0563497
0.117165
0.0588479
0.12504
0.0614394
0.133352
0.06412
0.142176
0.0668897
0.151519
0.0697454
0.1614
0.0727141
0.17183
0.0757792
0.182867
0.0452457
0.0860318
0.0473144
0.0919796
0.0494632
0.0983012
0.0516879
0.104996
0.054
0.112097
0.0563991
0.119614
0.0588843
0.127595
0.0614439
0.136028
0.0641111
0.144955
0.0668675
0.154397
0.0697183
0.164396
0.0726552
0.174954
0.0756838
0.18611
0.0433587
0.0823085
0.0453366
0.0880096
0.0473959
0.0940469
0.0495326
0.100457
0.051753
0.107243
0.0540516
0.114444
0.056435
0.122063
0.0589023
0.130137
0.061467
0.138672
0.0641109
0.147712
0.0668489
0.157266
0.0696629
0.167388
0.0725682
0.17807
0.0755685
0.189359
0.0415407
0.078762
0.0434414
0.0842037
0.0454212
0.0899843
0.0474685
0.096111
0.0496007
0.102609
0.0518077
0.109487
0.0541006
0.116779
0.0564679
0.124497
0.0589289
0.132675
0.0614568
0.141326
0.0640823
0.150478
0.0667836
0.160146
0.0695843
0.170372
0.0724747
0.181163
0.0754384
0.192586
0.0398081
0.075361
0.0416302
0.0805732
0.0435228
0.0861021
0.0454906
0.0919622
0.0475384
0.0981734
0.0496536
0.104763
0.0518449
0.111743
0.0541244
0.119122
0.056481
0.126945
0.0589088
0.135223
0.0614368
0.143972
0.0640305
0.153231
0.0667184
0.163012
0.0694908
0.173356
0.0723396
0.184262
0.075285
0.1958
0.0381431
0.0721232
0.039888
0.0771032
0.0417084
0.0823876
0.0436017
0.087991
0.0455587
0.0939419
0.0475858
0.100241
0.0496967
0.106911
0.0518858
0.113981
0.054142
0.121461
0.0564851
0.129369
0.0589157
0.137744
0.0614069
0.146595
0.0639872
0.155963
0.0666419
0.165861
0.0693775
0.176318
0.0721996
0.187348
0.0751202
0.198987
0.0365472
0.0690236
0.0382249
0.0737864
0.0399717
0.0788399
0.0417841
0.0842052
0.0436616
0.089888
0.0456142
0.0959134
0.047642
0.102296
0.0497344
0.109062
0.0519065
0.116217
0.0541506
0.123796
0.056469
0.131816
0.0588624
0.140288
0.0613487
0.149234
0.0639057
0.158699
0.066547
0.168691
0.0692594
0.179258
0.0720432
0.190425
0.0749005
0.202179
0.0350232
0.0660556
0.0366308
0.0706177
0.0383053
0.0754527
0.0400391
0.0805849
0.0418458
0.086021
0.0437189
0.0917834
0.0456586
0.0978968
0.0476729
0.104357
0.0497596
0.111209
0.0519146
0.118453
0.0541467
0.126118
0.0564517
0.134226
0.0588312
0.142806
0.0612722
0.151867
0.0638193
0.161426
0.0664189
0.171532
0.069103
0.182198
0.0718685
0.193457
0.0746926
0.20534
0.0335632
0.0632296
0.0351007
0.0675856
0.0367081
0.0722149
0.0383732
0.0771186
0.040109
0.0823217
0.0419013
0.0878387
0.0437651
0.0936769
0.0457026
0.0998671
0.0476989
0.106418
0.0497722
0.113352
0.0519102
0.120689
0.0541289
0.128441
0.0564156
0.136642
0.0587767
0.145301
0.0612078
0.154479
0.0636997
0.164146
0.066281
0.174354
0.0689284
0.185138
0.0716557
0.196493
0.0744516
0.208487
0.0321587
0.0605256
0.0336362
0.0646942
0.0351785
0.0691152
0.0367814
0.0738068
0.0384385
0.0787891
0.0401613
0.0840617
0.0419555
0.0896482
0.0438086
0.0955709
0.0457268
0.101839
0.0477196
0.108471
0.0497736
0.115488
0.0519032
0.122915
0.0540936
0.130763
0.0563605
0.139058
0.0586938
0.147815
0.0611066
0.157072
0.0635752
0.166851
0.0661233
0.177159
0.0687508
0.188043
0.0714281
0.199517
0.0741858
0.211621
0.0308182
0.0579395
0.0322322
0.0619296
0.0337144
0.0661583
0.0352436
0.070653
0.0368385
0.0754069
0.0384989
0.0804514
0.0402159
0.0858013
0.0419958
0.0914609
0.0438395
0.0974581
0.0457506
0.103808
0.0477228
0.110521
0.0497648
0.117627
0.0518724
0.125136
0.0540543
0.133069
0.056293
0.141459
0.0586106
0.150311
0.0609857
0.159661
0.0634444
0.16953
0.0659557
0.179954
0.0685282
0.190943
0.0711723
0.20253
0.0738834
0.214736
0.0295307
0.0554726
0.0308886
0.059283
0.0323108
0.0633332
0.0337799
0.067622
0.0353111
0.0721803
0.0368979
0.0770079
0.038544
0.0821234
0.0402544
0.0875427
0.0420236
0.0932769
0.0438579
0.0993508
0.0457583
0.105773
0.0477198
0.112566
0.0497434
0.119756
0.051839
0.127351
0.0539912
0.135371
0.0562165
0.143853
0.0584995
0.152798
0.0608634
0.162242
0.0632769
0.172209
0.0657634
0.182719
0.0683126
0.193803
0.0709184
0.205495
0.073583
0.21782
0.028299
0.0531129
0.0296006
0.0567606
0.0309613
0.0606325
0.0323753
0.0647378
0.0338428
0.0690903
0.0353674
0.0737109
0.0369512
0.0786007
0.0385956
0.0837821
0.0402939
0.0892724
0.0420537
0.0950811
0.0438724
0.101237
0.0457535
0.107739
0.047698
0.114612
0.0497144
0.12188
0.051783
0.129559
0.0539169
0.137671
0.0561225
0.14623
0.0583832
0.155278
0.0606959
0.164823
0.0630846
0.174888
0.0655393
0.185492
0.0680454
0.196676
0.0706046
0.208474
0.0732311
0.220886
0.0271175
0.0508573
0.0283686
0.0543449
0.0296787
0.0580432
0.0310327
0.0619752
0.0324351
0.0661455
0.0339009
0.0705567
0.0354224
0.0752396
0.0369932
0.0802032
0.0386206
0.0854555
0.0403122
0.0910139
0.0420627
0.0968907
0.043877
0.103113
0.0457447
0.109692
0.0476785
0.116648
0.0496643
0.123999
0.0517168
0.13176
0.0538338
0.139959
0.0560034
0.14861
0.058242
0.157732
0.0605355
0.167373
0.0629009
0.177526
0.065304
0.188233
0.0677684
0.199512
0.0703078
0.211397
0.0728777
0.223919
0.0259878
0.0487016
0.0271885
0.0520374
0.0284402
0.0555833
0.0297377
0.0593381
0.0310901
0.0633202
0.0324972
0.0675493
0.03395
0.0720291
0.0354635
0.0767694
0.0370313
0.0817925
0.038657
0.0871107
0.0403329
0.0927436
0.0420741
0.0986937
0.0438663
0.104992
0.0457197
0.111651
0.0476301
0.118682
0.0496076
0.126108
0.0516395
0.133954
0.0537317
0.142231
0.055878
0.150974
0.0580844
0.160183
0.0603653
0.169908
0.0626656
0.180165
0.0650404
0.190961
0.0674666
0.202353
0.0699361
0.214339
0.0724679
0.226953
0.0249033
0.0466434
0.0260555
0.0498346
0.0272542
0.0532234
0.0284997
0.0568213
0.029797
0.0606312
0.031144
0.0646734
0.0325417
0.0689576
0.0339979
0.0734947
0.0354983
0.0783023
0.0370581
0.0833913
0.0386695
0.0887741
0.0403411
0.0944766
0.0420615
0.100498
0.0438494
0.106862
0.0456908
0.113591
0.0475856
0.120704
0.0495361
0.128212
0.0515483
0.136137
0.0536122
0.144497
0.0557375
0.153321
0.0579142
0.162634
0.0601434
0.17243
0.0624339
0.182771
0.0647705
0.193657
0.0671501
0.205139
0.0695814
0.217225
0.0720617
0.229941
0.0238666
0.0446751
0.0249709
0.047728
0.0261218
0.050967
0.0273159
0.0544073
0.028563
0.0580553
0.0298536
0.0619217
0.0311975
0.0660176
0.03259
0.0703655
0.0340331
0.07496
0.035532
0.0798285
0.0370774
0.0849834
0.0386858
0.0904294
0.040343
0.0961951
0.0420528
0.102295
0.0438187
0.108734
0.0456407
0.115535
0.0475185
0.122722
0.0494493
0.130311
0.0514345
0.138315
0.0534738
0.14676
0.0555695
0.155666
0.0577202
0.165057
0.0599117
0.174952
0.062164
0.185378
0.064454
0.196354
0.0668088
0.207912
0.0691885
0.220098
0.0716157
0.232901
0.0228719
0.0427947
0.0239304
0.0457156
0.0250339
0.0488159
0.0261809
0.052102
0.027381
0.0555892
0.0286151
0.0592938
0.0299053
0.0632139
0.0312426
0.0673649
0.0326334
0.0717652
0.0340635
0.0764284
0.0355516
0.0813543
0.0370954
0.0865738
0.0386831
0.0920893
0.040326
0.0979219
0.0420265
0.104087
0.0437767
0.110598
0.0455804
0.117474
0.0474362
0.124735
0.0493514
0.132394
0.0513119
0.140477
0.0533266
0.149003
0.0553939
0.157992
0.0575037
0.167465
0.0596738
0.177443
0.0618709
0.187961
0.0641361
0.199026
0.0664259
0.210675
0.0687759
0.222938
0.0711333
0.235847
0.0219192
0.0409973
0.0229348
0.0437903
0.0239934
0.046756
0.0250945
0.0499023
0.0262418
0.0532413
0.0274257
0.0567786
0.0286708
0.0605282
0.029953
0.0645035
0.0312801
0.0687183
0.0326565
0.0731722
0.0340886
0.0778914
0.0355664
0.0828833
0.0370995
0.0881574
0.0386792
0.0937362
0.0403114
0.0996369
0.0419912
0.105873
0.0437272
0.112451
0.0455102
0.119399
0.0473477
0.126738
0.0492346
0.134471
0.0511718
0.142631
0.0531632
0.151234
0.0551946
0.160301
0.0572784
0.16986
0.0594031
0.179911
0.0615799
0.190517
0.0637851
0.201667
0.0660267
0.213424
0.0683068
0.225765
0.0706344
0.238751
0.021006
0.0392793
0.0219808
0.0419514
0.0229955
0.0447882
0.0240522
0.0477984
0.0251509
0.0509931
0.0262933
0.0543736
0.0274805
0.0579689
0.028709
0.0617723
0.0299859
0.0657977
0.0313149
0.0700598
0.0326897
0.0745711
0.0341102
0.0793477
0.0355787
0.0844041
0.0370924
0.0897442
0.0386578
0.0953898
0.0402771
0.101351
0.0419462
0.107654
0.0436588
0.114303
0.0454298
0.121317
0.0472467
0.128726
0.0491053
0.136538
0.0510192
0.144775
0.052976
0.153453
0.0549814
0.162598
0.0570293
0.172234
0.0591122
0.182378
0.0612473
0.193055
0.0634093
0.204285
0.0656178
0.216113
0.0678447
0.228554
0.0700926
0.241637
1.2013e-05
5.17097e-05
0.0201312
0.037639
0.0210647
0.0401954
0.0220395
0.0429073
0.0230524
0.045788
0.0241077
0.0488416
0.0252051
0.0520813
0.0263408
0.0555134
0.0275241
0.0591538
0.0287509
0.0630073
0.0300262
0.0670864
0.0313422
0.0714073
0.0327003
0.075981
0.0341128
0.0808135
0.0355719
0.0859246
0.0370791
0.0913229
0.0386338
0.0970331
0.040236
0.103061
0.0418859
0.109427
0.0435842
0.116148
0.0453283
0.123236
0.0471218
0.13071
0.0489671
0.13859
0.0508478
0.146904
0.0527736
0.15566
0.0547458
0.164882
0.0567578
0.174588
0.0588084
0.184817
0.060895
0.195569
0.0630138
0.206888
0.0651607
0.218797
0.0673362
0.231311
0.0695443
0.244463
2.28223e-05
6.55408e-05
1.69501e-05
3.47584e-05
0.0192929
0.0360678
0.0201901
0.0385136
0.0211236
0.0411113
0.0220936
0.0438661
0.0231065
0.0467892
0.0241589
0.0498878
0.0252481
0.0531741
0.0263849
0.0566526
0.0275665
0.0603382
0.0287866
0.0642468
0.0300488
0.0683798
0.0313596
0.072748
0.0327197
0.0773741
0.0341192
0.0822663
0.0355653
0.0874383
0.0370568
0.0928999
0.0385972
0.098672
0.0401865
0.104761
0.0418193
0.111192
0.0434957
0.117981
0.0452228
0.125135
0.0469894
0.132687
0.0488014
0.140636
0.0506575
0.14902
0.0525564
0.15785
0.0544913
0.167148
0.0564625
0.176934
0.0584758
0.187236
0.0605094
0.198073
0.0625901
0.209459
0.0646889
0.221444
0.0668063
0.234049
0.0689397
0.247279
3.24729e-05
7.36591e-05
3.21162e-05
5.03719e-05
2.64806e-05
8.27594e-06
0.0184905
0.0345694
0.0193485
0.0369094
0.0202452
0.0393921
0.0211773
0.0420276
0.0221483
0.0448243
0.0231578
0.0477903
0.0242059
0.0509299
0.0252948
0.0542642
0.0264263
0.0577929
0.0276012
0.0615236
0.0288147
0.065481
0.0300716
0.0696677
0.0313744
0.0740934
0.0327179
0.0787754
0.0341066
0.083725
0.0355448
0.0889503
0.0370233
0.0944737
0.0385508
0.100308
0.0401181
0.106462
0.0417353
0.112952
0.0433947
0.119809
0.0450962
0.127028
0.0468395
0.134649
0.0486246
0.142669
0.0504561
0.15112
0.052319
0.160022
0.0542194
0.169391
0.0561547
0.179255
0.0581195
0.189626
0.0601127
0.200551
0.0621318
0.212016
0.0641741
0.224076
0.066235
0.236753
0.0683104
0.250062
4.10662e-05
7.99243e-05
4.57475e-05
6.00263e-05
4.99273e-05
2.6922e-05
4.04611e-05
-3.21875e-05
0.0177206
0.0331362
0.0185443
0.0353735
0.0194033
0.0377513
0.0202975
0.0402718
0.0212292
0.0429468
0.0221983
0.0457839
0.0232044
0.0487919
0.0242517
0.051973
0.0253366
0.0553538
0.026465
0.0589291
0.0276233
0.0627149
0.0288365
0.0667162
0.0300868
0.0709552
0.0313765
0.0754347
0.0327157
0.0801664
0.0340956
0.0851742
0.0355181
0.0904555
0.0369873
0.0960372
0.0384927
0.101933
0.0400458
0.108151
0.0416374
0.114709
0.0432775
0.121628
0.0449557
0.128912
0.0466758
0.136598
0.0484326
0.144693
0.0502259
0.153213
0.0520579
0.162184
0.0539238
0.171622
0.0558218
0.181553
0.0577471
0.191992
0.0596998
0.202983
0.0616637
0.214527
0.0636529
0.226658
0.0656607
0.239403
0.0676647
0.252803
4.87321e-05
8.50284e-05
5.79444e-05
6.77262e-05
7.03414e-05
3.96105e-05
8.17062e-05
-1.43254e-05
5.52878e-05
-8.74772e-05
0.0169832
0.0317649
0.0177741
0.0339063
0.0185973
0.0361795
0.0194552
0.0385936
0.020349
0.041152
0.0212787
0.0438663
0.0222445
0.0467438
0.0232478
0.0497958
0.0242848
0.0530249
0.025373
0.0564458
0.0264875
0.0600648
0.0276519
0.0638995
0.0288521
0.0679509
0.0300944
0.0722374
0.0313775
0.0767729
0.032705
0.081557
0.0340743
0.086618
0.0354802
0.0919626
0.0369287
0.0976012
0.0384262
0.103553
0.0399587
0.10983
0.0415346
0.116452
0.0431514
0.123432
0.0448028
0.130785
0.0464959
0.138535
0.0482281
0.14669
0.0499882
0.155283
0.051787
0.16432
0.0536106
0.173833
0.0554628
0.183837
0.0573396
0.194352
0.0592434
0.205403
0.0611659
0.217014
0.0630887
0.229231
0.0650251
0.242043
0.066976
0.255497
5.56818e-05
8.93489e-05
6.88981e-05
7.40737e-05
8.83738e-05
4.96925e-05
0.000117611
3.70429e-06
0.000120798
-7.98367e-05
6.50129e-05
-0.000152491
0.0162773
0.0304544
0.0170345
0.0325046
0.0178248
0.0346788
0.0186475
0.0369872
0.0195059
0.0394367
0.0203953
0.0420354
0.0213226
0.0447882
0.0222859
0.0477057
0.0232863
0.0507942
0.0243294
0.0540684
0.0253974
0.057536
0.0265152
0.0612016
0.0276715
0.06508
0.0288615
0.0691838
0.0300957
0.0735191
0.0313723
0.0781056
0.0326804
0.0829508
0.0340367
0.0880615
0.0354333
0.093458
0.0368689
0.0991586
0.0383458
0.105165
0.0398612
0.111503
0.0414166
0.118187
0.0430079
0.125227
0.0446373
0.132643
0.0463035
0.140459
0.0479962
0.148682
0.0497317
0.157338
0.0514846
0.166446
0.0532724
0.176024
0.0550887
0.186088
0.0569183
0.196677
0.0587637
0.207805
0.0606167
0.219486
0.0625048
0.231751
0.0643748
0.244644
0.0662494
0.258154
6.20639e-05
9.31169e-05
7.88147e-05
7.94314e-05
0.000104398
5.8048e-05
0.000148215
1.90879e-05
0.000182508
-5.80065e-05
0.00014241
-0.000157234
5.62046e-05
-0.000208696
0.0155993
0.0292023
0.0163267
0.0311621
0.0170849
0.0332446
0.0178722
0.035454
0.0186959
0.0377973
0.0195504
0.0402816
0.0204412
0.0429168
0.0213661
0.045708
0.0223271
0.0486649
0.0233237
0.0518
0.024355
0.0551108
0.0254277
0.0586235
0.0265338
0.0623393
0.0276799
0.0662615
0.0288618
0.0704178
0.0300859
0.0748055
0.0313494
0.0794367
0.032656
0.0843315
0.0339965
0.0894983
0.0353753
0.0949517
0.0367952
0.100709
0.0382528
0.106774
0.039749
0.113171
0.0412838
0.119911
0.0428468
0.127018
0.0444479
0.134499
0.0460859
0.14237
0.0477517
0.150662
0.0494477
0.159375
0.0511748
0.168544
0.0529194
0.178193
0.0546836
0.188323
0.0564661
0.198975
0.0582693
0.210153
0.0600746
0.221916
0.0618828
0.234243
0.0636898
0.247203
0.0654831
0.260782
6.79994e-05
9.6499e-05
8.78964e-05
8.40345e-05
0.000118804
6.50248e-05
0.000174299
3.19626e-05
0.000237888
-3.62925e-05
0.000220777
-0.000136373
0.000117705
-0.000218735
2.99763e-05
-0.000238672
0.0149513
0.0280035
0.015648
0.0298811
0.0163734
0.0318736
0.0171309
0.0339858
0.0179203
0.0362296
0.0187404
0.0386072
0.019595
0.0411279
0.0204819
0.0438009
0.0214049
0.0466301
0.0223585
0.0496301
0.0233533
0.0528017
0.0243793
0.0561591
0.0254417
0.0597156
0.026544
0.0634752
0.0276821
0.0674412
0.0288623
0.0716413
0.0300798
0.0760751
0.0313289
0.0807637
0.0326162
0.0857118
0.0339416
0.0909319
0.0353096
0.0964373
0.0367153
0.102247
0.0381523
0.108371
0.0396243
0.114831
0.0411308
0.121627
0.0426782
0.128787
0.0442525
0.136332
0.0458572
0.144264
0.0474935
0.152617
0.0491499
0.1614
0.0508339
0.17063
0.0525413
0.180335
0.0542583
0.190531
0.055995
0.201249
0.0577335
0.212494
0.0594881
0.224311
0.0612263
0.236706
0.0629753
0.249711
0.0647105
0.263358
7.36111e-05
9.95652e-05
9.63425e-05
8.80523e-05
0.000131863
7.09753e-05
0.000196692
4.26312e-05
0.000286144
-1.62938e-05
0.000297727
-0.000113243
0.000184576
-0.000203244
6.02814e-05
-0.00024904
3.41294e-06
-0.000242085
0.0143292
0.0268596
0.0149962
0.0286553
0.0156938
0.0305606
0.0164202
0.0325844
0.0171762
0.0347299
0.017965
0.037005
0.0187837
0.0394185
0.0196363
0.0419736
0.0205193
0.0446865
0.0214389
0.0475497
0.0223936
0.0505897
0.0233781
0.053803
0.0243989
0.057202
0.0254595
0.0608001
0.0265538
0.0646035
0.0276816
0.068622
0.0288516
0.0728695
0.0300497
0.0773543
0.0312923
0.0820876
0.032568
0.0870855
0.0338827
0.0923589
0.0352314
0.0979212
0.0366129
0.103786
0.0380343
0.109961
0.0394893
0.116472
0.0409716
0.123334
0.0424921
0.130548
0.0440395
0.13815
0.0456111
0.146147
0.0472092
0.154557
0.0488311
0.163403
0.0504742
0.172697
0.0521345
0.182459
0.0538071
0.192719
0.055494
0.203489
0.0571817
0.2148
0.0588675
0.226669
0.0605584
0.239123
0.0622177
0.252204
0.0638717
0.265896
7.89333e-05
0.00010243
0.000104254
9.16533e-05
0.000143849
7.60653e-05
0.000216233
5.14338e-05
0.000327252
1.52202e-06
0.000371155
-8.97213e-05
0.000256727
-0.000185395
9.94881e-05
-0.000242451
8.9792e-06
-0.000254607
-1.20122e-05
-0.000230073
0.0137331
0.0257645
0.0143734
0.0274825
0.0150423
0.0293068
0.0157389
0.0312419
0.0164647
0.0332959
0.0172212
0.0354738
0.0180065
0.0377822
0.0188242
0.0402305
0.0196723
0.0428206
0.0205565
0.045569
0.0214682
0.0484752
0.022416
0.0515518
0.0233952
0.0548066
0.0244171
0.0582444
0.0254661
0.0618877
0.0265501
0.065735
0.0276749
0.0697987
0.0288269
0.0740923
0.0300234
0.0786232
0.031248
0.0834076
0.0325144
0.0884537
0.0338112
0.0937791
0.0351421
0.099392
0.0365092
0.105311
0.037905
0.111545
0.0393359
0.118108
0.0407999
0.125026
0.0422835
0.132304
0.0438041
0.139957
0.0453461
0.14801
0.046911
0.156477
0.0484984
0.165378
0.0500971
0.174734
0.051713
0.184553
0.0533371
0.194876
0.0549633
0.205707
0.0565963
0.217071
0.0582224
0.229005
0.0598342
0.241507
0.0614306
0.254645
0.0630166
0.268388
8.40851e-05
0.000105093
0.000111798
9.48853e-05
0.000154989
8.05124e-05
0.000233524
5.87737e-05
0.000361739
1.69467e-05
0.00043927
-6.65938e-05
0.000332824
-0.000165818
0.000147412
-0.000233319
2.48784e-05
-0.000258351
-1.94565e-05
-0.000247163
-1.66696e-05
-0.000213404
0.0131614
0.0247177
0.013776
0.0263618
0.0144172
0.0281075
0.0150846
0.0299611
0.0157816
0.0319249
0.0165063
0.0340108
0.0172608
0.0362194
0.0180457
0.0385608
0.0188609
0.041042
0.0197066
0.0436704
0.0205833
0.0464539
0.0214946
0.0493966
0.0224372
0.0525098
0.0234175
0.0558062
0.0244213
0.0592892
0.0254715
0.0629664
0.0265488
0.066861
0.0276584
0.0709672
0.0288074
0.0753083
0.0299859
0.0798853
0.031204
0.084718
0.032446
0.0898189
0.0337299
0.0951912
0.0350451
0.100856
0.0363867
0.106829
0.0377633
0.113117
0.0391708
0.119737
0.0406057
0.126704
0.0420674
0.13404
0.0435534
0.14175
0.0450586
0.149862
0.0465904
0.158385
0.0481334
0.167342
0.0496962
0.176751
0.05126
0.18663
0.0528384
0.197001
0.0544125
0.207891
0.0559822
0.219311
0.0575463
0.231293
0.0590908
0.243846
0.0606322
0.25703
0.0621186
0.270845
8.90811e-05
0.000107663
0.00011903
9.78603e-05
0.00016547
8.44033e-05
0.000249113
6.49221e-05
0.000390542
2.99704e-05
0.00050075
-4.45338e-05
0.000411127
-0.000144897
0.000203326
-0.000221732
4.95668e-05
-0.000258007
-1.83144e-05
-0.000259493
-3.08807e-05
-0.000232953
-1.65544e-05
-0.00019685
0.0126152
0.0237151
0.0132042
0.0252896
0.0138182
0.0269609
0.0144583
0.0287338
0.015127
0.0306157
0.015823
0.0326082
0.0165472
0.0347244
0.0172992
0.0369659
0.018082
0.0393396
0.0188948
0.0418538
0.0197391
0.0445147
0.0206124
0.0473361
0.0215184
0.0503153
0.0224571
0.0534702
0.0234257
0.0568018
0.0244307
0.06033
0.0254642
0.064051
0.0265349
0.0679845
0.0276364
0.0721382
0.0287703
0.0765239
0.0299372
0.0811521
0.0311345
0.0860295
0.0323701
0.0911788
0.0336333
0.0966031
0.0349306
0.102312
0.036258
0.108335
0.037614
0.114674
0.0389924
0.12135
0.040404
0.128367
0.0418325
0.135761
0.043283
0.143525
0.0447601
0.151692
0.046251
0.160268
0.0477546
0.169284
0.049268
0.178743
0.050786
0.188683
0.0523087
0.199104
0.0538331
0.21004
0.0553458
0.221512
0.0568415
0.233543
0.0583204
0.246158
0.0597675
0.259381
0.0611811
0.273252
9.39993e-05
0.000110143
0.000126063
0.00010063
0.000175474
8.78561e-05
0.000263365
7.01513e-05
0.00041469
4.07735e-05
0.000554764
-2.40432e-05
0.000489687
-0.000123094
0.000266488
-0.000208059
8.27754e-05
-0.000254941
-9.37893e-06
-0.000266943
-3.96162e-05
-0.000250758
-3.30399e-05
-0.000216469
-1.24302e-05
-0.00018442
0.012091
0.0227577
0.0126542
0.024265
0.013244
0.0258637
0.013859
0.0275602
0.0144995
0.0293614
0.0151667
0.031272
0.0158611
0.0332944
0.0165837
0.0354399
0.0173362
0.0377117
0.0181161
0.0401183
0.0189279
0.0426649
0.0197638
0.0453633
0.0206382
0.0482163
0.0215338
0.0512386
0.0224658
0.0544301
0.0234305
0.0578019
0.0244238
0.0613704
0.0254506
0.0651353
0.0265097
0.0691113
0.0276011
0.0733074
0.0287255
0.0777357
0.0298795
0.0824071
0.0310717
0.0873279
0.0322879
0.0925241
0.0335333
0.0980004
0.0348086
0.103762
0.0361117
0.109837
0.0374422
0.116224
0.0388037
0.12295
0.0401798
0.13002
0.0415828
0.137461
0.0430038
0.145282
0.0444427
0.153501
0.0458906
0.162132
0.0473547
0.171197
0.048821
0.180708
0.050296
0.190695
0.051764
0.201173
0.0532241
0.212162
0.0546684
0.223685
0.0561032
0.23576
0.0575062
0.24842
0.0588867
0.261675
0.060214
0.275596
9.88864e-05
0.000112534
0.000132992
0.000103213
0.000185096
9.10067e-05
0.000276605
7.46157e-05
0.000435205
4.96359e-05
0.000601024
-5.48762e-06
0.000566466
-0.000100822
0.000335911
-0.000192517
0.000124136
-0.00024942
6.80313e-06
-0.000271123
-4.24743e-05
-0.000264086
-4.79352e-05
-0.000235864
-2.59422e-05
-0.000202958
-4.62617e-06
-0.000179795
0.0115877
0.0218419
0.0121293
0.0232827
0.0126939
0.0248152
0.0132826
0.0264401
0.0138974
0.0281623
0.0145378
0.0299902
0.015206
0.0319271
0.0158983
0.0339798
0.01662
0.0361561
0.0173675
0.0384604
0.0181454
0.0409009
0.0189493
0.0434794
0.0197892
0.0462123
0.0206483
0.0491018
0.0215516
0.0521528
0.0224747
0.055386
0.0234327
0.0587931
0.0244207
0.0624004
0.0254359
0.0662091
0.0264898
0.0702226
0.0275681
0.0744648
0.028676
0.0789392
0.029822
0.0836568
0.0309899
0.088626
0.0321868
0.0938706
0.0334179
0.0993911
0.0346718
0.105201
0.035958
0.111321
0.0372643
0.117764
0.0385888
0.124541
0.0399381
0.131665
0.041313
0.139152
0.0426985
0.147026
0.044098
0.155293
0.0455114
0.163975
0.0469261
0.173092
0.0483494
0.182655
0.0497696
0.19269
0.0511846
0.203213
0.0525851
0.214245
0.0539711
0.225817
0.0553339
0.237932
0.0566637
0.250643
0.0579486
0.263941
0.0592124
0.277896
0.00010384
0.000114891
0.00013984
0.000105686
0.000194487
9.38216e-05
0.000289107
7.85043e-05
0.000452907
5.69138e-05
0.000639788
1.08719e-05
0.000639415
-7.84374e-05
0.000410291
-0.000175202
0.000173291
-0.000241672
3.00861e-05
-0.000272703
-3.94681e-05
-0.00027413
-5.97239e-05
-0.000252298
-4.03926e-05
-0.000221414
-1.01478e-05
-0.000197438
2.77699e-06
-0.000182573
0.0111075
0.0209641
0.0116248
0.0223464
0.0121657
0.0238108
0.0127323
0.0253655
0.0133218
0.0270157
0.013936
0.0287641
0.0145754
0.0306208
0.0152394
0.032586
0.0159333
0.0346665
0.0166519
0.0368717
0.0173989
0.0392068
0.0181729
0.0416772
0.0189738
0.0442948
0.0198064
0.0470542
0.0206716
0.0499818
0.0215566
0.0530709
0.0224758
0.0563428
0.0234236
0.0597902
0.0244049
0.0634313
0.0254149
0.0672839
0.0264507
0.0713399
0.0275175
0.0756233
0.0286188
0.0801424
0.0297419
0.0849048
0.0308955
0.0899173
0.0320859
0.0952026
0.0332928
0.10077
0.0345247
0.106635
0.035783
0.112803
0.0370624
0.11929
0.0383665
0.126113
0.0396889
0.133289
0.0410283
0.140822
0.042378
0.148746
0.0437408
0.157064
0.0451061
0.165795
0.04648
0.174961
0.0478527
0.184572
0.0492186
0.194656
0.0505753
0.205223
0.0519188
0.216297
0.0532415
0.22791
0.0545248
0.240071
0.055785
0.252806
0.0569984
0.266155
0.058163
0.280125
0.000108799
0.000117276
0.000146678
0.000108052
0.000203708
9.64646e-05
0.000301016
8.19112e-05
0.000468551
6.28601e-05
0.000671787
2.49149e-05
0.000706921
-5.66338e-05
0.000488492
-0.000156639
0.00023004
-0.000231951
6.06797e-05
-0.000272266
-3.06066e-05
-0.000281565
-6.75795e-05
-0.000266275
-5.46029e-05
-0.000238088
-1.7005e-05
-0.000214558
5.96381e-06
-0.000200627
6.12001e-06
-0.000188694
0.0106451
0.0201258
0.0111413
0.0214477
0.0116605
0.0228516
0.0122034
0.0243397
0.0127677
0.0259196
0.0133577
0.027594
0.0139718
0.0293677
0.0146106
0.0312497
0.0152756
0.0332437
0.0159644
0.035354
0.0166805
0.0375901
0.0174246
0.0399551
0.0181941
0.042457
0.0189936
0.0451076
0.0198208
0.047905
0.0206706
0.0508678
0.0215582
0.0539885
0.0224693
0.0572971
0.0234118
0.0607833
0.0243829
0.0644633
0.0253813
0.0683534
0.0264055
0.0724519
0.0274657
0.0767764
0.028549
0.0813353
0.0296592
0.086141
0.0308013
0.091202
0.031961
0.0965343
0.0331487
0.102146
0.0343627
0.108055
0.0356006
0.114264
0.036853
0.120804
0.038128
0.127674
0.0394186
0.134898
0.0407185
0.142482
0.0420378
0.150449
0.0433561
0.158814
0.044687
0.167588
0.046013
0.176801
0.0473336
0.186457
0.0486489
0.196582
0.0499486
0.207193
0.0512215
0.218317
0.052476
0.229958
0.0536961
0.24216
0.0548718
0.254933
0.0559994
0.268318
0.05705
0.28231
0.000113878
0.000119662
0.000153578
0.000110376
0.000212859
9.89e-05
0.000312574
8.49063e-05
0.000482661
6.78005e-05
0.000697975
3.66718e-05
0.000767729
-3.58931e-05
0.0005687
-0.000136841
0.000293713
-0.000220311
9.85677e-05
-0.000269839
-1.57813e-05
-0.000287091
-7.08756e-05
-0.000278269
-6.75334e-05
-0.000253345
-2.49847e-05
-0.000230109
8.59041e-06
-0.000217186
1.31455e-05
-0.000207654
5.97364e-06
-0.000194669
0.0102016
0.019324
0.0106777
0.0205894
0.0111758
0.0219324
0.011696
0.023359
0.0122381
0.0248693
0.0128034
0.0264739
0.0133933
0.0281725
0.0140047
0.0299735
0.014643
0.0318823
0.0153054
0.0339026
0.0159932
0.0360413
0.0167089
0.0383058
0.0174494
0.0406998
0.018218
0.0432326
0.0190121
0.0459162
0.0198304
0.0487453
0.0206799
0.0517461
0.0215557
0.0549021
0.022463
0.0582459
0.0233952
0.061771
0.0243547
0.0654899
0.0253414
0.0694175
0.0263591
0.0735585
0.0274027
0.0779228
0.0284731
0.0825214
0.0295717
0.0873706
0.0306845
0.0924786
0.0318314
0.0978515
0.0330048
0.103504
0.0341933
0.109462
0.0353992
0.115718
0.0366275
0.122304
0.0378757
0.129217
0.0391295
0.136487
0.0403976
0.144122
0.0416738
0.152131
0.0429591
0.160542
0.0442406
0.16936
0.0455159
0.178619
0.0467885
0.188317
0.0480469
0.198484
0.049281
0.209133
0.0505007
0.220293
0.051682
0.231972
0.0528275
0.244204
0.053925
0.257007
0.0549682
0.2704
0.0559526
0.284423
0.000119074
0.000122117
0.000160582
0.000112657
0.000222018
0.000101217
0.000323865
8.7609e-05
0.000495649
7.19182e-05
0.000719453
4.63224e-05
0.000821094
-1.66931e-05
0.00064911
-0.000116303
0.000364038
-0.000207167
0.00014376
-0.000265504
5.12448e-06
-0.000290745
-6.9714e-05
-0.000288253
-7.83904e-05
-0.000267413
-3.36087e-05
-0.000244722
1.06624e-05
-0.000232182
2.06789e-05
-0.000224721
1.22258e-05
-0.000213908
3.82841e-06
-0.000198498
0.00977937
0.0185553
0.0102342
0.0197676
0.0107116
0.0210536
0.0112106
0.0224177
0.0117311
0.0238661
0.0122731
0.0253996
0.0128382
0.027029
0.0134249
0.0287524
0.0140389
0.0305776
0.0146741
0.0325137
0.015335
0.0345608
0.0160208
0.0367294
0.0167304
0.0390248
0.0174665
0.0414513
0.0182276
0.0440171
0.0190193
0.0467273
0.0198372
0.0495879
0.0206829
0.052619
0.0215499
0.0558152
0.0224469
0.0591943
0.023366
0.0627597
0.0243202
0.0665111
0.0253003
0.0704762
0.0263014
0.0746598
0.027332
0.0790638
0.0283845
0.0837087
0.0294602
0.0885948
0.0305687
0.0937413
0.0316914
0.0991649
0.032837
0.10486
0.0340013
0.11086
0.035188
0.117158
0.0363909
0.123789
0.0376008
0.130745
0.0388278
0.138057
0.0400606
0.145735
0.0412988
0.153791
0.0425346
0.162248
0.0437668
0.171109
0.0450041
0.180403
0.0462197
0.190144
0.0474189
0.200346
0.0485948
0.211039
0.0497426
0.222232
0.0508521
0.233948
0.0519195
0.24621
0.0529362
0.259039
0.0538936
0.272459
0.0548098
0.286486
0.000124443
0.000124605
0.000167762
0.000114937
0.000231266
0.000103408
0.000335039
9.00425e-05
0.000507867
7.53908e-05
0.000737333
5.4038e-05
0.000866786
6.29487e-07
0.000727763
-9.53464e-05
0.000440128
-0.000192393
0.000196234
-0.000259641
3.24558e-05
-0.000292835
-6.36815e-05
-0.000296778
-8.6437e-05
-0.000280207
-4.22606e-05
-0.000258762
1.23625e-05
-0.000246423
2.88083e-05
-0.000240313
1.9467e-05
-0.000231963
7.57876e-06
-0.000217659
1.59018e-07
-0.000198658
0.00937071
0.0178215
0.00980912
0.0189803
0.0102658
0.0202134
0.0107446
0.0215196
0.0112434
0.0229054
0.0117638
0.0243754
0.0123056
0.0259322
0.0128707
0.0275832
0.0134573
0.029334
0.0140671
0.0311845
0.0147023
0.0331464
0.0153602
0.0352214
0.0160429
0.0374169
0.0167516
0.0397397
0.0174818
0.0421971
0.018244
0.0447925
0.0190238
0.0475407
0.0198328
0.050438
0.0206681
0.0535007
0.0215349
0.0567272
0.0224201
0.0601401
0.0233405
0.0637394
0.0242731
0.0675383
0.025243
0.0715346
0.0262325
0.0757593
0.0272451
0.0802031
0.0282861
0.0848828
0.0293525
0.089811
0.0304345
0.0949981
0.031538
0.100464
0.0326566
0.106205
0.0338068
0.112242
0.034958
0.118591
0.0361304
0.125259
0.0373099
0.132263
0.0385015
0.139616
0.0396948
0.147339
0.0408949
0.155431
0.0420891
0.163926
0.0432819
0.172832
0.0444586
0.182164
0.0456187
0.191944
0.0467622
0.202179
0.0478776
0.212904
0.0489573
0.224127
0.049995
0.235872
0.0509843
0.248162
0.0519166
0.261016
0.0527611
0.274508
0.0535652
0.28851
0.000130039
0.000127231
0.000175124
0.000117242
0.000240633
0.000105569
0.00034616