/*--------------------------------*- C++ -*----------------------------------*\
  =========                 |
  \\      /  F ield         | OpenFOAM: The Open Source CFD Toolbox
   \\    /   O peration     | Website:  https://openfoam.org
    \\  /    A nd           | Version:  7
     \\/     M anipulation  |
\*---------------------------------------------------------------------------*/
FoamFile
{
    version     2.0;
    format      ascii;
    class       volVectorField;
    location    "400";
    object      U;
}
// * * * * * * * * * * * * * * * * * * * * * * * * * * * * * * * * * * * * * //

dimensions      [0 1 -1 0 0 0 0];

internalField   nonuniform List<vector> 
23064
(
(49.7282 13.3384 -2.66682e-17)
(49.7327 13.3651 1.94892e-18)
(49.7284 13.3384 0)
(49.7377 13.3915 2.44852e-17)
(49.7333 13.365 3.53399e-18)
(49.7287 13.3384 -2.14192e-18)
(49.7425 13.4181 2.38965e-17)
(49.7386 13.3913 -2.33462e-17)
(49.7339 13.3649 2.2098e-17)
(49.729 13.3384 8.47137e-19)
(49.7473 13.4452 8.0327e-19)
(49.7437 13.4178 -1.09285e-17)
(49.7395 13.3911 1.56351e-17)
(49.7346 13.3648 -8.58673e-19)
(49.7294 13.3383 6.6017e-19)
(49.7524 13.4727 0)
(49.749 13.4448 8.40044e-18)
(49.745 13.4175 1.39038e-17)
(49.7405 13.3908 -1.54042e-17)
(49.7352 13.3647 -7.03078e-19)
(49.7297 13.3383 0)
(49.7574 13.5008 6.22436e-19)
(49.7544 13.4722 5.35255e-19)
(49.7506 13.4444 -8.926e-18)
(49.7463 13.4171 -2.48954e-17)
(49.7414 13.3906 -8.22242e-18)
(49.7359 13.3645 4.19056e-19)
(49.7301 13.3382 -3.0265e-18)
(49.7624 13.5295 1.89966e-17)
(49.7598 13.5003 -1.01612e-18)
(49.7564 13.4717 0)
(49.7523 13.4439 9.6814e-18)
(49.7476 13.4167 1.03098e-17)
(49.7424 13.3903 1.23165e-17)
(49.7366 13.3643 0)
(49.7305 13.3382 3.01959e-18)
(49.7674 13.5591 1.48604e-17)
(49.7652 13.529 -7.60866e-18)
(49.7622 13.4997 0)
(49.7584 13.4712 3.19376e-18)
(49.7539 13.4434 -8.7179e-18)
(49.7489 13.4163 -2.49431e-19)
(49.7433 13.3899 -5.76431e-18)
(49.7373 13.3641 -7.01565e-20)
(49.731 13.3381 -3.0914e-18)
(49.7723 13.5894 4.39908e-19)
(49.7707 13.5584 -6.59393e-18)
(49.7681 13.5283 2.73579e-18)
(49.7647 13.4991 1.87186e-18)
(49.7605 13.4706 -3.47264e-18)
(49.7556 13.4429 2.60612e-19)
(49.7502 13.4158 0)
(49.7443 13.3896 -9.27637e-19)
(49.7381 13.3639 4.18395e-18)
(49.7314 13.338 1.84202e-18)
(49.7771 13.6208 0)
(49.776 13.5888 1.35301e-18)
(49.774 13.5577 -6.46217e-19)
(49.771 13.5276 -2.66548e-18)
(49.7672 13.4984 -1.62829e-18)
(49.7626 13.4699 -1.73761e-18)
(49.7573 13.4423 0)
(49.7515 13.4153 -8.91998e-20)
(49.7453 13.3892 -3.28572e-18)
(49.7389 13.3636 -3.3571e-18)
(49.7319 13.3379 8.69397e-18)
(49.7818 13.6531 1.17308e-18)
(49.7813 13.6201 0)
(49.7798 13.588 9.40748e-19)
(49.7773 13.557 5.9024e-19)
(49.7739 13.5268 1.26756e-19)
(49.7697 13.4976 -3.60885e-19)
(49.7647 13.4692 7.30446e-18)
(49.7591 13.4416 7.04632e-18)
(49.7529 13.4148 0)
(49.7463 13.3888 5.365e-18)
(49.7396 13.3634 0)
(49.7324 13.3378 -8.58115e-18)
(49.7864 13.6866 0)
(49.7865 13.6524 -2.54326e-18)
(49.7856 13.6193 0)
(49.7836 13.5872 -1.95658e-18)
(49.7807 13.5561 5.23854e-18)
(49.7768 13.526 4.90037e-18)
(49.7722 13.4968 5.58713e-18)
(49.7668 13.4684 3.7578e-18)
(49.7608 13.4409 -6.56971e-18)
(49.7543 13.4142 -1.09125e-17)
(49.7474 13.3883 6.9044e-19)
(49.7405 13.3631 1.2969e-17)
(49.733 13.3376 -1.4559e-18)
(49.7908 13.7213 -4.33795e-18)
(49.7916 13.6858 2.80174e-19)
(49.7913 13.6516 1.14385e-17)
(49.7899 13.6184 7.77112e-18)
(49.7874 13.5863 -8.24016e-18)
(49.7841 13.5552 -4.86242e-18)
(49.7798 13.5251 -4.69151e-18)
(49.7747 13.4959 1.02325e-17)
(49.769 13.4676 -9.02709e-18)
(49.7626 13.4401 -8.55626e-19)
(49.7557 13.4135 1.00525e-17)
(49.7484 13.3878 1.37396e-17)
(49.7413 13.3627 -1.4664e-17)
(49.7335 13.3375 1.74874e-18)
(49.795 13.7572 1.39322e-19)
(49.7965 13.7205 4.25957e-18)
(49.7969 13.685 -6.7066e-18)
(49.7961 13.6506 -8.37286e-18)
(49.7942 13.6174 3.26336e-18)
(49.7913 13.5853 1.85723e-17)
(49.7875 13.5542 1.63322e-19)
(49.7828 13.5241 -1.52644e-18)
(49.7773 13.4949 -1.60677e-17)
(49.7711 13.4667 1.87386e-17)
(49.7644 13.4393 0)
(49.7571 13.4128 -1.45506e-19)
(49.7495 13.3873 -1.25088e-17)
(49.7421 13.3624 2.19166e-18)
(49.7341 13.3373 0)
(49.799 13.7946 -4.57572e-19)
(49.8013 13.7565 0)
(49.8023 13.7196 9.38745e-18)
(49.8022 13.684 1.50221e-17)
(49.8009 13.6496 -9.80446e-19)
(49.7986 13.6164 -1.12701e-17)
(49.7952 13.5842 -1.12818e-17)
(49.7909 13.5531 -1.67618e-19)
(49.7858 13.523 1.3115e-17)
(49.7799 13.4939 -2.25678e-17)
(49.7733 13.4657 -1.76168e-17)
(49.7662 13.4385 1.11252e-18)
(49.7585 13.4121 2.17372e-17)
(49.7505 13.3867 -2.25731e-17)
(49.743 13.362 4.22311e-17)
(49.7348 13.337 4.55412e-17)
(49.8029 13.8334 0)
(49.8059 13.7938 0)
(49.8077 13.7555 -5.80003e-19)
(49.8082 13.7186 -9.38449e-18)
(49.8075 13.6829 -7.14925e-18)
(49.8058 13.6485 0)
(49.8029 13.6152 -1.85695e-17)
(49.7991 13.583 8.3526e-19)
(49.7944 13.5519 -9.55445e-19)
(49.7888 13.5218 -1.17553e-17)
(49.7825 13.4928 4.71808e-17)
(49.7755 13.4647 -2.52329e-17)
(49.768 13.4375 -2.55531e-17)
(49.7599 13.4113 -2.02302e-17)
(49.7516 13.3861 4.30351e-17)
(49.7439 13.3615 -4.17519e-17)
(49.7355 13.3368 -4.27338e-17)
(49.8064 13.8738 -2.31655e-17)
(49.8103 13.8326 -1.46618e-17)
(49.8129 13.7929 0)
(49.8141 13.7545 1.5828e-18)
(49.8141 13.7175 0)
(49.8129 13.6818 2.37728e-17)
(49.8107 13.6472 1.15562e-18)
(49.8074 13.6139 1.85138e-17)
(49.8031 13.5817 2.19286e-18)
(49.7979 13.5506 1.74729e-17)
(49.7919 13.5206 1.74641e-18)
(49.7851 13.4916 -2.62427e-17)
(49.7777 13.4636 2.49237e-17)
(49.7698 13.4365 2.3945e-17)
(49.7614 13.4105 -2.63987e-17)
(49.7527 13.3854 -2.58969e-17)
(49.7448 13.3611 0)
(49.7362 13.3365 5.57845e-17)
(49.8098 13.9158 7.86171e-18)
(49.8145 13.873 1.52284e-17)
(49.8179 13.8317 3.36533e-17)
(49.8199 13.7918 -9.06597e-19)
(49.8206 13.7533 0)
(49.82 13.7162 -9.32275e-19)
(49.8184 13.6804 -2.3437e-17)
(49.8156 13.6459 -1.3489e-18)
(49.8118 13.6125 -1.24801e-18)
(49.807 13.5804 1.35794e-18)
(49.8014 13.5493 -3.70294e-17)
(49.7949 13.5193 -2.3251e-18)
(49.7877 13.4903 -2.16376e-18)
(49.7799 13.4624 -2.02639e-18)
(49.7716 13.4355 3.05871e-17)
(49.7629 13.4096 2.94102e-17)
(49.7538 13.3847 -2.46433e-17)
(49.7457 13.3606 -3.38095e-18)
(49.7369 13.3362 -5.54729e-17)
(49.8129 13.9596 1.12419e-17)
(49.8185 13.915 7.40566e-19)
(49.8227 13.872 0)
(49.8255 13.8306 -1.66672e-17)
(49.8269 13.7906 0)
(49.8271 13.7521 2.1093e-18)
(49.826 13.7149 -3.31589e-17)
(49.8238 13.679 -1.94121e-18)
(49.8205 13.6444 2.81537e-17)
(49.8163 13.6111 2.61421e-17)
(49.811 13.5789 2.38682e-17)
(49.8049 13.5478 2.19598e-17)
(49.798 13.5179 2.25992e-18)
(49.7904 13.489 -3.58415e-17)
(49.7822 13.4612 3.33175e-17)
(49.7735 13.4344 -6.59781e-17)
(49.7643 13.4086 -3.65385e-18)
(49.755 13.384 5.84338e-17)
(49.7467 13.36 3.68194e-18)
(49.7377 13.3359 0)
(49.8157 14.0051 -1.4995e-17)
(49.8223 13.9587 1.34195e-17)
(49.8273 13.914 -8.38477e-19)
(49.8309 13.8709 2.36104e-17)
(49.8331 13.8293 1.46858e-18)
(49.834 13.7893 -1.18606e-18)
(49.8336 13.7506 1.99444e-17)
(49.832 13.7134 3.47253e-17)
(49.8293 13.6775 2.1506e-18)
(49.8255 13.6429 -2.95002e-17)
(49.8207 13.6095 -2.5578e-17)
(49.815 13.5773 -2.52366e-17)
(49.8084 13.5463 0)
(49.8011 13.5164 -4.75969e-17)
(49.793 13.4876 3.98509e-17)
(49.7844 13.4599 -3.53985e-17)
(49.7754 13.4332 3.55522e-17)
(49.7658 13.4076 0)
(49.7561 13.3832 -3.4397e-17)
(49.7476 13.3595 -6.62488e-17)
(49.7385 13.3355 -7.32943e-17)
(49.8182 14.0526 0)
(49.8257 14.0043 -2.07629e-18)
(49.8317 13.9577 -1.30981e-17)
(49.8362 13.9129 0)
(49.8392 13.8696 -5.37952e-17)
(49.8408 13.8279 0)
(49.8411 13.7878 0)
(49.8402 13.7491 -1.96675e-17)
(49.8381 13.7118 3.14433e-19)
(49.8348 13.6758 0)
(49.8305 13.6412 -3.3983e-17)
(49.8253 13.6078 1.7455e-18)
(49.8191 13.5756 -2.86372e-17)
(49.812 13.5446 2.96512e-18)
(49.8042 13.5148 -4.38673e-18)
(49.7957 13.4861 5.4108e-18)
(49.7867 13.4585 -4.43792e-17)
(49.7772 13.432 0)
(49.7674 13.4065 -3.69551e-19)
(49.7573 13.3824 4.4226e-18)
(49.7486 13.3588 -5.06726e-18)
(49.7393 13.3351 1.35105e-16)
(49.8204 14.102 0)
(49.8289 14.0518 -1.23696e-18)
(49.8359 14.0033 3.63688e-17)
(49.8412 13.9566 3.49081e-17)
(49.8451 13.9116 3.25602e-17)
(49.8475 13.8682 2.72483e-17)
(49.8485 13.8264 0)
(49.8483 13.7861 0)
(49.8468 13.7474 -5.02757e-17)
(49.8441 13.71 0)
(49.8404 13.674 0)
(49.8356 13.6394 3.58921e-17)
(49.8298 13.606 0)
(49.8231 13.5738 2.82885e-17)
(49.8156 13.5429 6.04571e-17)
(49.8073 13.5131 -7.29805e-18)
(49.7984 13.4845 4.84398e-17)
(49.7889 13.457 -3.53612e-18)
(49.7791 13.4306 4.88295e-18)
(49.7689 13.4054 -4.61821e-18)
(49.7584 13.3815 4.48846e-18)
(49.7496 13.3582 6.99161e-17)
(49.7402 13.3346 -7.37238e-17)
(49.8222 14.1536 -2.43e-17)
(49.8318 14.1013 1.29154e-18)
(49.8398 14.0508 1.91342e-17)
(49.8461 14.0021 -1.96239e-17)
(49.8508 13.9553 -3.43888e-17)
(49.854 13.9101 -3.20865e-17)
(49.8559 13.8666 0)
(49.8563 13.8247 -1.91941e-18)
(49.8555 13.7844 0)
(49.8535 13.7455 4.6965e-17)
(49.8503 13.7081 2.99515e-18)
(49.846 13.6721 4.07043e-17)
(49.8406 13.6374 0)
(49.8343 13.6041 0)
(49.8272 13.572 2.51633e-17)
(49.8192 13.5411 -1.13189e-16)
(49.8105 13.5114 5.17805e-17)
(49.8011 13.4828 7.12395e-18)
(49.7912 13.4555 4.4571e-17)
(49.781 13.4293 5.06368e-17)
(49.7704 13.4042 -4.22191e-17)
(49.7596 13.3805 0)
(49.7507 13.3574 4.80299e-18)
(49.7412 13.3341 4.14333e-18)
(49.8236 14.2074 2.50585e-17)
(49.8344 14.1528 2.39176e-17)
(49.8434 14.1003 2.99692e-18)
(49.8507 14.0496 3.55501e-18)
(49.8563 14.0008 -2.34531e-17)
(49.8604 13.9538 -2.59247e-18)
(49.8631 13.9085 -3.81165e-17)
(49.8643 13.8649 -3.32469e-17)
(49.8641 13.8229 -3.25112e-17)
(49.8627 13.7824 0)
(49.8601 13.7435 -5.4561e-17)
(49.8564 13.7061 0)
(49.8516 13.6701 -4.26101e-17)
(49.8457 13.6354 0)
(49.8389 13.602 1.95139e-18)
(49.8313 13.57 -1.07505e-16)
(49.8228 13.5391 1.25008e-16)
(49.8136 13.5095 5.61632e-17)
(49.8038 13.4811 -5.46805e-17)
(49.7935 13.4539 -5.91869e-18)
(49.783 13.4278 -4.45093e-17)
(49.772 13.4029 8.07751e-17)
(49.7608 13.3795 5.26543e-18)
(49.7517 13.3567 0)
(49.7422 13.3335 0)
(49.8247 14.2634 -1.00417e-18)
(49.8367 14.2066 9.56485e-19)
(49.8467 14.1518 -3.45618e-18)
(49.8551 14.0991 0)
(49.8617 14.0482 -2.18025e-17)
(49.8667 13.9992 2.29521e-17)
(49.8701 13.9521 -4.40539e-17)
(49.8721 13.9066 3.7583e-17)
(49.8727 13.8629 3.47683e-17)
(49.872 13.8209 6.67514e-17)
(49.87 13.7804 3.2267e-17)
(49.8669 13.7414 1.12666e-16)
(49.8626 13.7039 0)
(49.8572 13.6679 0)
(49.8508 13.6332 4.73457e-17)
(49.8435 13.5999 -4.61632e-17)
(49.8354 13.5678 6.98749e-17)
(49.8264 13.5371 -6.41006e-17)
(49.8168 13.5075 -1.18362e-16)
(49.8065 13.4792 -5.81003e-17)
(49.7958 13.4522 -6.81802e-18)
(49.7849 13.4263 1.22028e-17)
(49.7735 13.4016 5.00514e-17)
(49.762 13.3785 0)
(49.7528 13.3558 0)
(49.7432 13.3329 0)
(49.8253 14.3218 1.04829e-18)
(49.8385 14.2627 -9.98533e-19)
(49.8498 14.2056 1.89134e-18)
(49.8592 14.1506 0)
(49.8668 14.0977 0)
(49.8727 14.0466 -2.56712e-17)
(49.877 13.9975 0)
(49.8799 13.9502 4.04648e-17)
(49.8812 13.9047 0)
(49.8812 13.8608 0)
(49.8799 13.8187 -3.61138e-17)
(49.8773 13.7781 -3.57468e-17)
(49.8736 13.7391 -1.19601e-16)
(49.8687 13.7016 0)
(49.8628 13.6656 -3.30046e-18)
(49.8559 13.6309 -3.87998e-17)
(49.8481 13.5976 8.37055e-17)
(49.8395 13.5656 0)
(49.8301 13.5349 -7.23964e-17)
(49.82 13.5055 1.28832e-16)
(49.8093 13.4773 6.85055e-17)
(49.7982 13.4504 5.57676e-19)
(49.7868 13.4246 -5.88287e-17)
(49.7751 13.4002 -9.29154e-17)
(49.7632 13.3774 5.78452e-18)
(49.7539 13.355 0)
(49.7442 13.3322 0)
(49.8255 14.3827 1.96494e-17)
(49.84 14.3211 -1.2432e-18)
(49.8525 14.2617 0)
(49.863 14.2044 -3.32959e-17)
(49.8716 14.1492 0)
(49.8786 14.0961 0)
(49.8838 14.0449 2.6841e-17)
(49.8875 13.9956 3.09969e-18)
(49.8897 13.9481 0)
(49.8904 13.9025 0)
(49.8898 13.8586 -4.74111e-17)
(49.8878 13.8164 4.48433e-18)
(49.8847 13.7757 7.12534e-17)
(49.8804 13.7367 3.73576e-20)
(49.875 13.6992 3.44605e-18)
(49.8685 13.6631 0)
(49.8611 13.6285 4.97793e-17)
(49.8528 13.5952 -4.27471e-17)
(49.8436 13.5633 0)
(49.8337 13.5327 7.16279e-17)
(49.8231 13.5033 -7.42532e-17)
(49.812 13.4753 -7.5677e-17)
(49.8005 13.4485 0)
(49.7888 13.4229 -9.87506e-18)
(49.7767 13.3987 -6.0392e-18)
(49.7644 13.3762 0)
(49.755 13.354 9.96103e-17)
(49.7454 13.3315 0)
(49.8252 14.4461 2.83451e-18)
(49.8411 14.382 -4.19065e-17)
(49.8548 14.3201 -4.41191e-17)
(49.8665 14.2605 3.80119e-17)
(49.8762 14.203 3.49892e-17)
(49.8842 14.1476 0)
(49.8904 14.0942 -2.08136e-18)
(49.895 14.0429 0)
(49.898 13.9934 0)
(49.8995 13.9459 3.32669e-18)
(49.8996 13.9001 5.87317e-18)
(49.8983 13.8561 -2.77755e-18)
(49.8958 13.8139 5.19645e-18)
(49.8921 13.7732 -7.47101e-17)
(49.8872 13.7341 6.44493e-17)
(49.8812 13.6966 5.86206e-17)
(49.8742 13.6605 -5.71762e-17)
(49.8662 13.6259 -5.58821e-17)
(49.8574 13.5927 4.15594e-17)
(49.8477 13.5608 5.55341e-18)
(49.8374 13.5303 9.71277e-18)
(49.8263 13.5011 -6.86743e-17)
(49.8148 13.4731 6.77509e-17)
(49.8028 13.4465 -6.23767e-17)
(49.7907 13.4212 1.04702e-16)
(49.7783 13.3972 0)
(49.7657 13.3749 -6.01265e-18)
(49.7561 13.353 -9.30701e-17)
(49.7465 13.3307 -9.61792e-17)
(49.8244 14.5122 -2.82889e-17)
(49.8417 14.4455 2.39048e-17)
(49.8567 14.3811 2.36274e-17)
(49.8696 14.319 -3.49849e-18)
(49.8806 14.2591 -4.24193e-17)
(49.8896 14.2013 0)
(49.8968 14.1457 3.96447e-17)
(49.9023 14.0922 2.19986e-18)
(49.9062 14.0407 0)
(49.9085 13.9911 -3.47329e-18)
(49.9094 13.9434 -6.70465e-18)
(49.9088 13.8976 5.08172e-17)
(49.907 13.8535 3.85249e-17)
(49.9038 13.8112 0)
(49.8995 13.7705 8.34108e-17)
(49.894 13.7314 8.73776e-18)
(49.8875 13.6938 -6.18894e-17)
(49.8799 13.6578 6.34871e-17)
(49.8714 13.6232 5.3926e-17)
(49.8621 13.59 4.02465e-17)
(49.8519 13.5582 -1.10995e-17)
(49.841 13.5278 0)
(49.8295 13.4987 6.77662e-17)
(49.8175 13.4709 -6.948e-19)
(49.8052 13.4444 6.88158e-17)
(49.7927 13.4193 2.78629e-18)
(49.7799 13.3956 1.17892e-16)
(49.7669 13.3736 1.02302e-16)
(49.7572 13.352 -6.18124e-18)
(49.7477 13.3298 1.07338e-16)
(49.823 14.5811 -1.86672e-18)
(49.8418 14.5117 5.48741e-17)
(49.8582 14.4446 -2.67946e-17)
(49.8724 14.3799 -5.14316e-17)
(49.8846 14.3175 9.31062e-17)
(49.8948 14.2574 2.85126e-18)
(49.903 14.1994 0)
(49.9095 14.1436 -3.92373e-17)
(49.9143 14.0899 2.31549e-18)
(49.9175 14.0383 0)
(49.9192 13.9886 -5.90682e-17)
(49.9193 13.9408 -3.66717e-18)
(49.9181 13.8949 -5.01678e-17)
(49.9156 13.8507 4.88141e-17)
(49.9119 13.8083 -5.21349e-18)
(49.9069 13.7676 -8.22583e-17)
(49.9009 13.7285 0)
(49.8937 13.691 7.26704e-17)
(49.8856 13.6549 7.26962e-18)
(49.8766 13.6204 -1.04159e-16)
(49.8667 13.5873 -9.24367e-17)
(49.8561 13.5555 6.04068e-18)
(49.8447 13.5252 8.64261e-17)
(49.8327 13.4962 9.2813e-18)
(49.8203 13.4686 6.32994e-17)
(49.8075 13.4423 6.67736e-17)
(49.7947 13.4173 -5.86445e-17)
(49.7815 13.3939 -1.17219e-16)
(49.7682 13.3723 -9.50221e-17)
(49.7584 13.3508 -6.55808e-18)
(49.749 13.3288 1.02779e-16)
(-19.7586 1.99479 0)
(49.8211 14.6529 3.17298e-17)
(49.8414 14.5806 1.86381e-18)
(49.8593 14.5108 -5.70074e-17)
(49.8749 14.4434 2.70892e-17)
(49.8883 14.3785 1.08265e-16)
(49.8996 14.3158 -5.06543e-17)
(49.909 14.2554 -5.07941e-17)
(49.9166 14.1973 0)
(49.9223 14.1413 -5.03195e-18)
(49.9264 14.0875 -7.68097e-17)
(49.9288 14.0357 0)
(49.9298 13.9858 6.57297e-17)
(49.9293 13.938 -6.41936e-17)
(49.9275 13.892 5.19468e-17)
(49.9243 13.8478 9.14209e-18)
(49.9199 13.8053 5.93488e-18)
(49.9144 13.7646 8.52446e-17)
(49.9077 13.7254 -9.51599e-18)
(49.9 13.6879 8.03896e-18)
(49.8914 13.6519 -7.30795e-17)
(49.8818 13.6174 1.15321e-16)
(49.8714 13.5843 -6.30601e-18)
(49.8602 13.5527 0)
(49.8484 13.5225 4.11984e-18)
(49.836 13.4936 4.41397e-18)
(49.8231 13.4661 -7.18898e-17)
(49.8098 13.44 -1.43529e-16)
(49.7966 13.4153 -1.28574e-16)
(49.7832 13.3921 -7.52218e-18)
(49.7694 13.3708 -6.65962e-18)
(49.7596 13.3497 1.06654e-16)
(49.7503 13.3278 -9.10734e-17)
(-23.0389 2.26937 0)
(-15.1965 1.60733 5.64544e-15)
(49.8185 14.7277 -3.76935e-17)
(49.8404 14.6525 -2.23673e-18)
(49.8598 14.5798 0)
(49.8769 14.5097 3.19693e-17)
(49.8916 14.442 2.07064e-18)
(49.9042 14.3767 -1.11002e-16)
(49.9148 14.3138 6.02355e-17)
(49.9234 14.2532 4.39476e-17)
(49.9301 14.1949 2.72951e-18)
(49.9351 14.1388 4.33202e-17)
(49.9385 14.0847 8.08588e-17)
(49.9402 14.0328 0)
(49.9405 13.9829 -6.43205e-17)
(49.9393 13.9349 1.26138e-16)
(49.9368 13.8888 -6.15501e-17)
(49.933 13.8446 -1.09384e-16)
(49.928 13.8021 -9.68587e-17)
(49.9218 13.7613 -7.90899e-17)
(49.9146 13.7222 4.23345e-19)
(49.9063 13.6847 1.20914e-17)
(49.8971 13.6487 6.41217e-17)
(49.887 13.6143 -5.84721e-17)
(49.8761 13.5813 0)
(49.8644 13.5498 0)
(49.8521 13.5196 -1.76329e-16)
(49.8392 13.4909 0)
(49.8258 13.4636 0)
(49.8122 13.4377 5.57733e-18)
(49.7986 13.4131 2.65887e-18)
(49.7848 13.3902 -7.76205e-18)
(49.7707 13.3693 -1.12028e-16)
(49.7607 13.3484 -1.05872e-16)
(49.7516 13.3267 1.11601e-17)
(-24.3685 2.46425 0)
(-19.0722 1.93309 -4.94718e-19)
(-8.63633 1.11398 7.19899e-19)
(49.8153 14.8055 2.17661e-17)
(49.8389 14.7273 5.0364e-19)
(49.8599 14.6517 0)
(49.8784 14.5787 0)
(49.8946 14.5083 2.1384e-18)
(49.9085 14.4403 -3.0078e-17)
(49.9203 14.3747 -1.09993e-17)
(49.93 14.3116 -4.96547e-17)
(49.9378 14.2508 0)
(49.9438 14.1923 -4.5656e-17)
(49.948 14.1359 -7.03381e-21)
(49.9506 14.0818 0)
(49.9517 14.0297 8.2002e-17)
(49.9512 13.9797 -3.55787e-18)
(49.9494 13.9317 -6.20811e-17)
(49.9462 13.8855 -5.99079e-17)
(49.9417 13.8412 5.22904e-17)
(49.9361 13.7987 9.575e-17)
(49.9293 13.758 8.05215e-17)
(49.9215 13.7188 -8.37467e-17)
(49.9127 13.6814 -7.29635e-17)
(49.9029 13.6454 -8.89228e-18)
(49.8922 13.611 0)
(49.8808 13.5781 0)
(49.8686 13.5467 0)
(49.8558 13.5167 9.20731e-17)
(49.8424 13.4881 0)
(49.8286 13.4609 0)
(49.8146 13.4352 6.55893e-18)
(49.8006 13.4109 3.03699e-18)
(49.7865 13.3882 0)
(49.772 13.3677 2.26226e-16)
(49.7619 13.347 1.38613e-17)
(49.753 13.3255 1.14035e-17)
(-25.0204 2.60192 0)
(-20.9351 2.19369 -9.94533e-16)
(-13.4034 1.53014 1.161e-15)
(2.24382 0.383539 -4.63492e-15)
(49.8113 14.8866 2.19274e-17)
(49.8367 14.8052 -4.59004e-17)
(49.8594 14.7266 8.19689e-17)
(49.8795 14.6507 -4.03295e-17)
(49.8971 14.5773 -4.03433e-17)
(49.9124 14.5065 0)
(49.9255 14.4382 3.95002e-18)
(49.9364 14.3725 5.93653e-17)
(49.9453 14.3091 5.8772e-17)
(49.9523 14.2481 -3.21163e-18)
(49.9575 14.1894 4.50969e-17)
(49.961 14.1329 -4.4581e-17)
(49.9628 14.0786 -5.10255e-18)
(49.9631 14.0265 -1.51109e-16)
(49.962 13.9763 7.01464e-17)
(49.9595 13.9282 0)
(49.9556 13.882 6.71009e-17)
(49.9505 13.8377 -7.2369e-18)
(49.9442 13.7952 1.27311e-17)
(49.9368 13.7544 -1.85655e-16)
(49.9284 13.7153 8.28578e-17)
(49.919 13.6778 9.28157e-18)
(49.9086 13.642 9.1902e-18)
(49.8974 13.6076 -1.30976e-16)
(49.8855 13.5748 7.62607e-18)
(49.8728 13.5435 1.15623e-16)
(49.8595 13.5136 -9.9093e-17)
(49.8456 13.4851 0)
(49.8314 13.4581 -9.2558e-17)
(49.8169 13.4326 1.49014e-16)
(49.8026 13.4085 -4.93356e-18)
(49.7881 13.3861 -8.21906e-18)
(49.7733 13.366 -1.28671e-16)
(49.7631 13.3456 -1.41976e-17)
(49.7545 13.3242 -1.37281e-17)
(-25.2854 2.69439 0)
(-22.0841 2.40483 0)
(-16.0615 1.88993 7.81319e-16)
(-4.1252 1.00883 7.62689e-19)
(18.7117 -0.995349 0)
(49.8066 14.9709 -4.32107e-19)
(49.8339 14.8864 1.83692e-18)
(49.8583 14.8046 4.53706e-17)
(49.8801 14.7256 -4.18491e-17)
(49.8992 14.6493 3.70649e-17)
(49.9159 14.5756 3.75447e-17)
(49.9303 14.5045 0)
(49.9425 14.4359 0)
(49.9526 14.3699 -6.98576e-17)
(49.9607 14.3063 -1.19165e-16)
(49.9669 14.2451 0)
(49.9713 14.1862 -5.60398e-17)
(49.974 14.1296 6.17323e-18)
(49.9751 14.0752 8.46913e-17)
(49.9747 14.0229 7.90511e-17)
(49.9728 13.9727 0)
(49.9696 13.9246 6.17358e-17)
(49.965 13.8783 7.55389e-18)
(49.9593 13.834 -1.16842e-16)
(49.9524 13.7914 0)
(49.9444 13.7507 1.91865e-16)
(49.9353 13.7116 -5.70562e-18)
(49.9253 13.6742 -1.99971e-17)
(49.9144 13.6383 -6.46865e-17)
(49.9027 13.6041 -4.64451e-18)
(49.8902 13.5713 -7.25137e-18)
(49.8769 13.5401 -1.07705e-16)
(49.8631 13.5103 1.04763e-16)
(49.8488 13.482 9.31461e-17)
(49.8342 13.4552 -1.39177e-17)
(49.8193 13.4299 2.70006e-18)
(49.8046 13.4061 1.47624e-16)
(49.7898 13.3839 -8.43639e-18)
(49.7746 13.3642 3.02827e-17)
(49.7643 13.3441 1.48842e-17)
(49.756 13.3228 1.17685e-16)
(-25.3119 2.75821 0)
(-22.7629 2.56373 0)
(-17.883 2.20019 -1.18551e-15)
(-8.42155 1.55388 5.48766e-16)
(13.1247 -0.216363 0)
(40.5907 -2.88604 -9.93618e-16)
(49.8011 15.0586 -5.47994e-17)
(49.8303 14.9708 2.71031e-17)
(49.8566 14.8858 -7.82442e-17)
(49.8801 14.8036 0)
(49.9008 14.7242 -1.77482e-19)
(49.9191 14.6475 0)
(49.9349 14.5735 0)
(49.9484 14.5021 0)
(49.9597 14.4333 -6.90008e-17)
(49.9689 14.367 -3.55019e-18)
(49.9761 14.3032 5.63679e-17)
(49.9815 14.2418 3.47877e-18)
(49.9851 14.1828 4.55819e-17)
(49.987 14.1261 -1.00944e-16)
(49.9874 14.0715 -8.8876e-17)
(49.9862 14.0192 -8.5688e-17)
(49.9836 13.9689 0)
(49.9797 13.9207 -6.45757e-17)
(49.9745 13.8744 -7.39915e-17)
(49.9681 13.83 2.44924e-16)
(49.9605 13.7875 1.10641e-16)
(49.9519 13.7467 9.97853e-18)
(49.9423 13.7077 1.08601e-17)
(49.9317 13.6703 -9.89571e-18)
(49.9202 13.6346 6.44467e-17)
(49.9079 13.6004 2.72831e-16)
(49.8949 13.5677 -1.26546e-16)
(49.8811 13.5366 -6.80998e-18)
(49.8668 13.507 0)
(49.8521 13.4788 2.69335e-17)
(49.8369 13.4522 8.44707e-17)
(49.8216 13.4271 -8.76349e-17)
(49.8066 13.4035 8.80387e-18)
(49.7914 13.3817 1.19772e-16)
(49.7759 13.3623 -1.23275e-16)
(49.7656 13.3425 0)
(49.7576 13.3212 -2.63719e-16)
(-25.1798 2.80198 0)
(-23.1164 2.68237 0)
(-19.1356 2.44912 2.35907e-20)
(-11.504 2.05267 -4.22005e-16)
(6.07013 0.760362 0)
(38.3845 -2.19889 2.36259e-16)
(62.054 -4.60266 0)
(49.7948 15.1498 -3.3376e-17)
(49.826 15.0586 5.66209e-17)
(49.8542 14.9703 0)
(49.8795 14.8849 5.15422e-17)
(49.9019 14.8023 -1.90721e-19)
(49.9218 14.7225 0)
(49.939 14.6454 4.64689e-17)
(49.9539 14.5711 0)
(49.9665 14.4994 0)
(49.9769 14.4304 1.4849e-16)
(49.9852 14.3639 1.42568e-16)
(49.9916 14.2999 4.16214e-18)
(49.9962 14.2383 3.86252e-18)
(49.999 14.1791 5.64951e-17)
(50.0001 14.1223 9.96893e-17)
(49.9997 14.0676 -9.00179e-17)
(49.9978 14.0152 8.46762e-17)
(49.9945 13.9649 -4.79693e-18)
(49.9898 13.9166 -6.49826e-17)
(49.984 13.8703 6.60864e-17)
(49.9769 13.8259 -1.19791e-16)
(49.9687 13.7834 4.40958e-18)
(49.9594 13.7426 -9.99502e-17)
(49.9492 13.7036 -6.0511e-18)
(49.938 13.6663 1.1029e-17)
(49.926 13.6306 -7.85322e-17)
(49.9131 13.5965 -1.37783e-16)
(49.8995 13.564 -4.60541e-18)
(49.8853 13.533 0)
(49.8705 13.5035 -1.27735e-17)
(49.8553 13.4755 -9.49871e-17)
(49.8397 13.4491 2.21301e-17)
(49.824 13.4242 7.15588e-17)
(49.8085 13.4008 1.60611e-16)
(49.7931 13.3793 -1.35002e-16)
(49.7772 13.3603 1.22496e-16)
(49.7668 13.3408 3.06772e-17)
(49.7592 13.3196 1.34289e-16)
(-24.9379 2.83151 3.26387e-16)
(-23.2433 2.77285 0)
(-19.9681 2.64894 3.87644e-16)
(-13.743 2.46168 6.93425e-16)
(0.218523 1.69748 0)
(29.8765 -0.891237 -1.68305e-16)
(62.5696 -4.17416 1.56872e-16)
(76.2347 -5.59087 0)
(49.7876 15.2447 -6.68616e-17)
(49.8209 15.15 -2.38975e-18)
(49.8511 15.0583 -2.98169e-17)
(49.8783 14.9695 -1.89866e-18)
(49.9025 14.8836 6.12348e-17)
(49.924 14.8006 0)
(49.9428 14.7204 -3.22937e-18)
(49.9591 14.643 -9.72503e-17)
(49.973 14.5684 0)
(49.9847 14.4964 -5.33611e-18)
(49.9942 14.4271 -7.5156e-17)
(50.0017 14.3604 -1.47796e-16)
(50.0072 14.2962 -6.78782e-17)
(50.0109 14.2345 -6.31057e-17)
(50.0129 14.1752 -1.79829e-16)
(50.0132 14.1182 -1.31891e-17)
(50.012 14.0635 -4.10147e-18)
(50.0094 14.011 8.52923e-17)
(50.0054 13.9606 -9.34935e-17)
(50 13.9123 6.45725e-17)
(49.9934 13.8659 0)
(49.9857 13.8216 0)
(49.9769 13.779 -1.12731e-16)
(49.967 13.7383 1.31345e-17)
(49.9561 13.6994 -1.08824e-16)
(49.9444 13.6621 0)
(49.9318 13.6265 7.78199e-17)
(49.9183 13.5925 -1.56115e-16)
(49.9042 13.5601 1.28942e-16)
(49.8895 13.5292 0)
(49.8742 13.4999 0)
(49.8585 13.4721 -2.48518e-17)
(49.8425 13.4458 1.09342e-17)
(49.8263 13.4212 -1.86182e-16)
(49.8105 13.3981 -5.4352e-18)
(49.7948 13.3768 -1.3295e-16)
(49.7785 13.3582 -1.43967e-16)
(49.768 13.3391 -1.58805e-17)
(49.7609 13.3178 1.10663e-16)
(-24.6188 2.85056 1.29208e-20)
(-23.2081 2.84241 0)
(-20.4819 2.80869 0)
(-15.3497 2.79132 -2.94017e-16)
(-4.34386 2.49605 0)
(21.4784 0.428569 1.37634e-16)
(54.162 -2.94168 -2.20638e-16)
(76.7369 -5.44845 0)
(81.4986 -5.83066 0)
(49.7794 15.3432 1.69535e-18)
(49.815 15.245 3.41955e-17)
(49.8472 15.1497 3.28937e-17)
(49.8764 15.0575 3.56035e-17)
(49.9025 14.9683 0)
(49.9257 14.8819 -5.69658e-17)
(49.9461 14.7985 3.36925e-18)
(49.9639 14.718 3.1708e-18)
(49.9793 14.6403 4.77258e-17)
(49.9922 14.5653 5.56817e-18)
(50.003 14.4931 -5.53223e-18)
(50.0116 14.4236 -5.15657e-18)
(50.0181 14.3567 7.27992e-17)
(50.0228 14.2923 6.7284e-17)
(50.0257 14.2304 7.00291e-17)
(50.0268 14.171 2.12952e-18)
(50.0264 14.1139 0)
(50.0244 14.0591 2.0593e-16)
(50.021 14.0065 -9.00461e-17)
(50.0163 13.9561 8.2676e-17)
(50.0102 13.9077 0)
(50.0029 13.8614 -1.44086e-16)
(49.9945 13.817 8.39883e-18)
(49.985 13.7745 -1.47891e-17)
(49.9745 13.7339 0)
(49.9631 13.695 1.96243e-16)
(49.9507 13.6578 -1.16261e-17)
(49.9375 13.6222 -7.29053e-17)
(49.9236 13.5883 1.45475e-16)
(49.9089 13.556 -1.28048e-16)
(49.8937 13.5253 0)
(49.8779 13.4961 -9.97641e-17)
(49.8617 13.4685 0)
(49.8452 13.4424 -8.31063e-19)
(49.8287 13.418 -6.70162e-17)
(49.8125 13.3952 -1.62831e-16)
(49.7965 13.3742 1.4113e-16)
(49.7798 13.3561 2.57924e-16)
(49.7693 13.3372 3.18351e-17)
(49.7626 13.3159 3.15117e-18)
(-24.2454 2.86219 2.68187e-20)
(-23.0545 2.89663 0)
(-20.7552 2.93722 0)
(-16.4801 3.05861 2.54319e-16)
(-7.77159 3.13863 0)
(13.872 1.67013 0)
(45.5219 -1.69611 2.4066e-19)
(70.1639 -4.66057 2.526e-21)
(81.5834 -5.92766 0)
(79.3088 -5.49298 3.12945e-19)
(49.7702 15.4456 2.06584e-17)
(49.8081 15.3437 3.35737e-19)
(49.8426 15.2448 2.40972e-18)
(49.8737 15.1491 -2.3058e-18)
(49.9018 15.0563 -3.31121e-17)
(49.9268 14.9666 0)
(49.949 14.8799 3.94589e-18)
(49.9684 14.7961 0)
(49.9852 14.7152 0)
(49.9996 14.6371 3.27984e-18)
(50.0116 14.5619 1.03187e-16)
(50.0213 14.4895 -8.53889e-17)
(50.029 14.4197 -8.9401e-17)
(50.0347 14.3526 0)
(50.0385 14.2881 0)
(50.0405 14.226 -7.5519e-17)
(50.0408 14.1665 1.26609e-16)
(50.0396 14.1093 7.23281e-18)
(50.0368 14.0544 3.98888e-18)
(50.0327 14.0018 9.62326e-17)
(50.0272 13.9513 0)
(50.0204 13.903 1.02963e-17)
(50.0124 13.8566 1.43266e-16)
(50.0034 13.8123 -1.27033e-16)
(49.9932 13.7698 0)
(49.9821 13.7292 0)
(49.97 13.6904 -9.98817e-17)
(49.9571 13.6532 0)
(49.9433 13.6178 8.19954e-17)
(49.9288 13.584 -9.13906e-18)
(49.9136 13.5518 1.35715e-16)
(49.8978 13.5212 0)
(49.8815 13.4922 1.12375e-16)
(49.8649 13.4648 1.04487e-16)
(49.848 13.4389 -2.37477e-17)
(49.831 13.4147 1.8175e-16)
(49.8145 13.3921 0)
(49.7981 13.3714 -1.88309e-17)
(49.7811 13.3538 -1.46089e-16)
(49.7705 13.3352 0)
(49.7643 13.3139 -1.27332e-16)
(-23.8348 2.86852 3.87185e-20)
(-22.8141 2.93942 0)
(-20.8477 3.04174 0)
(-17.2491 3.27699 3.15651e-19)
(-10.2858 3.6473 0)
(7.2531 2.79153 0)
(37.1577 -0.434541 7.6957e-17)
(63.297 -3.79301 0)
(77.9008 -5.58882 1.76104e-17)
(80.7972 -5.81867 -1.34321e-16)
(73.871 -4.93084 0)
(49.7599 15.5519 0)
(49.8003 15.4462 2.61405e-18)
(49.837 15.3437 -8.4972e-17)
(49.8703 15.2443 2.40487e-18)
(49.9004 15.148 0)
(49.9273 15.0547 -3.67804e-17)
(49.9513 14.9646 -4.11623e-18)
(49.9724 14.8774 4.10698e-18)
(49.9908 14.7932 0)
(50.0066 14.712 -7.04976e-18)
(50.0199 14.6337 0)
(50.0309 14.5582 -1.96756e-16)
(50.0398 14.4855 8.95836e-17)
(50.0465 14.4155 8.88045e-17)
(50.0513 14.3482 0)
(50.0542 14.2835 1.35864e-17)
(50.0554 14.2214 -1.08814e-17)
(50.0549 14.1617 1.11487e-16)
(50.0528 14.1044 0)
(50.0493 14.0495 1.0769e-17)
(50.0443 13.9968 -8.89009e-17)
(50.0381 13.9463 7.78724e-19)
(50.0306 13.898 -9.83516e-18)
(50.0219 13.8517 0)
(50.0122 13.8073 1.33723e-16)
(50.0014 13.7649 0)
(49.9896 13.7243 -1.1608e-16)
(49.9769 13.6856 0)
(49.9634 13.6485 -9.53217e-17)
(49.9491 13.6132 -1.73383e-16)
(49.934 13.5795 0)
(49.9183 13.5475 -9.1757e-18)
(49.902 13.517 -1.30199e-16)
(49.8852 13.4882 -1.04283e-16)
(49.8681 13.4609 -9.18876e-17)
(49.8507 13.4353 -1.16983e-17)
(49.8333 13.4113 -1.90187e-16)
(49.8164 13.389 1.83488e-16)
(49.7998 13.3686 0)
(49.7824 13.3514 1.34718e-16)
(49.7717 13.3331 1.61268e-17)
(49.7662 13.3117 -1.28424e-17)
(-23.3995 2.8712 4.89799e-20)
(-22.51 2.97371 0)
(-20.8042 3.12809 0)
(-17.7394 3.4562 -3.87827e-16)
(-12.0914 4.04811 0)
(1.75873 3.76979 0)
(29.2059 0.81597 0)
(56.2603 -2.83264 0)
(73.4745 -5.09541 -3.10507e-19)
(80.1722 -5.81583 9.57098e-17)
(76.9664 -5.38562 0)
(68.1778 -4.36793 8.37621e-16)
(49.7486 15.6623 2.33516e-17)
(49.7914 15.5527 1.50664e-18)
(49.8305 15.4464 0)
(49.8661 15.3433 8.67238e-17)
(49.8983 15.2433 4.52919e-17)
(49.9273 15.1464 -2.52711e-18)
(49.9531 15.0527 3.62391e-17)
(49.9759 14.9621 7.24961e-17)
(49.9959 14.8745 4.26405e-18)
(50.0133 14.79 7.15505e-17)
(50.028 14.7084 5.9668e-17)
(50.0404 14.6298 0)
(50.0504 14.5541 2.03122e-16)
(50.0583 14.4811 -1.18283e-17)
(50.0641 14.411 8.95434e-17)
(50.0679 14.3435 8.32445e-17)
(50.07 14.2787 0)
(50.0703 14.2164 2.18052e-16)
(50.0689 14.1566 -1.25634e-16)
(50.066 14.0993 -7.13369e-18)
(50.0617 14.0443 -1.12929e-16)
(50.056 13.9916 -1.20253e-17)
(50.049 13.9411 0)
(50.0408 13.8928 -7.40049e-17)
(50.0314 13.8465 0)
(50.021 13.8022 0)
(50.0096 13.7598 1.53418e-17)
(49.9972 13.7193 1.13817e-17)
(49.9839 13.6806 1.3704e-17)
(49.9697 13.6437 9.45241e-17)
(49.9548 13.6084 -5.25692e-18)
(49.9392 13.5749 9.57383e-18)
(49.9229 13.543 9.37767e-18)
(49.9061 13.5127 2.62242e-16)
(49.8889 13.484 1.33048e-16)
(49.8713 13.4569 0)
(49.8535 13.4315 1.19378e-17)
(49.8356 13.4078 1.77682e-16)
(49.8184 13.3857 -1.62916e-16)
(49.8015 13.3656 1.52826e-16)
(49.7838 13.3488 -1.50861e-16)
(49.7729 13.3309 1.47184e-16)
(49.768 13.3093 0)
(-22.949 2.87167 5.85339e-20)
(-22.1599 3.00207 1.87107e-16)
(-20.6581 3.20051 0)
(-18.0132 3.60395 1.7096e-16)
(-13.36 4.36511 0)
(-2.60341 4.59488 -9.78156e-17)
(21.7805 2.03315 0)
(49.1634 -1.80544 0)
(68.5356 -4.49587 -1.08001e-17)
(78.092 -5.61559 2.28969e-19)
(78.7773 -5.6096 0)
(71.7502 -4.81871 2.66768e-19)
(63.1354 -3.85305 5.21457e-16)
(49.7361 15.7768 -1.70084e-18)
(49.7815 15.6633 -1.5709e-18)
(49.8231 15.5531 0)
(49.8611 15.4461 0)
(49.8955 15.3423 -4.68375e-17)
(49.9265 15.2418 -3.93605e-17)