/*--------------------------------*- C++ -*----------------------------------*\
  =========                 |
  \\      /  F ield         | OpenFOAM: The Open Source CFD Toolbox
   \\    /   O peration     | Website:  https://openfoam.org
    \\  /    A nd           | Version:  7
     \\/     M anipulation  |
\*---------------------------------------------------------------------------*/
FoamFile
{
    version     2.0;
    format      ascii;
    class       volScalarField;
    location    "400";
    object      yPlus;
}
// * * * * * * * * * * * * * * * * * * * * * * * * * * * * * * * * * * * * * //

dimensions      [0 0 0 0 0 0 0];

internalField   uniform 0;

boundaryField
{
    inlet-l
    {
        type            calculated;
        value           nonuniform 0();
    }
    airfoil-l1
    {
        type            calculated;
        value           nonuniform 0();
    }
    empty-1
    {
        type            empty;
    }
    empty-2
    {
        type            empty;
    }
    wall-l1
    {
        type            calculated;
        value           nonuniform 0();
    }
    airfoil-l2
    {
        type            calculated;
        value           nonuniform 0();
    }
    empty-3
    {
        type            empty;
    }
    empty-4
    {
        type            empty;
    }
    wall-l2
    {
        type            calculated;
        value           nonuniform 0();
    }
    outlet-l
    {
        type            calculated;
        value           nonuniform 0();
    }
    empty-5
    {
        type            empty;
    }
    empty-6
    {
        type            empty;
    }
    outlet-h
    {
        type            calculated;
        value           nonuniform 0();
    }
    wall-h2
    {
        type            calculated;
        value           nonuniform 0();
    }
    empty-7
    {
        type            empty;
    }
    empty-8
    {
        type            empty;
    }
    airfoil-h2
    {
        type            calculated;
        value           nonuniform List<scalar> 
33
(
23.2255
25.3369
24.3621
20.6578
19.1272
21.295
24.1902
26.6549
28.6173
30.1944
31.4921
32.5565
33.376
33.9115
34.0908
33.8974
33.4509
32.8749
32.4271
32.4676
33.2781
34.5814
35.996
37.3
37.8114
36.5691
32.9927
26.6782
18.1031
6.30912
12.3385
16.3449
18.6311
)
;
    }
    wall-h1
    {
        type            calculated;
        value           nonuniform List<scalar> 
33
(
121.766
121.744
121.641
121.553
121.481
121.412
121.342
121.273
121.206
121.142
121.08
121.021
120.963
120.911
120.857
120.807
120.756
120.714
120.666
120.625
120.582
120.546
120.509
120.471
120.444
120.41
120.385
120.356
120.328
120.31
120.284
120.268
120.249
)
;
    }
    empty-9
    {
        type            empty;
    }
    empty-10
    {
        type            empty;
    }
    inlet-h
    {
        type            calculated;
        value           uniform 0;
    }
    airfoil-h1
    {
        type            calculated;
        value           nonuniform List<scalar> 
91
(
23.3148
23.0767
22.8628
22.6823
22.5248
22.3808
22.2495
22.1372
22.0508
21.9817
21.9166
21.8778
21.8534
21.8313
21.8148
21.8104
21.8158
21.8279
21.8472
21.8659
21.8961
21.9332
21.9785
22.0247
22.0737
22.1261
22.1847
22.2433
22.3104
22.3758
22.4448
22.5117
22.5789
22.6565
22.73
22.7999
22.8738
22.9466
23.0191
23.0954
23.1697
23.2414
23.3083
23.3765
23.4449
23.5107
23.57
23.6324
23.6895
23.7451
23.8027
23.8497
23.8901
23.9365
23.974
24.0023
24.0286
24.0558
24.0751
24.0874
24.0887
24.0869
24.0735
24.0457
24.0172
23.9794
23.9293
23.8697
23.8018
23.7268
23.6425
23.5418
23.4301
23.3147
23.1913
23.0525
22.9022
22.741
22.5742
22.4007
22.2278
22.0506
21.8744
21.7492
21.7103
21.6851
21.555
21.3003
21.0944
20.9871
21.2947
)
;
    }
    empty-11
    {
        type            empty;
    }
    empty-12
    {
        type            empty;
    }
    procBoundary3to0
    {
        type            processor;
        value           uniform 0;
    }
    procBoundary3to2
    {
        type            processor;
        value           uniform 0;
    }
}


// ************************************************************************* //
