/*--------------------------------*- C++ -*----------------------------------*\
  =========                 |
  \\      /  F ield         | OpenFOAM: The Open Source CFD Toolbox
   \\    /   O peration     | Website:  https://openfoam.org
    \\  /    A nd           | Version:  7
     \\/     M anipulation  |
\*---------------------------------------------------------------------------*/
FoamFile
{
    version     2.0;
    format      ascii;
    class       volScalarField;
    location    "600";
    object      nut;
}
// * * * * * * * * * * * * * * * * * * * * * * * * * * * * * * * * * * * * * //

dimensions      [0 2 -1 0 0 0 0];

internalField   nonuniform List<scalar> 
23117
(
5.20624e-06
5.20559e-06
5.20737e-06
5.20607e-06
5.2082e-06
5.21178e-06
5.2068e-06
5.20928e-06
5.21381e-06
5.2177e-06
5.20728e-06
5.21034e-06
5.21492e-06
5.21952e-06
5.22167e-06
5.20753e-06
5.21122e-06
5.21595e-06
5.22008e-06
5.22219e-06
5.22187e-06
5.20779e-06
5.21189e-06
5.21675e-06
5.2206e-06
5.22204e-06
5.22128e-06
5.21987e-06
5.20807e-06
5.21249e-06
5.21739e-06
5.22088e-06
5.22188e-06
5.2208e-06
5.21917e-06
5.21867e-06
5.20833e-06
5.21307e-06
5.21792e-06
5.22105e-06
5.2216e-06
5.22034e-06
5.21884e-06
5.21828e-06
5.21931e-06
5.20856e-06
5.21359e-06
5.21836e-06
5.22112e-06
5.22131e-06
5.21995e-06
5.21858e-06
5.21822e-06
5.21879e-06
5.22044e-06
5.20878e-06
5.21404e-06
5.21869e-06
5.22111e-06
5.22102e-06
5.21964e-06
5.21847e-06
5.21831e-06
5.21908e-06
5.22007e-06
5.22153e-06
5.20899e-06
5.21442e-06
5.21893e-06
5.22103e-06
5.22076e-06
5.21944e-06
5.21851e-06
5.2186e-06
5.21956e-06
5.22093e-06
5.22198e-06
5.22287e-06
5.20918e-06
5.21475e-06
5.2191e-06
5.22093e-06
5.22054e-06
5.21936e-06
5.21871e-06
5.21909e-06
5.22026e-06
5.22169e-06
5.22307e-06
5.22393e-06
5.22413e-06
5.20935e-06
5.21503e-06
5.21922e-06
5.22083e-06
5.22039e-06
5.21939e-06
5.21905e-06
5.21971e-06
5.22104e-06
5.22254e-06
5.2238e-06
5.22472e-06
5.22516e-06
5.22481e-06
5.2095e-06
5.21526e-06
5.2193e-06
5.22075e-06
5.22032e-06
5.21955e-06
5.2195e-06
5.22038e-06
5.22181e-06
5.22328e-06
5.22445e-06
5.22515e-06
5.22545e-06
5.22542e-06
5.22479e-06
5.20964e-06
5.21545e-06
5.21936e-06
5.22069e-06
5.22034e-06
5.21979e-06
5.22e-06
5.22105e-06
5.22249e-06
5.22386e-06
5.22486e-06
5.22542e-06
5.22555e-06
5.22538e-06
5.22507e-06
5.22441e-06
5.20976e-06
5.21562e-06
5.21942e-06
5.22068e-06
5.22043e-06
5.2201e-06
5.22052e-06
5.22164e-06
5.22302e-06
5.22424e-06
5.22506e-06
5.22545e-06
5.22551e-06
5.22532e-06
5.22501e-06
5.2247e-06
5.22412e-06
5.20987e-06
5.21576e-06
5.21947e-06
5.22071e-06
5.22057e-06
5.22044e-06
5.22099e-06
5.22211e-06
5.22338e-06
5.22442e-06
5.22507e-06
5.22535e-06
5.22536e-06
5.22522e-06
5.22503e-06
5.22483e-06
5.22468e-06
5.22417e-06
5.20996e-06
5.21589e-06
5.21955e-06
5.22078e-06
5.22076e-06
5.22077e-06
5.22138e-06
5.22245e-06
5.22357e-06
5.22443e-06
5.22494e-06
5.22515e-06
5.22517e-06
5.22513e-06
5.22509e-06
5.22508e-06
5.22508e-06
5.22511e-06
5.22462e-06
5.21005e-06
5.21601e-06
5.21964e-06
5.22089e-06
5.22096e-06
5.22106e-06
5.22167e-06
5.22263e-06
5.22359e-06
5.22429e-06
5.2247e-06
5.2249e-06
5.22499e-06
5.22508e-06
5.22521e-06
5.22539e-06
5.22559e-06
5.22576e-06
5.22589e-06
5.22535e-06
5.21012e-06
5.21614e-06
5.21974e-06
5.22102e-06
5.22115e-06
5.22128e-06
5.22183e-06
5.22267e-06
5.22347e-06
5.22406e-06
5.22442e-06
5.22464e-06
5.22483e-06
5.22507e-06
5.22539e-06
5.22575e-06
5.22614e-06
5.22648e-06
5.22673e-06
5.22688e-06
5.22625e-06
5.2102e-06
5.21626e-06
5.21987e-06
5.22117e-06
5.22131e-06
5.22141e-06
5.22188e-06
5.22258e-06
5.22324e-06
5.22375e-06
5.22411e-06
5.2244e-06
5.22472e-06
5.22512e-06
5.22561e-06
5.22615e-06
5.2267e-06
5.22721e-06
5.22761e-06
5.22788e-06
5.22799e-06
5.22723e-06
5.21026e-06
5.21639e-06
5.22002e-06
5.2213e-06
5.22142e-06
5.22146e-06
5.22181e-06
5.22237e-06
5.22295e-06
5.22341e-06
5.2238e-06
5.22418e-06
5.22464e-06
5.2252e-06
5.22585e-06
5.22656e-06
5.22727e-06
5.22793e-06
5.22848e-06
5.22889e-06
5.22912e-06
5.22917e-06
5.22825e-06
5.21033e-06
5.21654e-06
5.22017e-06
5.22142e-06
5.22147e-06
5.2214e-06
5.22163e-06
5.22209e-06
5.2226e-06
5.22307e-06
5.22351e-06
5.224e-06
5.2246e-06
5.22531e-06
5.22611e-06
5.22697e-06
5.22782e-06
5.22862e-06
5.22932e-06
5.22987e-06
5.23024e-06
5.23042e-06
5.23037e-06
5.22931e-06
5.2104e-06
5.21669e-06
5.22033e-06
5.22151e-06
5.22144e-06
5.22124e-06
5.22136e-06
5.22175e-06
5.22223e-06
5.22273e-06
5.22325e-06
5.22386e-06
5.22458e-06
5.22543e-06
5.22637e-06
5.22736e-06
5.22834e-06
5.22927e-06
5.23011e-06
5.23081e-06
5.23134e-06
5.23166e-06
5.23176e-06
5.23162e-06
5.23038e-06
5.21047e-06
5.21686e-06
5.22048e-06
5.22155e-06
5.22133e-06
5.221e-06
5.22103e-06
5.22137e-06
5.22186e-06
5.22241e-06
5.22302e-06
5.22374e-06
5.22458e-06
5.22556e-06
5.22662e-06
5.22773e-06
5.22883e-06
5.22989e-06
5.23085e-06
5.2317e-06
5.23239e-06
5.23288e-06
5.23314e-06
5.23315e-06
5.23289e-06
5.23148e-06
5.21054e-06
5.21703e-06
5.22062e-06
5.22154e-06
5.22115e-06
5.22069e-06
5.22065e-06
5.22098e-06
5.22151e-06
5.22212e-06
5.22282e-06
5.22364e-06
5.2246e-06
5.22568e-06
5.22685e-06
5.22806e-06
5.22928e-06
5.23046e-06
5.23156e-06
5.23254e-06
5.23339e-06
5.23405e-06
5.2345e-06
5.23468e-06
5.23459e-06
5.2342e-06
5.23261e-06
5.21062e-06
5.21721e-06
5.22074e-06
5.22146e-06
5.22088e-06
5.22031e-06
5.22024e-06
5.2206e-06
5.22117e-06
5.22185e-06
5.22264e-06
5.22356e-06
5.22461e-06
5.22579e-06
5.22706e-06
5.22837e-06
5.22969e-06
5.23098e-06
5.23221e-06
5.23334e-06
5.23434e-06
5.23518e-06
5.2358e-06
5.23619e-06
5.23629e-06
5.23609e-06
5.23554e-06
5.23375e-06
5.21071e-06
5.21739e-06
5.22082e-06
5.22132e-06
5.22055e-06
5.2199e-06
5.21983e-06
5.22022e-06
5.22086e-06
5.22162e-06
5.22248e-06
5.22349e-06
5.22463e-06
5.2259e-06
5.22725e-06
5.22866e-06
5.23007e-06
5.23147e-06
5.23282e-06
5.23409e-06
5.23525e-06
5.23625e-06
5.23707e-06
5.23765e-06
5.23796e-06
5.23796e-06
5.23762e-06
5.2369e-06
5.23492e-06
5.2108e-06
5.21757e-06
5.22086e-06
5.22112e-06
5.22017e-06
5.21945e-06
5.21941e-06
5.21987e-06
5.22058e-06
5.2214e-06
5.22234e-06
5.22343e-06
5.22465e-06
5.22599e-06
5.22742e-06
5.22891e-06
5.23042e-06
5.23192e-06
5.23339e-06
5.2348e-06
5.23611e-06
5.23728e-06
5.23827e-06
5.23905e-06
5.23958e-06
5.23981e-06
5.23968e-06
5.23918e-06
5.23827e-06
5.23609e-06
5.2109e-06
5.21774e-06
5.22086e-06
5.22085e-06
5.21973e-06
5.219e-06
5.21901e-06
5.21955e-06
5.22032e-06
5.22121e-06
5.22222e-06
5.22337e-06
5.22466e-06
5.22607e-06
5.22757e-06
5.22914e-06
5.23073e-06
5.23234e-06
5.23392e-06
5.23546e-06
5.23691e-06
5.23825e-06
5.23943e-06
5.2404e-06
5.24114e-06
5.24159e-06
5.24171e-06
5.24145e-06
5.24077e-06
5.23965e-06
5.23728e-06
5.21101e-06
5.2179e-06
5.2208e-06
5.22052e-06
5.21926e-06
5.21854e-06
5.21864e-06
5.21925e-06
5.22009e-06
5.22104e-06
5.2221e-06
5.22332e-06
5.22467e-06
5.22614e-06
5.22771e-06
5.22934e-06
5.23102e-06
5.23272e-06
5.23441e-06
5.23607e-06
5.23767e-06
5.23916e-06
5.24052e-06
5.24169e-06
5.24264e-06
5.24331e-06
5.24367e-06
5.24367e-06
5.24325e-06
5.24237e-06
5.24102e-06
5.2385e-06
5.21113e-06
5.21804e-06
5.2207e-06
5.22014e-06
5.21877e-06
5.2181e-06
5.21829e-06
5.21898e-06
5.21988e-06
5.22088e-06
5.222e-06
5.22326e-06
5.22467e-06
5.2262e-06
5.22782e-06
5.22952e-06
5.23128e-06
5.23306e-06
5.23486e-06
5.23664e-06
5.23837e-06
5.24002e-06
5.24155e-06
5.24292e-06
5.24407e-06
5.24497e-06
5.24556e-06
5.24581e-06
5.24567e-06
5.24507e-06
5.24396e-06
5.24238e-06
5.23972e-06
5.21125e-06
5.21816e-06
5.22054e-06
5.21971e-06
5.21828e-06
5.21767e-06
5.21797e-06
5.21874e-06
5.21969e-06
5.22073e-06
5.2219e-06
5.22321e-06
5.22467e-06
5.22625e-06
5.22793e-06
5.22968e-06
5.23151e-06
5.23338e-06
5.23527e-06
5.23716e-06
5.23903e-06
5.24083e-06
5.24252e-06
5.24408e-06
5.24544e-06
5.24656e-06
5.24739e-06
5.24789e-06
5.248e-06
5.2477e-06
5.2469e-06
5.24555e-06
5.24373e-06
5.24097e-06
5.21137e-06
5.21825e-06
5.22033e-06
5.21925e-06
5.21778e-06
5.21727e-06
5.21768e-06
5.21852e-06
5.21952e-06
5.2206e-06
5.22181e-06
5.22317e-06
5.22466e-06
5.22629e-06
5.22801e-06
5.22983e-06
5.23171e-06
5.23366e-06
5.23565e-06
5.23765e-06
5.23963e-06
5.24158e-06
5.24343e-06
5.24516e-06
5.24672e-06
5.24807e-06
5.24914e-06
5.24989e-06
5.25027e-06
5.25024e-06
5.24976e-06
5.24874e-06
5.24711e-06
5.24507e-06
5.24225e-06
5.21149e-06
5.21831e-06
5.22006e-06
5.21876e-06
5.21729e-06
5.21691e-06
5.21742e-06
5.21833e-06
5.21936e-06
5.22048e-06
5.22172e-06
5.22312e-06
5.22465e-06
5.22632e-06
5.22809e-06
5.22995e-06
5.2319e-06
5.23392e-06
5.23599e-06
5.23809e-06
5.24019e-06
5.24227e-06
5.24428e-06
5.24618e-06
5.24794e-06
5.24949e-06
5.2508e-06
5.25181e-06
5.25246e-06
5.25271e-06
5.25251e-06
5.25183e-06
5.25055e-06
5.24863e-06
5.24641e-06
5.24355e-06
5.21162e-06
5.21834e-06
5.21975e-06
5.21825e-06
5.21682e-06
5.21657e-06
5.21719e-06
5.21815e-06
5.21921e-06
5.22036e-06
5.22164e-06
5.22307e-06
5.22464e-06
5.22634e-06
5.22815e-06
5.23006e-06
5.23206e-06
5.23414e-06
5.23629e-06
5.23849e-06
5.2407e-06
5.2429e-06
5.24506e-06
5.24713e-06
5.24908e-06
5.25084e-06
5.25238e-06
5.25363e-06
5.25456e-06
5.25509e-06
5.25518e-06
5.2548e-06
5.25389e-06
5.25234e-06
5.25012e-06
5.24777e-06
5.24488e-06
5.21175e-06
5.21833e-06
5.2194e-06
5.21774e-06
5.21638e-06
5.21627e-06
5.21699e-06
5.21799e-06
5.21908e-06
5.22025e-06
5.22156e-06
5.22302e-06
5.22462e-06
5.22635e-06
5.2282e-06
5.23015e-06
5.2322e-06
5.23435e-06
5.23657e-06
5.23885e-06
5.24116e-06
5.24348e-06
5.24578e-06
5.24801e-06
5.25013e-06
5.2521e-06
5.25387e-06
5.25537e-06
5.25656e-06
5.25738e-06
5.25777e-06
5.25769e-06
5.2571e-06
5.25594e-06
5.25408e-06
5.25156e-06
5.24915e-06
5.24626e-06
5.21187e-06
5.21828e-06
5.219e-06
5.21722e-06
5.21597e-06
5.21601e-06
5.21681e-06
5.21784e-06
5.21895e-06
5.22015e-06
5.22149e-06
5.22297e-06
5.2246e-06
5.22636e-06
5.22823e-06
5.23022e-06
5.23232e-06
5.23452e-06
5.23681e-06
5.23917e-06
5.24158e-06
5.24401e-06
5.24643e-06
5.24882e-06
5.25111e-06
5.25328e-06
5.25526e-06
5.25701e-06
5.25846e-06
5.25956e-06
5.26026e-06
5.26049e-06
5.26022e-06
5.25939e-06
5.25796e-06
5.25577e-06
5.25299e-06
5.25056e-06
5.24767e-06
5.21199e-06
5.21819e-06
5.21858e-06
5.21671e-06
5.21559e-06
5.21577e-06
5.21664e-06
5.21771e-06
5.21883e-06
5.22005e-06
5.22142e-06
5.22293e-06
5.22458e-06
5.22635e-06
5.22826e-06
5.23028e-06
5.23242e-06
5.23467e-06
5.23702e-06
5.23945e-06
5.24194e-06
5.24448e-06
5.24702e-06
5.24955e-06
5.25201e-06
5.25436e-06
5.25656e-06
5.25854e-06
5.26025e-06
5.26164e-06
5.26264e-06
5.26319e-06
5.26324e-06
5.26275e-06
5.26167e-06
5.25994e-06
5.25738e-06
5.25442e-06
5.25199e-06
5.24912e-06
5.2121e-06
5.21806e-06
5.21813e-06
5.21622e-06
5.21524e-06
5.21556e-06
5.2165e-06
5.21758e-06
5.21872e-06
5.21996e-06
5.22134e-06
5.22287e-06
5.22454e-06
5.22634e-06
5.22827e-06
5.23032e-06
5.2325e-06
5.23479e-06
5.23719e-06
5.23969e-06
5.24226e-06
5.24489e-06
5.24755e-06
5.25021e-06
5.25283e-06
5.25536e-06
5.25776e-06
5.25997e-06
5.26194e-06
5.2636e-06
5.2649e-06
5.26577e-06
5.26615e-06
5.266e-06
5.26527e-06
5.26392e-06
5.26185e-06
5.25892e-06
5.25586e-06
5.25346e-06
5.25063e-06
5.2122e-06
5.2179e-06
5.21765e-06
5.21575e-06
5.21494e-06
5.21538e-06
5.21637e-06
5.21746e-06
5.21861e-06
5.21987e-06
5.22127e-06
5.22282e-06
5.22451e-06
5.22632e-06
5.22827e-06
5.23035e-06
5.23256e-06
5.23489e-06
5.23734e-06
5.23989e-06
5.24254e-06
5.24525e-06
5.24802e-06
5.2508e-06
5.25356e-06
5.25626e-06
5.25885e-06
5.26129e-06
5.2635e-06
5.26544e-06
5.26703e-06
5.26823e-06
5.26895e-06
5.26915e-06
5.26876e-06
5.26777e-06
5.26612e-06
5.26367e-06
5.2604e-06
5.25733e-06
5.25497e-06
5.25219e-06
5.21228e-06
5.21769e-06
5.21717e-06
5.2153e-06
5.21466e-06
5.21523e-06
5.21625e-06
5.21735e-06
5.21851e-06
5.21979e-06
5.2212e-06
5.22277e-06
5.22446e-06
5.2263e-06
5.22826e-06
5.23036e-06
5.2326e-06
5.23496e-06
5.23745e-06
5.24006e-06
5.24277e-06
5.24556e-06
5.24842e-06
5.25131e-06
5.25421e-06
5.25707e-06
5.25985e-06
5.26249e-06
5.26495e-06
5.26715e-06
5.26904e-06
5.27055e-06
5.27161e-06
5.27216e-06
5.27215e-06
5.27152e-06
5.27024e-06
5.26826e-06
5.2654e-06
5.26189e-06
5.25883e-06
5.25652e-06
5.2538e-06
5.21236e-06
5.21745e-06
5.21668e-06
5.21488e-06
5.21442e-06
5.21509e-06
5.21614e-06
5.21724e-06
5.21841e-06
5.2197e-06
5.22113e-06
5.22271e-06
5.22442e-06
5.22626e-06
5.22824e-06
5.23036e-06
5.23261e-06
5.23501e-06
5.23753e-06
5.24019e-06
5.24295e-06
5.24582e-06
5.24876e-06
5.25176e-06
5.25478e-06
5.25779e-06
5.26074e-06
5.26359e-06
5.26627e-06
5.26873e-06
5.27091e-06
5.27273e-06
5.27413e-06
5.27504e-06
5.2754e-06
5.27515e-06
5.27424e-06
5.27266e-06
5.27031e-06
5.26702e-06
5.26338e-06
5.26036e-06
5.25813e-06
5.25547e-06
5.21242e-06
5.21718e-06
5.21619e-06
5.2145e-06
5.21421e-06
5.21497e-06
5.21603e-06
5.21714e-06
5.21832e-06
5.21962e-06
5.22106e-06
5.22264e-06
5.22436e-06
5.22622e-06
5.22821e-06
5.23034e-06
5.23262e-06
5.23503e-06
5.23759e-06
5.24028e-06
5.24309e-06
5.24602e-06
5.24904e-06
5.25213e-06
5.25527e-06
5.25841e-06
5.26153e-06
5.26456e-06
5.26747e-06
5.27018e-06
5.27263e-06
5.27476e-06
5.2765e-06
5.27777e-06
5.2785e-06
5.27865e-06
5.27813e-06
5.27693e-06
5.27501e-06
5.27225e-06
5.26856e-06
5.2649e-06
5.26193e-06
5.25978e-06
5.25722e-06
5.21246e-06
5.21687e-06
5.21571e-06
5.21415e-06
5.21403e-06
5.21486e-06
5.21593e-06
5.21704e-06
5.21822e-06
5.21954e-06
5.22099e-06
5.22258e-06
5.2243e-06
5.22616e-06
5.22816e-06
5.23031e-06
5.2326e-06
5.23503e-06
5.23761e-06
5.24034e-06
5.24319e-06
5.24617e-06
5.24926e-06
5.25243e-06
5.25567e-06
5.25895e-06
5.26221e-06
5.26542e-06
5.26853e-06
5.27148e-06
5.2742e-06
5.27663e-06
5.2787e-06
5.28033e-06
5.28144e-06
5.28198e-06
5.28188e-06
5.28108e-06
5.27956e-06
5.27728e-06
5.27407e-06
5.27008e-06
5.26644e-06
5.26354e-06
5.2615e-06
5.25903e-06
5.21249e-06
5.21654e-06
5.21524e-06
5.21383e-06
5.21387e-06
5.21476e-06
5.21583e-06
5.21694e-06
5.21813e-06
5.21945e-06
5.22091e-06
5.22251e-06
5.22424e-06
5.2261e-06
5.22811e-06
5.23026e-06
5.23256e-06
5.23501e-06
5.23761e-06
5.24036e-06
5.24325e-06
5.24627e-06
5.24942e-06
5.25267e-06
5.256e-06
5.25938e-06
5.26279e-06
5.26616e-06
5.26947e-06
5.27264e-06
5.27562e-06
5.27834e-06
5.28073e-06
5.28271e-06
5.28421e-06
5.28515e-06
5.28547e-06
5.2851e-06
5.28399e-06
5.28212e-06
5.27945e-06
5.27574e-06
5.27161e-06
5.26801e-06
5.2652e-06
5.26328e-06
5.26092e-06
5.2125e-06
5.21618e-06
5.21478e-06
5.21355e-06
5.21374e-06
5.21467e-06
5.21574e-06
5.21685e-06
5.21804e-06
5.21937e-06
5.22084e-06
5.22244e-06
5.22417e-06
5.22604e-06
5.22805e-06
5.23021e-06
5.23251e-06
5.23497e-06
5.23759e-06
5.24035e-06
5.24327e-06
5.24633e-06
5.24953e-06
5.25284e-06
5.25625e-06
5.25973e-06
5.26326e-06
5.26679e-06
5.27027e-06
5.27366e-06
5.27688e-06
5.27988e-06
5.28258e-06
5.28491e-06
5.28678e-06
5.28813e-06
5.28887e-06
5.28894e-06
5.28828e-06
5.28683e-06
5.2846e-06
5.28148e-06
5.27731e-06
5.27316e-06
5.26963e-06
5.26692e-06
5.26514e-06
5.2629e-06
5.21248e-06
5.2158e-06
5.21435e-06
5.2133e-06
5.21362e-06
5.21458e-06
5.21565e-06
5.21675e-06
5.21796e-06
5.21929e-06
5.22076e-06
5.22236e-06
5.2241e-06
5.22597e-06
5.22798e-06
5.23014e-06
5.23245e-06
5.23491e-06
5.23754e-06
5.24032e-06
5.24326e-06
5.24635e-06
5.24958e-06
5.25294e-06
5.25642e-06
5.26e-06
5.26363e-06
5.2673e-06
5.27094e-06
5.27453e-06
5.27798e-06
5.28125e-06
5.28425e-06
5.28691e-06
5.28916e-06
5.29091e-06
5.29208e-06
5.29259e-06
5.29239e-06
5.2914e-06
5.2896e-06
5.28697e-06
5.28335e-06
5.27886e-06
5.27474e-06
5.27129e-06
5.26871e-06
5.26709e-06
5.26497e-06
5.21245e-06
5.21541e-06
5.21394e-06
5.21309e-06
5.21352e-06
5.2145e-06
5.21556e-06
5.21666e-06
5.21787e-06
5.21921e-06
5.22068e-06
5.22229e-06
5.22402e-06
5.22589e-06
5.2279e-06
5.23006e-06
5.23237e-06
5.23484e-06
5.23746e-06
5.24026e-06
5.24321e-06
5.24632e-06
5.24958e-06
5.25299e-06
5.25653e-06
5.26018e-06
5.26391e-06
5.26769e-06
5.27149e-06
5.27525e-06
5.27892e-06
5.28244e-06
5.28573e-06
5.28872e-06
5.29132e-06
5.29347e-06
5.29506e-06
5.29603e-06
5.2963e-06
5.29579e-06
5.29446e-06
5.29227e-06
5.28922e-06
5.28507e-06
5.28042e-06
5.27636e-06
5.273e-06
5.27057e-06
5.26912e-06
5.26713e-06
5.21239e-06
5.21501e-06
5.21356e-06
5.2129e-06
5.21344e-06
5.21443e-06
5.21547e-06
5.21657e-06
5.21779e-06
5.21913e-06
5.2206e-06
5.22221e-06
5.22394e-06
5.2258e-06
5.22781e-06
5.22997e-06
5.23228e-06
5.23474e-06
5.23737e-06
5.24017e-06
5.24313e-06
5.24625e-06
5.24954e-06
5.25298e-06
5.25657e-06
5.26028e-06
5.26409e-06
5.26798e-06
5.27191e-06
5.27583e-06
5.2797e-06
5.28345e-06
5.28701e-06
5.29031e-06
5.29327e-06
5.2958e-06
5.29782e-06
5.29924e-06
5.29998e-06
5.29997e-06
5.29914e-06
5.29743e-06
5.29484e-06
5.29131e-06
5.28665e-06
5.282e-06
5.27802e-06
5.27478e-06
5.2725e-06
5.27125e-06
5.26939e-06
5.21231e-06
5.2146e-06
5.21321e-06
5.21275e-06
5.21336e-06
5.21436e-06
5.21539e-06
5.21649e-06
5.2177e-06
5.21905e-06
5.22053e-06
5.22213e-06
5.22386e-06
5.22572e-06
5.22772e-06
5.22987e-06
5.23217e-06
5.23464e-06
5.23726e-06
5.24006e-06
5.24302e-06
5.24616e-06
5.24946e-06
5.25292e-06
5.25654e-06
5.2603e-06
5.26419e-06
5.26817e-06
5.27221e-06
5.27628e-06
5.28032e-06
5.28429e-06
5.2881e-06
5.2917e-06
5.29499e-06
5.2979e-06
5.30033e-06
5.3022e-06
5.30342e-06
5.30391e-06
5.3036e-06
5.30241e-06
5.3003e-06
5.29729e-06
5.29321e-06
5.28821e-06
5.28361e-06
5.27973e-06
5.27663e-06
5.27453e-06
5.27348e-06
5.27177e-06
5.21222e-06
5.21419e-06
5.21289e-06
5.21262e-06
5.2133e-06
5.21429e-06
5.21531e-06
5.21641e-06
5.21762e-06
5.21897e-06
5.22045e-06
5.22205e-06
5.22377e-06
5.22563e-06
5.22762e-06
5.22977e-06
5.23206e-06
5.23452e-06
5.23714e-06
5.23993e-06
5.24289e-06
5.24602e-06
5.24934e-06
5.25282e-06
5.25646e-06
5.26026e-06
5.2642e-06
5.26826e-06
5.2724e-06
5.27659e-06
5.2808e-06
5.28495e-06
5.289e-06
5.29287e-06
5.29648e-06
5.29975e-06
5.30259e-06
5.30491e-06
5.3066e-06
5.3076e-06
5.30781e-06
5.30716e-06
5.30558e-06
5.30306e-06
5.29959e-06
5.29493e-06
5.28979e-06
5.28527e-06
5.28151e-06
5.27856e-06
5.27665e-06
5.27582e-06
5.27425e-06
5.2121e-06
5.21378e-06
5.2126e-06
5.21251e-06
5.21324e-06
5.21422e-06
5.21523e-06
5.21633e-06
5.21755e-06
5.2189e-06
5.22037e-06
5.22196e-06
5.22368e-06
5.22554e-06
5.22752e-06
5.22966e-06
5.23194e-06
5.23439e-06
5.237e-06
5.23978e-06
5.24273e-06
5.24587e-06
5.24918e-06
5.25267e-06
5.25633e-06
5.26016e-06
5.26414e-06
5.26825e-06
5.27248e-06
5.27678e-06
5.28112e-06
5.28545e-06
5.28971e-06
5.29384e-06
5.29775e-06
5.30136e-06
5.30459e-06
5.30733e-06
5.30951e-06
5.31101e-06
5.31175e-06
5.31165e-06
5.31064e-06
5.30865e-06
5.30569e-06
5.3017e-06
5.29651e-06
5.2914e-06
5.28697e-06
5.28335e-06
5.28058e-06
5.27887e-06
5.27829e-06
5.27686e-06
5.21196e-06
5.21338e-06
5.21235e-06
5.21243e-06
5.21319e-06
5.21416e-06
5.21516e-06
5.21625e-06
5.21747e-06
5.21882e-06
5.22029e-06
5.22188e-06
5.2236e-06
5.22544e-06
5.22742e-06
5.22955e-06
5.23182e-06
5.23425e-06
5.23685e-06
5.23961e-06
5.24256e-06
5.24568e-06
5.24899e-06
5.25248e-06
5.25615e-06
5.25999e-06
5.264e-06
5.26817e-06
5.27246e-06
5.27685e-06
5.28131e-06
5.28579e-06
5.29024e-06
5.2946e-06
5.29878e-06
5.30272e-06
5.30632e-06
5.30948e-06
5.31211e-06
5.31412e-06
5.31539e-06
5.31585e-06
5.31542e-06
5.31402e-06
5.3116e-06
5.30817e-06
5.30359e-06
5.29808e-06
5.29304e-06
5.28874e-06
5.28527e-06
5.28268e-06
5.2812e-06
5.28087e-06
5.2796e-06
5.2118e-06
5.21299e-06
5.21213e-06
5.21236e-06
5.21315e-06
5.2141e-06
5.21509e-06
5.21618e-06
5.2174e-06
5.21875e-06
5.22022e-06
5.2218e-06
5.22351e-06
5.22535e-06
5.22732e-06
5.22943e-06
5.23169e-06
5.23411e-06
5.23669e-06
5.23944e-06
5.24237e-06
5.24548e-06
5.24877e-06
5.25225e-06
5.25592e-06
5.25978e-06
5.26381e-06
5.268e-06
5.27234e-06
5.27681e-06
5.28137e-06
5.28598e-06
5.2906e-06
5.29516e-06
5.29959e-06
5.30383e-06
5.30777e-06
5.31134e-06
5.31442e-06
5.31691e-06
5.31872e-06
5.31975e-06
5.3199e-06
5.3191e-06
5.31728e-06
5.3144e-06
5.31049e-06
5.30527e-06
5.29968e-06
5.29474e-06
5.29057e-06
5.28727e-06
5.28489e-06
5.28364e-06
5.28359e-06
5.28247e-06
5.21162e-06
5.21262e-06
5.21194e-06
5.21232e-06
5.21312e-06
5.21405e-06
5.21502e-06
5.21611e-06
5.21733e-06
5.21868e-06
5.22014e-06
5.22172e-06
5.22343e-06
5.22525e-06
5.22721e-06
5.22931e-06
5.23156e-06
5.23396e-06
5.23652e-06
5.23925e-06
5.24216e-06
5.24525e-06
5.24853e-06
5.252e-06
5.25566e-06
5.25951e-06
5.26355e-06
5.26777e-06
5.27214e-06
5.27667e-06
5.2813e-06
5.28603e-06
5.29078e-06
5.29553e-06
5.30019e-06
5.3047e-06
5.30897e-06
5.31291e-06
5.31641e-06
5.31939e-06
5.32172e-06
5.32331e-06
5.32406e-06
5.32387e-06
5.32268e-06
5.32041e-06
5.31706e-06
5.31258e-06
5.30685e-06
5.3013e-06
5.29648e-06
5.29247e-06
5.28937e-06
5.28721e-06
5.28621e-06
5.28645e-06
5.28547e-06
5.21143e-06
5.21227e-06
5.21179e-06
5.21229e-06
5.21309e-06
5.21401e-06
5.21497e-06
5.21605e-06
5.21727e-06
5.21861e-06
5.22007e-06
5.22165e-06
5.22334e-06
5.22516e-06
5.22711e-06
5.22919e-06
5.23142e-06
5.2338e-06
5.23634e-06
5.23906e-06
5.24194e-06
5.24501e-06
5.24827e-06
5.25172e-06
5.25537e-06
5.25921e-06
5.26325e-06
5.26747e-06
5.27187e-06
5.27643e-06
5.28113e-06
5.28594e-06
5.29082e-06
5.29571e-06
5.30058e-06
5.30533e-06
5.3099e-06
5.31419e-06
5.3181e-06
5.32153e-06
5.32438e-06
5.32652e-06
5.32786e-06
5.3283e-06
5.32775e-06
5.32614e-06
5.3234e-06
5.31955e-06
5.31442e-06
5.30842e-06
5.30298e-06
5.2983e-06
5.29446e-06
5.29157e-06
5.28964e-06
5.28891e-06
5.28944e-06
5.28862e-06
5.21122e-06
5.21194e-06
5.21168e-06
5.21227e-06
5.21307e-06
5.21397e-06
5.21491e-06
5.21599e-06
5.21721e-06
5.21854e-06
5.22e-06
5.22157e-06
5.22326e-06
5.22507e-06
5.227e-06
5.22907e-06
5.23128e-06
5.23364e-06
5.23616e-06
5.23885e-06
5.24172e-06
5.24476e-06
5.24799e-06
5.25142e-06
5.25504e-06
5.25887e-06
5.26289e-06
5.26711e-06
5.27152e-06
5.27611e-06
5.28085e-06
5.28573e-06
5.2907e-06
5.29573e-06
5.30076e-06
5.30574e-06
5.31057e-06
5.31518e-06
5.31947e-06
5.32334e-06
5.32668e-06
5.32937e-06
5.3313e-06
5.33237e-06
5.33247e-06
5.33152e-06
5.32945e-06
5.32622e-06
5.32184e-06
5.31604e-06
5.31002e-06
5.30471e-06
5.30019e-06
5.29654e-06
5.29387e-06
5.29219e-06
5.29174e-06
5.29259e-06
5.29191e-06
5.211e-06
5.21164e-06
5.21159e-06
5.21227e-06
5.21306e-06
5.21393e-06
5.21487e-06
5.21594e-06
5.21715e-06
5.21848e-06
5.21994e-06
5.2215e-06
5.22318e-06
5.22498e-06
5.2269e-06
5.22895e-06
5.23114e-06
5.23349e-06
5.23598e-06
5.23865e-06
5.24148e-06
5.2445e-06
5.2477e-06
5.2511e-06
5.2547e-06
5.2585e-06
5.2625e-06
5.26671e-06
5.27111e-06
5.27571e-06
5.28048e-06
5.2854e-06
5.29045e-06
5.29559e-06
5.30077e-06
5.30593e-06
5.311e-06
5.3159e-06
5.32054e-06
5.32482e-06
5.32862e-06
5.33184e-06
5.33435e-06
5.33604e-06
5.3368e-06
5.33654e-06
5.33517e-06
5.33261e-06
5.32887e-06
5.32387e-06
5.31759e-06
5.31168e-06
5.3065e-06
5.30216e-06
5.29872e-06
5.29629e-06
5.29488e-06
5.29472e-06
5.29589e-06
5.29536e-06
5.21077e-06
5.21137e-06
5.21153e-06
5.21227e-06
5.21305e-06
5.21391e-06
5.21483e-06
5.2159e-06
5.2171e-06
5.21843e-06
5.21987e-06
5.22143e-06
5.2231e-06
5.22489e-06
5.2268e-06
5.22883e-06
5.23101e-06
5.23333e-06
5.2358e-06
5.23843e-06
5.24124e-06
5.24423e-06
5.2474e-06
5.25076e-06
5.25433e-06
5.2581e-06
5.26207e-06
5.26626e-06
5.27065e-06
5.27524e-06
5.28002e-06
5.28497e-06
5.29008e-06
5.2953e-06
5.30059e-06
5.30591e-06
5.31119e-06
5.31635e-06
5.32131e-06
5.32596e-06
5.33021e-06
5.33392e-06
5.33699e-06
5.3393e-06
5.34072e-06
5.34115e-06
5.34049e-06
5.33866e-06
5.3356e-06
5.33133e-06
5.32562e-06
5.31918e-06
5.31339e-06
5.30838e-06
5.30423e-06
5.30102e-06
5.29884e-06
5.2977e-06
5.29784e-06
5.29935e-06
5.29896e-06
5.21053e-06
5.21114e-06
5.2115e-06
5.21229e-06
5.21305e-06
5.21389e-06
5.21479e-06
5.21585e-06
5.21705e-06
5.21837e-06
5.21981e-06
5.22137e-06
5.22303e-06
5.2248e-06
5.2267e-06
5.22872e-06
5.23087e-06
5.23317e-06
5.23562e-06
5.23822e-06
5.241e-06
5.24395e-06
5.24708e-06
5.25041e-06
5.25394e-06
5.25767e-06
5.26162e-06
5.26577e-06
5.27013e-06
5.27471e-06
5.27949e-06
5.28445e-06
5.28959e-06
5.29487e-06
5.30026e-06
5.30571e-06
5.31116e-06
5.31655e-06
5.32179e-06
5.32679e-06
5.33144e-06
5.33563e-06
5.33923e-06
5.34213e-06
5.3442e-06
5.34533e-06
5.34539e-06
5.34431e-06
5.342e-06
5.3384e-06
5.33355e-06
5.32719e-06
5.32081e-06
5.31516e-06
5.31034e-06
5.3064e-06
5.30343e-06
5.30152e-06
5.30067e-06
5.30112e-06
5.30297e-06
5.30273e-06
5.21029e-06
5.21094e-06
5.2115e-06
5.21232e-06
5.21306e-06
5.21388e-06
5.21477e-06
5.21582e-06
5.21701e-06
5.21833e-06
5.21976e-06
5.2213e-06
5.22296e-06
5.22472e-06
5.2266e-06
5.22861e-06
5.23074e-06
5.23301e-06
5.23543e-06
5.23801e-06
5.24075e-06
5.24367e-06
5.24677e-06
5.25005e-06
5.25354e-06
5.25723e-06
5.26113e-06
5.26525e-06
5.26958e-06
5.27413e-06
5.27889e-06
5.28385e-06
5.289e-06
5.29432e-06
5.29977e-06
5.30532e-06
5.31092e-06
5.3165e-06
5.32199e-06
5.3273e-06
5.33232e-06
5.33695e-06
5.34106e-06
5.34454e-06
5.34724e-06
5.34905e-06
5.34985e-06
5.34952e-06
5.34798e-06
5.34515e-06
5.34102e-06
5.33548e-06
5.32875e-06
5.3225e-06
5.31702e-06
5.31239e-06
5.30868e-06
5.30597e-06
5.30434e-06
5.30379e-06
5.30456e-06
5.30675e-06
5.30665e-06
5.21005e-06
5.21078e-06
5.21152e-06
5.21236e-06
5.21308e-06
5.21388e-06
5.21475e-06
5.21579e-06
5.21697e-06
5.21828e-06
5.21971e-06
5.22125e-06
5.22289e-06
5.22465e-06
5.22651e-06
5.2285e-06
5.23061e-06
5.23286e-06
5.23525e-06
5.2378e-06
5.24051e-06
5.24338e-06
5.24644e-06
5.24969e-06
5.25313e-06
5.25678e-06
5.26063e-06
5.2647e-06
5.26899e-06
5.2735e-06
5.27823e-06
5.28317e-06
5.28832e-06
5.29365e-06
5.29915e-06
5.30478e-06
5.31049e-06
5.31623e-06
5.32193e-06
5.32751e-06
5.33287e-06
5.3379e-06
5.34249e-06
5.34651e-06
5.34982e-06
5.3523e-06
5.35382e-06
5.35426e-06
5.35351e-06
5.35148e-06
5.34811e-06
5.34341e-06
5.33712e-06
5.33034e-06
5.32425e-06
5.31896e-06
5.31454e-06
5.31109e-06
5.30864e-06
5.3073e-06
5.30706e-06
5.30816e-06
5.31071e-06
5.31075e-06
5.2098e-06
5.21066e-06
5.21156e-06
5.21241e-06
5.21311e-06
5.21389e-06
5.21475e-06
5.21577e-06
5.21694e-06
5.21824e-06
5.21966e-06
5.22119e-06
5.22283e-06
5.22457e-06
5.22642e-06
5.22839e-06
5.23049e-06
5.23271e-06
5.23508e-06
5.23759e-06
5.24026e-06
5.2431e-06
5.24612e-06
5.24932e-06
5.25271e-06
5.25631e-06
5.26011e-06
5.26413e-06
5.26837e-06
5.27283e-06
5.27752e-06
5.28243e-06
5.28756e-06
5.29289e-06
5.29841e-06
5.30408e-06
5.30987e-06
5.31574e-06
5.32162e-06
5.32743e-06
5.33309e-06
5.33848e-06
5.34351e-06
5.34804e-06
5.35194e-06
5.35507e-06
5.3573e-06
5.3585e-06
5.35855e-06
5.35734e-06
5.3548e-06
5.35086e-06
5.34552e-06
5.33865e-06
5.33199e-06
5.32607e-06
5.32099e-06
5.31681e-06
5.31361e-06
5.31145e-06
5.31041e-06
5.31049e-06
5.31192e-06
5.31484e-06
5.31501e-06
5.20956e-06
5.21058e-06
5.21163e-06
5.21247e-06
5.21314e-06
5.2139e-06
5.21475e-06
5.21576e-06
5.21691e-06
5.21821e-06
5.21962e-06
5.22115e-06
5.22277e-06
5.2245e-06
5.22634e-06
5.22829e-06
5.23037e-06
5.23257e-06
5.2349e-06
5.23738e-06
5.24002e-06
5.24282e-06
5.24579e-06
5.24895e-06
5.25229e-06
5.25583e-06
5.25958e-06
5.26355e-06
5.26773e-06
5.27214e-06
5.27677e-06
5.28164e-06
5.28673e-06
5.29204e-06
5.29755e-06
5.30325e-06
5.3091e-06
5.31506e-06
5.32107e-06
5.32708e-06
5.33299e-06
5.33872e-06
5.34414e-06
5.34914e-06
5.35359e-06
5.35734e-06
5.36027e-06
5.36222e-06
5.36307e-06
5.3627e-06
5.36101e-06
5.35791e-06
5.3534e-06
5.3473e-06
5.3402e-06
5.3337e-06
5.32798e-06
5.32312e-06
5.3192e-06
5.31628e-06
5.3144e-06
5.31368e-06
5.31409e-06
5.31586e-06
5.31914e-06
5.31944e-06
5.20933e-06
5.21054e-06
5.2117e-06
5.21254e-06
5.21319e-06
5.21393e-06
5.21476e-06
5.21575e-06
5.2169e-06
5.21818e-06
5.21959e-06
5.2211e-06
5.22272e-06
5.22444e-06
5.22626e-06
5.2282e-06
5.23025e-06
5.23243e-06
5.23474e-06
5.23718e-06
5.23978e-06
5.24254e-06
5.24547e-06
5.24858e-06
5.25187e-06
5.25535e-06
5.25904e-06
5.26295e-06
5.26707e-06
5.27141e-06
5.27599e-06
5.2808e-06
5.28584e-06
5.29111e-06
5.2966e-06
5.3023e-06
5.30817e-06
5.3142e-06
5.32032e-06
5.32648e-06
5.33261e-06
5.33861e-06
5.34439e-06
5.34982e-06
5.35478e-06
5.35912e-06
5.36271e-06
5.3654e-06
5.36704e-06
5.36751e-06
5.36669e-06
5.36448e-06
5.3608e-06
5.35569e-06
5.34883e-06
5.3418e-06
5.33549e-06
5.32999e-06
5.32538e-06
5.32172e-06
5.31908e-06
5.31751e-06
5.31712e-06
5.31786e-06
5.31997e-06
5.32362e-06
5.32404e-06
5.2091e-06
5.21055e-06
5.2118e-06
5.21262e-06
5.21325e-06
5.21397e-06
5.21478e-06
5.21575e-06
5.21688e-06
5.21816e-06
5.21956e-06
5.22106e-06
5.22267e-06
5.22438e-06
5.22619e-06
5.22811e-06
5.23014e-06
5.23229e-06
5.23457e-06
5.23699e-06
5.23955e-06
5.24227e-06
5.24515e-06
5.24821e-06
5.25144e-06
5.25487e-06
5.2585e-06
5.26234e-06
5.26639e-06
5.27067e-06
5.27518e-06
5.27992e-06
5.2849e-06
5.29012e-06
5.29557e-06
5.30124e-06
5.30712e-06
5.31317e-06
5.31936e-06
5.32564e-06
5.33194e-06
5.33818e-06
5.34427e-06
5.35009e-06
5.35551e-06
5.36041e-06
5.36463e-06
5.36802e-06
5.37044e-06
5.37175e-06
5.3718e-06
5.3705e-06
5.36774e-06
5.36348e-06
5.35765e-06
5.35035e-06
5.34348e-06
5.33737e-06
5.3321e-06
5.32775e-06
5.32438e-06
5.32204e-06
5.32078e-06
5.32072e-06
5.3218e-06
5.32426e-06
5.32828e-06
5.32882e-06
5.20888e-06
5.21058e-06
5.2119e-06
5.2127e-06
5.21333e-06
5.21403e-06
5.2148e-06
5.21576e-06
5.21688e-06
5.21814e-06
5.21953e-06
5.22103e-06
5.22263e-06
5.22433e-06
5.22613e-06
5.22803e-06
5.23004e-06
5.23217e-06
5.23442e-06
5.2368e-06
5.23933e-06
5.242e-06
5.24484e-06
5.24784e-06
5.25102e-06
5.25439e-06
5.25796e-06
5.26173e-06
5.26571e-06
5.26991e-06
5.27435e-06
5.27901e-06
5.28392e-06
5.28908e-06
5.29447e-06
5.3001e-06
5.30595e-06
5.31201e-06
5.31824e-06
5.32459e-06
5.33102e-06
5.33746e-06
5.3438e-06
5.34996e-06
5.35581e-06
5.36121e-06
5.36602e-06
5.37009e-06
5.37326e-06
5.37539e-06
5.37632e-06
5.37594e-06
5.37412e-06
5.37078e-06
5.36592e-06
5.35927e-06
5.35191e-06
5.34523e-06
5.33935e-06
5.33434e-06
5.33027e-06
5.32718e-06
5.32515e-06
5.32422e-06
5.32449e-06
5.32592e-06
5.32873e-06
5.33312e-06
5.33377e-06
5.20868e-06
5.21066e-06
5.21201e-06
5.2128e-06
5.21341e-06
5.21409e-06
5.21484e-06
5.21578e-06
5.21688e-06
5.21813e-06
5.21951e-06
5.221e-06
5.22259e-06
5.22428e-06
5.22607e-06
5.22795e-06
5.22994e-06
5.23205e-06
5.23427e-06
5.23662e-06
5.23911e-06
5.24174e-06
5.24453e-06
5.24748e-06
5.25061e-06
5.25392e-06
5.25741e-06
5.26111e-06
5.26502e-06
5.26915e-06
5.2735e-06
5.27808e-06
5.28291e-06
5.28799e-06
5.29331e-06
5.29888e-06
5.30468e-06
5.31072e-06
5.31695e-06
5.32335e-06
5.32987e-06
5.33645e-06
5.34301e-06
5.34946e-06
5.35567e-06
5.36153e-06
5.36689e-06
5.37159e-06
5.37549e-06
5.37842e-06
5.38022e-06
5.38075e-06