/*--------------------------------*- C++ -*----------------------------------*\
  =========                 |
  \\      /  F ield         | OpenFOAM: The Open Source CFD Toolbox
   \\    /   O peration     | Website:  https://openfoam.org
    \\  /    A nd           | Version:  7
     \\/     M anipulation  |
\*---------------------------------------------------------------------------*/
FoamFile
{
    version     2.0;
    format      ascii;
    class       volScalarField;
    location    "600";
    object      nuTilda;
}
// * * * * * * * * * * * * * * * * * * * * * * * * * * * * * * * * * * * * * //

dimensions      [0 2 -1 0 0 0 0];

internalField   nonuniform List<scalar> 
23117
(
3.43201e-05
3.43193e-05
3.43228e-05
3.43206e-05
3.43248e-05
3.43316e-05
3.4322e-05
3.43269e-05
3.43355e-05
3.43429e-05
3.43226e-05
3.43288e-05
3.43375e-05
3.43463e-05
3.43507e-05
3.4323e-05
3.43302e-05
3.43393e-05
3.43473e-05
3.43517e-05
3.43514e-05
3.43235e-05
3.43314e-05
3.43407e-05
3.43483e-05
3.43514e-05
3.43503e-05
3.43474e-05
3.4324e-05
3.43325e-05
3.43419e-05
3.43488e-05
3.43512e-05
3.43494e-05
3.4346e-05
3.43442e-05
3.43245e-05
3.43336e-05
3.43429e-05
3.43492e-05
3.43507e-05
3.43485e-05
3.43454e-05
3.43435e-05
3.43443e-05
3.43249e-05
3.43346e-05
3.43438e-05
3.43494e-05
3.43502e-05
3.43478e-05
3.43449e-05
3.43436e-05
3.4344e-05
3.43463e-05
3.43253e-05
3.43354e-05
3.43444e-05
3.43494e-05
3.43497e-05
3.43472e-05
3.43447e-05
3.43439e-05
3.4345e-05
3.43468e-05
3.43492e-05
3.43257e-05
3.43361e-05
3.43449e-05
3.43493e-05
3.43493e-05
3.43469e-05
3.43449e-05
3.43446e-05
3.43462e-05
3.43487e-05
3.43508e-05
3.43524e-05
3.4326e-05
3.43367e-05
3.43452e-05
3.43492e-05
3.43489e-05
3.43468e-05
3.43453e-05
3.43457e-05
3.43476e-05
3.43502e-05
3.43529e-05
3.43547e-05
3.43551e-05
3.43263e-05
3.43372e-05
3.43455e-05
3.43491e-05
3.43487e-05
3.43468e-05
3.4346e-05
3.43469e-05
3.43491e-05
3.43519e-05
3.43543e-05
3.43561e-05
3.4357e-05
3.43564e-05
3.43266e-05
3.43376e-05
3.43457e-05
3.4349e-05
3.43486e-05
3.43471e-05
3.43468e-05
3.43481e-05
3.43506e-05
3.43532e-05
3.43554e-05
3.43568e-05
3.43574e-05
3.43574e-05
3.43564e-05
3.43269e-05
3.4338e-05
3.43459e-05
3.43489e-05
3.43486e-05
3.43476e-05
3.43477e-05
3.43493e-05
3.43517e-05
3.43542e-05
3.43561e-05
3.43572e-05
3.43575e-05
3.43572e-05
3.43568e-05
3.43556e-05
3.43271e-05
3.43383e-05
3.4346e-05
3.4349e-05
3.43488e-05
3.43481e-05
3.43485e-05
3.43503e-05
3.43526e-05
3.43548e-05
3.43563e-05
3.43571e-05
3.43573e-05
3.43571e-05
3.43566e-05
3.43561e-05
3.43551e-05
3.43273e-05
3.43386e-05
3.43462e-05
3.43491e-05
3.4349e-05
3.43486e-05
3.43493e-05
3.4351e-05
3.43532e-05
3.4355e-05
3.43562e-05
3.43568e-05
3.4357e-05
3.43568e-05
3.43566e-05
3.43563e-05
3.43561e-05
3.43552e-05
3.43274e-05
3.43389e-05
3.43464e-05
3.43492e-05
3.43493e-05
3.43491e-05
3.43499e-05
3.43515e-05
3.43534e-05
3.43549e-05
3.43559e-05
3.43564e-05
3.43566e-05
3.43566e-05
3.43567e-05
3.43568e-05
3.43569e-05
3.4357e-05
3.43561e-05
3.43276e-05
3.43392e-05
3.43466e-05
3.43494e-05
3.43496e-05
3.43495e-05
3.43502e-05
3.43517e-05
3.43533e-05
3.43546e-05
3.43554e-05
3.43559e-05
3.43562e-05
3.43565e-05
3.43569e-05
3.43573e-05
3.43578e-05
3.43582e-05
3.43586e-05
3.43575e-05
3.43277e-05
3.43394e-05
3.43468e-05
3.43496e-05
3.43499e-05
3.43498e-05
3.43504e-05
3.43516e-05
3.4353e-05
3.43541e-05
3.43548e-05
3.43554e-05
3.43559e-05
3.43565e-05
3.43572e-05
3.4358e-05
3.43588e-05
3.43595e-05
3.43601e-05
3.43605e-05
3.43593e-05
3.43279e-05
3.43397e-05
3.43471e-05
3.43499e-05
3.43501e-05
3.43499e-05
3.43503e-05
3.43513e-05
3.43525e-05
3.43534e-05
3.43542e-05
3.43549e-05
3.43556e-05
3.43565e-05
3.43576e-05
3.43587e-05
3.43598e-05
3.43609e-05
3.43617e-05
3.43623e-05
3.43627e-05
3.43612e-05
3.4328e-05
3.434e-05
3.43474e-05
3.43501e-05
3.43502e-05
3.43498e-05
3.435e-05
3.43508e-05
3.43518e-05
3.43528e-05
3.43536e-05
3.43545e-05
3.43555e-05
3.43566e-05
3.4358e-05
3.43594e-05
3.43609e-05
3.43622e-05
3.43633e-05
3.43642e-05
3.43648e-05
3.43651e-05
3.43632e-05
3.43281e-05
3.43403e-05
3.43477e-05
3.43502e-05
3.43501e-05
3.43495e-05
3.43496e-05
3.43502e-05
3.43512e-05
3.43521e-05
3.43531e-05
3.43541e-05
3.43554e-05
3.43568e-05
3.43584e-05
3.43601e-05
3.43618e-05
3.43635e-05
3.43649e-05
3.4366e-05
3.43669e-05
3.43673e-05
3.43674e-05
3.43653e-05
3.43283e-05
3.43406e-05
3.4348e-05
3.43503e-05
3.43499e-05
3.43491e-05
3.4349e-05
3.43495e-05
3.43504e-05
3.43515e-05
3.43526e-05
3.43539e-05
3.43553e-05
3.4357e-05
3.43589e-05
3.43608e-05
3.43628e-05
3.43646e-05
3.43663e-05
3.43678e-05
3.43689e-05
3.43696e-05
3.43699e-05
3.43699e-05
3.43674e-05
3.43284e-05
3.43409e-05
3.43482e-05
3.43503e-05
3.43496e-05
3.43485e-05
3.43482e-05
3.43488e-05
3.43497e-05
3.43509e-05
3.43522e-05
3.43536e-05
3.43553e-05
3.43572e-05
3.43593e-05
3.43615e-05
3.43637e-05
3.43658e-05
3.43677e-05
3.43694e-05
3.43708e-05
3.43719e-05
3.43725e-05
3.43727e-05
3.43724e-05
3.43696e-05
3.43286e-05
3.43413e-05
3.43485e-05
3.43502e-05
3.43491e-05
3.43478e-05
3.43475e-05
3.4348e-05
3.43491e-05
3.43504e-05
3.43518e-05
3.43534e-05
3.43553e-05
3.43575e-05
3.43597e-05
3.43621e-05
3.43645e-05
3.43668e-05
3.4369e-05
3.43709e-05
3.43726e-05
3.4374e-05
3.4375e-05
3.43755e-05
3.43755e-05
3.4375e-05
3.43718e-05
3.43287e-05
3.43416e-05
3.43486e-05
3.43499e-05
3.43485e-05
3.4347e-05
3.43466e-05
3.43473e-05
3.43485e-05
3.43499e-05
3.43515e-05
3.43533e-05
3.43554e-05
3.43576e-05
3.43601e-05
3.43626e-05
3.43652e-05
3.43677e-05
3.43702e-05
3.43724e-05
3.43744e-05
3.43761e-05
3.43774e-05
3.43783e-05
3.43786e-05
3.43784e-05
3.43777e-05
3.4374e-05
3.43289e-05
3.4342e-05
3.43487e-05
3.43496e-05
3.43477e-05
3.43461e-05
3.43458e-05
3.43466e-05
3.43479e-05
3.43494e-05
3.43512e-05
3.43531e-05
3.43554e-05
3.43578e-05
3.43604e-05
3.43631e-05
3.43659e-05
3.43686e-05
3.43713e-05
3.43738e-05
3.4376e-05
3.43781e-05
3.43797e-05
3.4381e-05
3.43817e-05
3.43819e-05
3.43814e-05
3.43804e-05
3.43763e-05
3.43291e-05
3.43423e-05
3.43488e-05
3.43491e-05
3.43469e-05
3.43452e-05
3.4345e-05
3.43459e-05
3.43474e-05
3.4349e-05
3.43509e-05
3.4353e-05
3.43554e-05
3.4358e-05
3.43607e-05
3.43636e-05
3.43665e-05
3.43694e-05
3.43723e-05
3.4375e-05
3.43776e-05
3.43799e-05
3.4382e-05
3.43836e-05
3.43847e-05
3.43853e-05
3.43853e-05
3.43845e-05
3.43832e-05
3.43786e-05
3.43293e-05
3.43426e-05
3.43487e-05
3.43484e-05
3.4346e-05
3.43443e-05
3.43443e-05
3.43454e-05
3.43469e-05
3.43487e-05
3.43507e-05
3.43529e-05
3.43554e-05
3.43581e-05
3.4361e-05
3.4364e-05
3.43671e-05
3.43702e-05
3.43732e-05
3.43762e-05
3.43791e-05
3.43817e-05
3.43841e-05
3.4386e-05
3.43876e-05
3.43886e-05
3.4389e-05
3.43887e-05
3.43877e-05
3.43859e-05
3.43808e-05
3.43295e-05
3.43429e-05
3.43485e-05
3.43477e-05
3.4345e-05
3.43434e-05
3.43436e-05
3.43448e-05
3.43465e-05
3.43484e-05
3.43505e-05
3.43528e-05
3.43554e-05
3.43582e-05
3.43612e-05
3.43644e-05
3.43676e-05
3.43709e-05
3.43741e-05
3.43773e-05
3.43805e-05
3.43834e-05
3.43861e-05
3.43884e-05
3.43903e-05
3.43918e-05
3.43926e-05
3.43928e-05
3.43922e-05
3.43908e-05
3.43886e-05
3.43831e-05
3.43297e-05
3.43432e-05
3.43482e-05
3.43469e-05
3.4344e-05
3.43426e-05
3.43429e-05
3.43443e-05
3.43461e-05
3.43481e-05
3.43503e-05
3.43527e-05
3.43554e-05
3.43583e-05
3.43614e-05
3.43647e-05
3.4368e-05
3.43715e-05
3.43749e-05
3.43784e-05
3.43817e-05
3.43849e-05
3.43879e-05
3.43906e-05
3.4393e-05
3.43948e-05
3.43961e-05
3.43967e-05
3.43967e-05
3.43958e-05
3.4394e-05
3.43913e-05
3.43854e-05
3.433e-05
3.43434e-05
3.43479e-05
3.4346e-05
3.4343e-05
3.43418e-05
3.43424e-05
3.43439e-05
3.43458e-05
3.43478e-05
3.43501e-05
3.43526e-05
3.43554e-05
3.43584e-05
3.43616e-05
3.4365e-05
3.43685e-05
3.4372e-05
3.43757e-05
3.43793e-05
3.43829e-05
3.43864e-05
3.43897e-05
3.43928e-05
3.43955e-05
3.43977e-05
3.43994e-05
3.44006e-05
3.4401e-05
3.44006e-05
3.43994e-05
3.43971e-05
3.4394e-05
3.43877e-05
3.43302e-05
3.43435e-05
3.43474e-05
3.43451e-05
3.43421e-05
3.4341e-05
3.43418e-05
3.43435e-05
3.43455e-05
3.43476e-05
3.43499e-05
3.43525e-05
3.43554e-05
3.43584e-05
3.43617e-05
3.43652e-05
3.43688e-05
3.43725e-05
3.43763e-05
3.43802e-05
3.4384e-05
3.43878e-05
3.43914e-05
3.43947e-05
3.43978e-05
3.44005e-05
3.44026e-05
3.44042e-05
3.44051e-05
3.44053e-05
3.44046e-05
3.4403e-05
3.44002e-05
3.43966e-05
3.43901e-05
3.43305e-05
3.43436e-05
3.43468e-05
3.43441e-05
3.43411e-05
3.43403e-05
3.43414e-05
3.43432e-05
3.43452e-05
3.43473e-05
3.43497e-05
3.43524e-05
3.43553e-05
3.43585e-05
3.43619e-05
3.43654e-05
3.43691e-05
3.4373e-05
3.43769e-05
3.4381e-05
3.4385e-05
3.4389e-05
3.43929e-05
3.43966e-05
3.44e-05
3.44031e-05
3.44057e-05
3.44077e-05
3.44092e-05
3.44098e-05
3.44097e-05
3.44086e-05
3.44066e-05
3.44033e-05
3.43991e-05
3.43925e-05
3.43307e-05
3.43436e-05
3.43462e-05
3.43431e-05
3.43402e-05
3.43397e-05
3.4341e-05
3.43428e-05
3.43449e-05
3.43471e-05
3.43496e-05
3.43523e-05
3.43553e-05
3.43585e-05
3.4362e-05
3.43656e-05
3.43694e-05
3.43734e-05
3.43775e-05
3.43817e-05
3.43859e-05
3.43901e-05
3.43943e-05
3.43983e-05
3.44021e-05
3.44055e-05
3.44086e-05
3.44111e-05
3.4413e-05
3.44142e-05
3.44146e-05
3.44141e-05
3.44126e-05
3.44101e-05
3.44062e-05
3.44016e-05
3.43949e-05
3.43309e-05
3.43435e-05
3.43454e-05
3.43421e-05
3.43394e-05
3.43392e-05
3.43406e-05
3.43426e-05
3.43447e-05
3.43469e-05
3.43494e-05
3.43522e-05
3.43552e-05
3.43585e-05
3.4362e-05
3.43657e-05
3.43696e-05
3.43737e-05
3.4378e-05
3.43823e-05
3.43867e-05
3.43912e-05
3.43956e-05
3.43999e-05
3.4404e-05
3.44078e-05
3.44113e-05
3.44142e-05
3.44167e-05
3.44184e-05
3.44193e-05
3.44194e-05
3.44185e-05
3.44166e-05
3.44135e-05
3.4409e-05
3.44041e-05
3.43974e-05
3.43312e-05
3.43434e-05
3.43446e-05
3.43411e-05
3.43386e-05
3.43387e-05
3.43403e-05
3.43423e-05
3.43444e-05
3.43467e-05
3.43493e-05
3.43521e-05
3.43552e-05
3.43585e-05
3.43621e-05
3.43659e-05
3.43698e-05
3.4374e-05
3.43784e-05
3.43829e-05
3.43875e-05
3.43921e-05
3.43968e-05
3.44013e-05
3.44057e-05
3.44099e-05
3.44138e-05
3.44172e-05
3.44201e-05
3.44224e-05
3.44239e-05
3.44245e-05
3.44243e-05
3.4423e-05
3.44206e-05
3.44169e-05
3.44117e-05
3.44067e-05
3.44e-05
3.43314e-05
3.43432e-05
3.43438e-05
3.43401e-05
3.43379e-05
3.43383e-05
3.434e-05
3.4342e-05
3.43442e-05
3.43465e-05
3.43491e-05
3.4352e-05
3.43551e-05
3.43585e-05
3.43621e-05
3.43659e-05
3.437e-05
3.43743e-05
3.43787e-05
3.43833e-05
3.43881e-05
3.43929e-05
3.43978e-05
3.44026e-05
3.44073e-05
3.44119e-05
3.44161e-05
3.442e-05
3.44234e-05
3.44262e-05
3.44282e-05
3.44295e-05
3.44298e-05
3.44291e-05
3.44274e-05
3.44245e-05
3.44201e-05
3.44144e-05
3.44093e-05
3.44026e-05
3.43316e-05
3.43429e-05
3.43429e-05
3.43391e-05
3.43372e-05
3.43379e-05
3.43397e-05
3.43418e-05
3.4344e-05
3.43463e-05
3.4349e-05
3.43519e-05
3.4355e-05
3.43584e-05
3.43621e-05
3.4366e-05
3.43701e-05
3.43745e-05
3.4379e-05
3.43838e-05
3.43886e-05
3.43937e-05
3.43987e-05
3.44038e-05
3.44088e-05
3.44137e-05
3.44183e-05
3.44226e-05
3.44264e-05
3.44297e-05
3.44323e-05
3.44342e-05
3.44351e-05
3.44351e-05
3.4434e-05
3.44317e-05
3.44282e-05
3.44231e-05
3.4417e-05
3.44119e-05
3.44053e-05
3.43318e-05
3.43426e-05
3.43419e-05
3.43382e-05
3.43367e-05
3.43376e-05
3.43395e-05
3.43416e-05
3.43438e-05
3.43462e-05
3.43488e-05
3.43517e-05
3.43549e-05
3.43584e-05
3.43621e-05
3.4366e-05
3.43702e-05
3.43746e-05
3.43792e-05
3.43841e-05
3.43891e-05
3.43943e-05
3.43995e-05
3.44048e-05
3.44101e-05
3.44153e-05
3.44202e-05
3.44249e-05
3.44292e-05
3.4433e-05
3.44362e-05
3.44387e-05
3.44402e-05
3.44408e-05
3.44404e-05
3.44388e-05
3.4436e-05
3.44318e-05
3.4426e-05
3.44197e-05
3.44147e-05
3.44081e-05
3.43319e-05
3.43421e-05
3.4341e-05
3.43374e-05
3.43362e-05
3.43373e-05
3.43393e-05
3.43414e-05
3.43436e-05
3.4346e-05
3.43487e-05
3.43516e-05
3.43548e-05
3.43583e-05
3.4362e-05
3.4366e-05
3.43702e-05
3.43747e-05
3.43794e-05
3.43843e-05
3.43895e-05
3.43948e-05
3.44002e-05
3.44057e-05
3.44112e-05
3.44167e-05
3.4422e-05
3.44271e-05
3.44318e-05
3.44361e-05
3.44398e-05
3.44429e-05
3.44451e-05
3.44463e-05
3.44466e-05
3.44457e-05
3.44435e-05
3.44402e-05
3.44353e-05
3.44287e-05
3.44224e-05
3.44175e-05
3.4411e-05
3.43321e-05
3.43416e-05
3.434e-05
3.43366e-05
3.43357e-05
3.4337e-05
3.4339e-05
3.43412e-05
3.43434e-05
3.43458e-05
3.43485e-05
3.43515e-05
3.43547e-05
3.43582e-05
3.43619e-05
3.4366e-05
3.43702e-05
3.43747e-05
3.43795e-05
3.43845e-05
3.43898e-05
3.43952e-05
3.44008e-05
3.44065e-05
3.44122e-05
3.44179e-05
3.44236e-05
3.4429e-05
3.44342e-05
3.44389e-05
3.44432e-05
3.44468e-05
3.44496e-05
3.44516e-05
3.44525e-05
3.44523e-05
3.44509e-05
3.44482e-05
3.44442e-05
3.44385e-05
3.44314e-05
3.44251e-05
3.44204e-05
3.4414e-05
3.43322e-05
3.43411e-05
3.43391e-05
3.43359e-05
3.43353e-05
3.43368e-05
3.43388e-05
3.4341e-05
3.43432e-05
3.43456e-05
3.43484e-05
3.43514e-05
3.43546e-05
3.43581e-05
3.43619e-05
3.43659e-05
3.43702e-05
3.43747e-05
3.43796e-05
3.43846e-05
3.439e-05
3.43955e-05
3.44012e-05
3.44071e-05
3.4413e-05
3.4419e-05
3.44249e-05
3.44307e-05
3.44363e-05
3.44415e-05
3.44463e-05
3.44504e-05
3.44539e-05
3.44565e-05
3.44581e-05
3.44587e-05
3.4458e-05
3.4456e-05
3.44527e-05
3.4448e-05
3.44415e-05
3.44342e-05
3.4428e-05
3.44233e-05
3.44171e-05
3.43323e-05
3.43405e-05
3.43382e-05
3.43352e-05
3.4335e-05
3.43366e-05
3.43387e-05
3.43408e-05
3.4343e-05
3.43455e-05
3.43482e-05
3.43512e-05
3.43545e-05
3.4358e-05
3.43617e-05
3.43658e-05
3.43701e-05
3.43747e-05
3.43796e-05
3.43847e-05
3.43901e-05
3.43957e-05
3.44015e-05
3.44076e-05
3.44137e-05
3.44199e-05
3.44261e-05
3.44322e-05
3.44382e-05
3.44438e-05
3.44491e-05
3.44538e-05
3.44578e-05
3.44611e-05
3.44634e-05
3.44647e-05
3.44648e-05
3.44636e-05
3.44611e-05
3.44571e-05
3.44516e-05
3.44443e-05
3.4437e-05
3.44309e-05
3.44264e-05
3.44204e-05
3.43323e-05
3.43398e-05
3.43373e-05
3.43346e-05
3.43347e-05
3.43364e-05
3.43385e-05
3.43406e-05
3.43428e-05
3.43453e-05
3.4348e-05
3.43511e-05
3.43543e-05
3.43578e-05
3.43616e-05
3.43657e-05
3.437e-05
3.43746e-05
3.43795e-05
3.43847e-05
3.43901e-05
3.43958e-05
3.44018e-05
3.44079e-05
3.44142e-05
3.44206e-05
3.44271e-05
3.44335e-05
3.44398e-05
3.44458e-05
3.44516e-05
3.44568e-05
3.44615e-05
3.44654e-05
3.44684e-05
3.44704e-05
3.44713e-05
3.44709e-05
3.44692e-05
3.4466e-05
3.44614e-05
3.4455e-05
3.4447e-05
3.44398e-05
3.44339e-05
3.44296e-05
3.44237e-05
3.43323e-05
3.43391e-05
3.43364e-05
3.43341e-05
3.43345e-05
3.43363e-05
3.43383e-05
3.43404e-05
3.43426e-05
3.43451e-05
3.43479e-05
3.43509e-05
3.43542e-05
3.43577e-05
3.43615e-05
3.43655e-05
3.43699e-05
3.43745e-05
3.43794e-05
3.43846e-05
3.43901e-05
3.43959e-05
3.44019e-05
3.44081e-05
3.44146e-05
3.44212e-05
3.44278e-05
3.44345e-05
3.44411e-05
3.44476e-05
3.44538e-05
3.44595e-05
3.44647e-05
3.44693e-05
3.4473e-05
3.44758e-05
3.44775e-05
3.44779e-05
3.4477e-05
3.44746e-05
3.44708e-05
3.44654e-05
3.4458e-05
3.44498e-05
3.44427e-05
3.44369e-05
3.44329e-05
3.44273e-05
3.43322e-05
3.43384e-05
3.43356e-05
3.43336e-05
3.43343e-05
3.43361e-05
3.43381e-05
3.43402e-05
3.43424e-05
3.4345e-05
3.43477e-05
3.43507e-05
3.4354e-05
3.43575e-05
3.43613e-05
3.43654e-05
3.43697e-05
3.43743e-05
3.43793e-05
3.43845e-05
3.439e-05
3.43958e-05
3.44019e-05
3.44083e-05
3.44148e-05
3.44216e-05
3.44284e-05
3.44353e-05
3.44423e-05
3.44491e-05
3.44556e-05
3.44619e-05
3.44677e-05
3.44729e-05
3.44773e-05
3.44808e-05
3.44832e-05
3.44845e-05
3.44844e-05
3.44829e-05
3.44799e-05
3.44754e-05
3.44691e-05
3.44609e-05
3.44527e-05
3.44457e-05
3.44401e-05
3.44364e-05
3.44309e-05
3.43322e-05
3.43376e-05
3.43348e-05
3.43332e-05
3.43341e-05
3.4336e-05
3.43379e-05
3.434e-05
3.43423e-05
3.43448e-05
3.43476e-05
3.43506e-05
3.43538e-05
3.43573e-05
3.43611e-05
3.43652e-05
3.43695e-05
3.43742e-05
3.43791e-05
3.43843e-05
3.43899e-05
3.43957e-05
3.44019e-05
3.44083e-05
3.44149e-05
3.44218e-05
3.44288e-05
3.4436e-05
3.44431e-05
3.44503e-05
3.44572e-05
3.44639e-05
3.44702e-05
3.4476e-05
3.44811e-05
3.44853e-05
3.44886e-05
3.44907e-05
3.44915e-05
3.44909e-05
3.44888e-05
3.4485e-05
3.44797e-05
3.44725e-05
3.44637e-05
3.44556e-05
3.44488e-05
3.44435e-05
3.444e-05
3.44348e-05
3.4332e-05
3.43368e-05
3.43341e-05
3.43329e-05
3.4334e-05
3.43358e-05
3.43378e-05
3.43398e-05
3.43421e-05
3.43446e-05
3.43474e-05
3.43504e-05
3.43537e-05
3.43572e-05
3.43609e-05
3.4365e-05
3.43693e-05
3.43739e-05
3.43789e-05
3.43841e-05
3.43897e-05
3.43955e-05
3.44017e-05
3.44082e-05
3.44149e-05
3.44219e-05
3.44291e-05
3.44364e-05
3.44438e-05
3.44512e-05
3.44585e-05
3.44656e-05
3.44724e-05
3.44788e-05
3.44845e-05
3.44895e-05
3.44935e-05
3.44964e-05
3.44981e-05
3.44984e-05
3.44972e-05
3.44944e-05
3.449e-05
3.44839e-05
3.44756e-05
3.44665e-05
3.44586e-05
3.44519e-05
3.44469e-05
3.44438e-05
3.44388e-05
3.43319e-05
3.4336e-05
3.43334e-05
3.43326e-05
3.43338e-05
3.43357e-05
3.43376e-05
3.43396e-05
3.43419e-05
3.43445e-05
3.43472e-05
3.43502e-05
3.43535e-05
3.4357e-05
3.43607e-05
3.43648e-05
3.43691e-05
3.43737e-05
3.43786e-05
3.43839e-05
3.43894e-05
3.43953e-05
3.44015e-05
3.4408e-05
3.44148e-05
3.44218e-05
3.44291e-05
3.44366e-05
3.44442e-05
3.44519e-05
3.44595e-05
3.4467e-05
3.44743e-05
3.44812e-05
3.44875e-05
3.44931e-05
3.44979e-05
3.45017e-05
3.45043e-05
3.45055e-05
3.45053e-05
3.45035e-05
3.44999e-05
3.44947e-05
3.44877e-05
3.44784e-05
3.44694e-05
3.44617e-05
3.44552e-05
3.44505e-05
3.44478e-05
3.4443e-05
3.43317e-05
3.43352e-05
3.43328e-05
3.43324e-05
3.43337e-05
3.43355e-05
3.43374e-05
3.43395e-05
3.43418e-05
3.43443e-05
3.43471e-05
3.43501e-05
3.43533e-05
3.43568e-05
3.43605e-05
3.43645e-05
3.43688e-05
3.43734e-05
3.43784e-05
3.43836e-05
3.43891e-05
3.4395e-05
3.44012e-05
3.44077e-05
3.44145e-05
3.44217e-05
3.44291e-05
3.44367e-05
3.44444e-05
3.44523e-05
3.44603e-05
3.44681e-05
3.44758e-05
3.44831e-05
3.449e-05
3.44963e-05
3.45019e-05
3.45064e-05
3.45099e-05
3.45121e-05
3.45128e-05
3.4512e-05
3.45095e-05
3.45052e-05
3.44992e-05
3.44911e-05
3.44813e-05
3.44724e-05
3.44648e-05
3.44587e-05
3.44543e-05
3.4452e-05
3.44475e-05
3.43314e-05
3.43345e-05
3.43323e-05
3.43322e-05
3.43336e-05
3.43354e-05
3.43373e-05
3.43393e-05
3.43416e-05
3.43441e-05
3.43469e-05
3.43499e-05
3.43531e-05
3.43566e-05
3.43603e-05
3.43643e-05
3.43686e-05
3.43732e-05
3.43781e-05
3.43833e-05
3.43888e-05
3.43946e-05
3.44008e-05
3.44074e-05
3.44142e-05
3.44214e-05
3.44288e-05
3.44365e-05
3.44445e-05
3.44525e-05
3.44607e-05
3.44689e-05
3.44769e-05
3.44847e-05
3.44922e-05
3.44991e-05
3.45053e-05
3.45107e-05
3.4515e-05
3.45181e-05
3.45199e-05
3.45201e-05
3.45186e-05
3.45153e-05
3.45102e-05
3.45033e-05
3.44941e-05
3.44842e-05
3.44755e-05
3.44681e-05
3.44623e-05
3.44583e-05
3.44564e-05
3.44521e-05
3.43312e-05
3.43337e-05
3.43318e-05
3.43321e-05
3.43335e-05
3.43353e-05
3.43371e-05
3.43392e-05
3.43415e-05
3.4344e-05
3.43467e-05
3.43497e-05
3.43529e-05
3.43564e-05
3.43601e-05
3.43641e-05
3.43683e-05
3.43729e-05
3.43777e-05
3.43829e-05
3.43884e-05
3.43943e-05
3.44004e-05
3.4407e-05
3.44138e-05
3.4421e-05
3.44285e-05
3.44363e-05
3.44443e-05
3.44525e-05
3.44609e-05
3.44693e-05
3.44777e-05
3.44859e-05
3.44939e-05
3.45014e-05
3.45083e-05
3.45144e-05
3.45196e-05
3.45236e-05
3.45263e-05
3.45276e-05
3.45272e-05
3.4525e-05
3.4521e-05
3.4515e-05
3.45071e-05
3.44969e-05
3.44871e-05
3.44786e-05
3.44716e-05
3.4466e-05
3.44624e-05
3.4461e-05
3.44569e-05
3.43309e-05
3.4333e-05
3.43315e-05
3.4332e-05
3.43335e-05
3.43352e-05
3.4337e-05
3.4339e-05
3.43413e-05
3.43438e-05
3.43466e-05
3.43495e-05
3.43527e-05
3.43562e-05
3.43599e-05
3.43638e-05
3.43681e-05
3.43726e-05
3.43774e-05
3.43825e-05
3.4388e-05
3.43938e-05
3.44e-05
3.44065e-05
3.44133e-05
3.44205e-05
3.4428e-05
3.44359e-05
3.4444e-05
3.44523e-05
3.44609e-05
3.44695e-05
3.44782e-05
3.44868e-05
3.44952e-05
3.45032e-05
3.45107e-05
3.45176e-05
3.45236e-05
3.45285e-05
3.45322e-05
3.45345e-05
3.45352e-05
3.45341e-05
3.45312e-05
3.45263e-05
3.45195e-05
3.45104e-05
3.44998e-05
3.44902e-05
3.44819e-05
3.44751e-05
3.447e-05
3.44668e-05
3.44658e-05
3.4462e-05
3.43305e-05
3.43323e-05
3.43311e-05
3.43319e-05
3.43334e-05
3.43351e-05
3.43369e-05
3.43389e-05
3.43412e-05
3.43437e-05
3.43464e-05
3.43494e-05
3.43526e-05
3.4356e-05
3.43597e-05
3.43636e-05
3.43678e-05
3.43723e-05
3.43771e-05
3.43822e-05
3.43876e-05
3.43934e-05
3.43995e-05
3.44059e-05
3.44128e-05
3.442e-05
3.44275e-05
3.44353e-05
3.44435e-05
3.4452e-05
3.44606e-05
3.44695e-05
3.44784e-05
3.44873e-05
3.44961e-05
3.45046e-05
3.45127e-05
3.45202e-05
3.4527e-05
3.45328e-05
3.45374e-05
3.45408e-05
3.45425e-05
3.45426e-05
3.45409e-05
3.45372e-05
3.45314e-05
3.45236e-05
3.45134e-05
3.45027e-05
3.44933e-05
3.44853e-05
3.44789e-05
3.44741e-05
3.44713e-05
3.44709e-05
3.44674e-05
3.43302e-05
3.43316e-05
3.43309e-05
3.43319e-05
3.43334e-05
3.4335e-05
3.43368e-05
3.43388e-05
3.4341e-05
3.43435e-05
3.43463e-05
3.43492e-05
3.43524e-05
3.43558e-05
3.43594e-05
3.43633e-05
3.43675e-05
3.43719e-05
3.43767e-05
3.43818e-05
3.43871e-05
3.43929e-05
3.43989e-05
3.44054e-05
3.44122e-05
3.44193e-05
3.44268e-05
3.44347e-05
3.44429e-05
3.44514e-05
3.44602e-05
3.44692e-05
3.44783e-05
3.44875e-05
3.44966e-05
3.45055e-05
3.45142e-05
3.45223e-05
3.45298e-05
3.45365e-05
3.4542e-05
3.45464e-05
3.45492e-05
3.45505e-05
3.45499e-05
3.45474e-05
3.45428e-05
3.45362e-05
3.45273e-05
3.45162e-05
3.45057e-05
3.44965e-05
3.44888e-05
3.44828e-05
3.44784e-05
3.44761e-05
3.44762e-05
3.4473e-05
3.43298e-05
3.4331e-05
3.43307e-05
3.43318e-05
3.43333e-05
3.4335e-05
3.43367e-05
3.43387e-05
3.43409e-05
3.43434e-05
3.43461e-05
3.43491e-05
3.43522e-05
3.43556e-05
3.43592e-05
3.43631e-05
3.43672e-05
3.43716e-05
3.43763e-05
3.43813e-05
3.43867e-05
3.43923e-05
3.43984e-05
3.44047e-05
3.44115e-05
3.44186e-05
3.44261e-05
3.4434e-05
3.44422e-05
3.44507e-05
3.44595e-05
3.44686e-05
3.44779e-05
3.44873e-05
3.44967e-05
3.45061e-05
3.45152e-05
3.45239e-05
3.45321e-05
3.45395e-05
3.4546e-05
3.45513e-05
3.45552e-05
3.45576e-05
3.45583e-05
3.4557e-05
3.45537e-05
3.45482e-05
3.45406e-05
3.45305e-05
3.4519e-05
3.45088e-05
3.44999e-05
3.44925e-05
3.44869e-05
3.4483e-05
3.44812e-05
3.44818e-05
3.44788e-05
3.43294e-05
3.43305e-05
3.43305e-05
3.43319e-05
3.43333e-05
3.43349e-05
3.43366e-05
3.43386e-05
3.43408e-05
3.43433e-05
3.4346e-05
3.43489e-05
3.43521e-05
3.43554e-05
3.4359e-05
3.43628e-05
3.43669e-05
3.43713e-05
3.4376e-05
3.43809e-05
3.43862e-05
3.43918e-05
3.43978e-05
3.44041e-05
3.44108e-05
3.44179e-05
3.44253e-05
3.44331e-05
3.44413e-05
3.44498e-05
3.44587e-05
3.44679e-05
3.44773e-05
3.44869e-05
3.44966e-05
3.45062e-05
3.45158e-05
3.4525e-05
3.45338e-05
3.45419e-05
3.45492e-05
3.45555e-05
3.45605e-05
3.45641e-05
3.45659e-05
3.45659e-05
3.45639e-05
3.45597e-05
3.45533e-05
3.45447e-05
3.45333e-05
3.4522e-05
3.4512e-05
3.45034e-05
3.44964e-05
3.44912e-05
3.44878e-05
3.44865e-05
3.44877e-05
3.4485e-05
3.43289e-05
3.433e-05
3.43305e-05
3.43319e-05
3.43333e-05
3.43349e-05
3.43365e-05
3.43385e-05
3.43407e-05
3.43432e-05
3.43459e-05
3.43488e-05
3.43519e-05
3.43552e-05
3.43588e-05
3.43626e-05
3.43667e-05
3.4371e-05
3.43756e-05
3.43805e-05
3.43857e-05
3.43913e-05
3.43972e-05
3.44034e-05
3.441e-05
3.44171e-05
3.44244e-05
3.44322e-05
3.44404e-05
3.44489e-05
3.44578e-05
3.4467e-05
3.44765e-05
3.44862e-05
3.44961e-05
3.4506e-05
3.45159e-05
3.45256e-05
3.45349e-05
3.45438e-05
3.45519e-05
3.4559e-05
3.4565e-05
3.45697e-05
3.45728e-05
3.4574e-05
3.45733e-05
3.45705e-05
3.45654e-05
3.4558e-05
3.45482e-05
3.45362e-05
3.4525e-05
3.45153e-05
3.45071e-05
3.45005e-05
3.44957e-05
3.44928e-05
3.4492e-05
3.44938e-05
3.44914e-05
3.43285e-05
3.43296e-05
3.43304e-05
3.43319e-05
3.43333e-05
3.43348e-05
3.43365e-05
3.43384e-05
3.43406e-05
3.43431e-05
3.43457e-05
3.43486e-05
3.43517e-05
3.43551e-05
3.43586e-05
3.43624e-05
3.43664e-05
3.43707e-05
3.43752e-05
3.43801e-05
3.43852e-05
3.43907e-05
3.43966e-05
3.44027e-05
3.44093e-05
3.44162e-05
3.44235e-05
3.44312e-05
3.44393e-05
3.44478e-05
3.44567e-05
3.44659e-05
3.44754e-05
3.44852e-05
3.44953e-05
3.45054e-05
3.45156e-05
3.45257e-05
3.45356e-05
3.4545e-05
3.45538e-05
3.45618e-05
3.45688e-05
3.45745e-05
3.45788e-05
3.45813e-05
3.4582e-05
3.45805e-05
3.45768e-05
3.45707e-05
3.45623e-05
3.45512e-05
3.45391e-05
3.45282e-05
3.45188e-05
3.4511e-05
3.45048e-05
3.45005e-05
3.44981e-05
3.44979e-05
3.45003e-05
3.44981e-05
3.43281e-05
3.43293e-05
3.43305e-05
3.4332e-05
3.43334e-05
3.43348e-05
3.43364e-05
3.43383e-05
3.43405e-05
3.4343e-05
3.43456e-05
3.43485e-05
3.43516e-05
3.43549e-05
3.43584e-05
3.43621e-05
3.43661e-05
3.43704e-05
3.43749e-05
3.43797e-05
3.43847e-05
3.43902e-05
3.43959e-05
3.4402e-05
3.44085e-05
3.44153e-05
3.44226e-05
3.44302e-05
3.44382e-05
3.44466e-05
3.44555e-05
3.44647e-05
3.44742e-05
3.44841e-05
3.44942e-05
3.45045e-05
3.4515e-05
3.45254e-05
3.45357e-05
3.45456e-05
3.45551e-05
3.45639e-05
3.45718e-05
3.45786e-05
3.4584e-05
3.45878e-05
3.45897e-05
3.45897e-05
3.45874e-05
3.45828e-05
3.45757e-05
3.45662e-05
3.45539e-05
3.45421e-05
3.45315e-05
3.45225e-05
3.4515e-05
3.45093e-05
3.45055e-05
3.45036e-05
3.4504e-05
3.4507e-05
3.45051e-05
3.43276e-05
3.4329e-05
3.43305e-05
3.43321e-05
3.43334e-05
3.43348e-05
3.43364e-05
3.43383e-05
3.43405e-05
3.43429e-05
3.43455e-05
3.43484e-05
3.43515e-05
3.43547e-05
3.43582e-05
3.43619e-05
3.43659e-05
3.437e-05
3.43745e-05
3.43792e-05
3.43843e-05
3.43896e-05
3.43953e-05
3.44013e-05
3.44077e-05
3.44144e-05
3.44216e-05
3.44291e-05
3.44371e-05
3.44454e-05
3.44541e-05
3.44633e-05
3.44728e-05
3.44827e-05
3.44929e-05
3.45033e-05
3.4514e-05
3.45247e-05
3.45353e-05
3.45458e-05
3.45558e-05
3.45654e-05
3.45741e-05
3.45818e-05
3.45883e-05
3.45933e-05
3.45966e-05
3.45979e-05
3.45971e-05
3.4594e-05
3.45884e-05
3.45803e-05
3.45695e-05
3.45568e-05
3.45452e-05
3.4535e-05
3.45263e-05
3.45193e-05
3.45141e-05
3.45108e-05
3.45094e-05
3.45104e-05
3.4514e-05
3.45124e-05
3.43272e-05
3.43288e-05
3.43306e-05
3.43322e-05
3.43335e-05
3.43349e-05
3.43364e-05
3.43383e-05
3.43404e-05
3.43428e-05
3.43454e-05
3.43483e-05
3.43513e-05
3.43546e-05
3.4358e-05
3.43617e-05
3.43656e-05
3.43698e-05
3.43741e-05
3.43788e-05
3.43838e-05
3.43891e-05
3.43946e-05
3.44006e-05
3.44069e-05
3.44135e-05
3.44206e-05
3.4428e-05
3.44358e-05
3.44441e-05
3.44527e-05
3.44618e-05
3.44713e-05
3.44812e-05
3.44914e-05
3.45019e-05
3.45126e-05
3.45236e-05
3.45345e-05
3.45454e-05
3.4556e-05
3.45661e-05
3.45756e-05
3.45843e-05
3.45918e-05
3.4598e-05
3.46026e-05
3.46053e-05
3.46059e-05
3.46043e-05
3.46003e-05
3.45936e-05
3.45845e-05
3.45722e-05
3.45597e-05
3.45484e-05
3.45386e-05
3.45303e-05
3.45238e-05
3.45191e-05
3.45163e-05
3.45155e-05
3.45171e-05
3.45214e-05
3.452e-05
3.43268e-05
3.43287e-05
3.43308e-05
3.43323e-05
3.43336e-05
3.43349e-05
3.43364e-05
3.43382e-05
3.43403e-05
3.43427e-05
3.43454e-05
3.43482e-05
3.43512e-05
3.43544e-05
3.43579e-05
3.43615e-05
3.43654e-05
3.43695e-05
3.43738e-05
3.43784e-05
3.43833e-05
3.43885e-05
3.4394e-05
3.43999e-05
3.4406e-05
3.44126e-05
3.44195e-05
3.44269e-05
3.44346e-05
3.44427e-05
3.44513e-05
3.44603e-05
3.44697e-05
3.44795e-05
3.44897e-05
3.45002e-05
3.4511e-05
3.45221e-05
3.45333e-05
3.45445e-05
3.45555e-05
3.45662e-05
3.45765e-05
3.45859e-05
3.45945e-05
3.46018e-05
3.46076e-05
3.46117e-05
3.46138e-05
3.46137e-05
3.46112e-05
3.46061e-05
3.45985e-05
3.45881e-05
3.4575e-05
3.45627e-05
3.45518e-05
3.45424e-05
3.45346e-05
3.45285e-05
3.45243e-05
3.45221e-05
3.45219e-05
3.45241e-05
3.45291e-05
3.45279e-05
3.43263e-05
3.43287e-05
3.43309e-05
3.43325e-05
3.43337e-05
3.4335e-05
3.43364e-05
3.43382e-05
3.43403e-05
3.43427e-05
3.43453e-05
3.43481e-05
3.43511e-05
3.43543e-05
3.43577e-05
3.43613e-05
3.43651e-05
3.43692e-05
3.43735e-05
3.4378e-05
3.43828e-05
3.4388e-05
3.43934e-05
3.43991e-05
3.44052e-05
3.44117e-05
3.44185e-05
3.44257e-05
3.44333e-05
3.44413e-05
3.44498e-05
3.44586e-05
3.44679e-05
3.44776e-05
3.44878e-05
3.44983e-05
3.45092e-05
3.45203e-05
3.45317e-05
3.45431e-05
3.45545e-05
3.45657e-05
3.45766e-05
3.45868e-05
3.45963e-05
3.46046e-05
3.46116e-05
3.4617e-05
3.46206e-05
3.4622e-05
3.46211e-05
3.46177e-05
3.46116e-05
3.46029e-05
3.4591e-05
3.45778e-05
3.45659e-05
3.45554e-05
3.45464e-05
3.45391e-05
3.45335e-05
3.45299e-05
3.45283e-05
3.45286e-05
3.45314e-05
3.4537e-05
3.45361e-05
3.43259e-05
3.43287e-05
3.43311e-05
3.43327e-05
3.43338e-05
3.43351e-05
3.43365e-05
3.43382e-05
3.43403e-05
3.43426e-05
3.43452e-05
3.4348e-05
3.4351e-05
3.43542e-05
3.43576e-05
3.43611e-05
3.43649e-05
3.43689e-05
3.43732e-05
3.43776e-05
3.43824e-05
3.43874e-05
3.43928e-05
3.43984e-05
3.44044e-05
3.44107e-05
3.44174e-05
3.44245e-05
3.4432e-05
3.44399e-05
3.44482e-05
3.44569e-05
3.44661e-05
3.44757e-05
3.44858e-05
3.44962e-05
3.45071e-05
3.45182e-05
3.45297e-05
3.45413e-05
3.4553e-05
3.45646e-05
3.4576e-05
3.4587e-05
3.45972e-05
3.46065e-05
3.46147e-05
3.46214e-05
3.46263e-05
3.46293e-05
3.463e-05
3.46283e-05
3.46239e-05
3.46167e-05
3.46068e-05
3.45937e-05
3.45808e-05
3.45692e-05
3.45591e-05
3.45506e-05
3.45438e-05
3.45388e-05
3.45357e-05
3.45347e-05
3.45357e-05
3.4539e-05
3.45453e-05
3.45446e-05
3.43256e-05
3.43288e-05
3.43313e-05
3.43328e-05
3.4334e-05
3.43352e-05
3.43366e-05
3.43383e-05
3.43403e-05
3.43426e-05
3.43452e-05
3.43479e-05
3.43509e-05
3.43541e-05
3.43574e-05
3.4361e-05
3.43647e-05
3.43687e-05
3.43728e-05
3.43773e-05
3.43819e-05
3.43869e-05
3.43921e-05
3.43977e-05
3.44036e-05
3.44098e-05
3.44164e-05
3.44233e-05
3.44307e-05
3.44384e-05
3.44466e-05
3.44552e-05
3.44642e-05
3.44737e-05
3.44836e-05
3.4494e-05
3.45047e-05
3.45159e-05
3.45274e-05
3.45392e-05
3.45511e-05
3.4563e-05
3.45749e-05
3.45864e-05
3.45974e-05
3.46076e-05
3.46168e-05
3.46247e-05
3.4631e-05
3.46355e-05
3.46378e-05
3.46377e-05
3.46351e-05
3.46296e-05
3.46214e-05
3.46101e-05
3.45965e-05
3.45839e-05
3.45727e-05
3.45631e-05
3.45551e-05
3.45488e-05
3.45443e-05
3.45418e-05
3.45414e-05
3.4543e-05
3.4547e-05
3.45539e-05
3.45534e-05
3.43252e-05
3.4329e-05
3.43316e-05
3.4333e-05
3.43341e-05
3.43353e-05
3.43366e-05
3.43383e-05
3.43403e-05
3.43426e-05
3.43451e-05
3.43479e-05
3.43508e-05
3.4354e-05
3.43573e-05
3.43608e-05
3.43645e-05
3.43684e-05
3.43725e-05
3.43769e-05
3.43815e-05
3.43864e-05
3.43916e-05
3.4397e-05
3.44028e-05
3.44089e-05
3.44153e-05
3.44221e-05
3.44293e-05
3.44369e-05
3.44449e-05
3.44534e-05
3.44622e-05
3.44716e-05
3.44814e-05
3.44916e-05
3.45023e-05
3.45134e-05
3.45249e-05
3.45367e-05
3.45487e-05
3.45609e-05
3.45731e-05
3.45851e-05
3.45967e-05
3.46078e-05
3.46179e-05
3.4627e-05
3.46346e-05
3.46405e-05