/*--------------------------------*- C++ -*----------------------------------*\
  =========                 |
  \\      /  F ield         | OpenFOAM: The Open Source CFD Toolbox
   \\    /   O peration     | Website:  https://openfoam.org
    \\  /    A nd           | Version:  7
     \\/     M anipulation  |
\*---------------------------------------------------------------------------*/
FoamFile
{
    version     2.0;
    format      ascii;
    class       volScalarField;
    location    "600";
    object      p;
}
// * * * * * * * * * * * * * * * * * * * * * * * * * * * * * * * * * * * * * //

dimensions      [0 2 -2 0 0 0 0];

internalField   nonuniform List<scalar> 
23117
(
-0.0831278
-0.225365
0.025149
-0.378792
0.152731
-0.0622994
-0.445873
0.111636
-0.0251699
-0.0800646
-0.464856
0.103273
-0.11497
-0.0496189
-0.0836631
-0.435604
0.102174
-0.147985
-0.183543
-0.0376816
-0.103191
-0.366379
0.129497
-0.173522
-0.239799
-0.192555
-0.0942738
-0.112973
-0.260633
0.181208
-0.170298
-0.282118
-0.268189
-0.282133
-0.14977
-0.120734
-0.122251
0.258048
-0.142406
-0.288021
-0.333283
-0.386831
-0.373969
-0.201975
-0.136633
0.0455461
0.358052
-0.0873768
-0.26431
-0.359874
-0.48002
-0.513617
-0.465954
-0.25862
-0.161379
0.23957
0.479535
-0.00612072
-0.208797
-0.355079
-0.532075
-0.637894
-0.645414
-0.571318
-0.314591
-0.192965
0.456771
0.620531
0.100696
-0.122778
-0.315956
-0.549816
-0.71766
-0.806018
-0.794683
-0.68535
-0.370823
-0.227581
0.694192
0.779015
0.231723
-0.00707175
-0.243612
-0.529563
-0.759354
-0.918806
-0.996413
-0.955713
-0.80628
-0.431001
-0.261262
0.948983
0.952925
0.385444
0.136811
-0.138591
-0.472037
-0.759025
-0.989611
-1.14646
-1.20304
-1.12629
-0.934473
-0.49651
-0.292229
1.21842
1.14022
0.560118
0.307146
-0.00220408
-0.377438
-0.717095
-1.01423
-1.25051
-1.3941
-1.42348
-1.30672
-1.06879
-0.566898
-0.320947
1.49994
1.33886
0.753874
0.50194
0.163988
-0.246853
-0.633537
-0.992735
-1.30397
-1.53529
-1.65948
-1.65738
-1.49597
-1.20773
-0.640707
-0.348845
1.79101
1.54693
0.964782
0.719046
0.358097
-0.0816946
-0.509271
-0.924837
-1.30656
-1.62141
-1.84205
-1.94203
-1.90307
-1.69252
-1.34997
-0.716073
-0.377196
2.08936
1.76253
1.19083
0.956201
0.578022
0.116207
-0.345604
-0.811229
-1.25769
-1.65191
-1.96513
-2.17008
-2.23988
-2.15862
-1.89469
-1.49418
-0.791354
-0.406605
2.39283
1.98387
1.43004
1.2111
0.821497
0.344739
-0.144342
-0.653054
-1.15779
-1.62582
-2.02792
-2.33439
-2.51729
-2.5509
-2.42202
-2.10056
-1.63899
-0.865369
-0.437018
2.69945
2.20928
1.68043
1.48136
1.08617
0.601541
0.0923647
-0.452025
-1.0078
-1.54326
-2.02896
-2.43389
-2.72706
-2.88141
-2.87282
-2.69107
-2.30808
-1.78307
-0.9373
-0.468003
3.00742
2.43719
1.94009
1.76467
1.36958
0.884106
0.362051
-0.210268
-0.8093
-1.40488
-1.968
-2.46655
-2.86773
-3.1408
-3.25997
-3.20312
-2.96343
-2.51526
-1.92504
-1.00651
-0.499029
3.3151
2.66617
2.20718
2.05874
1.66927
1.18977
0.662053
0.0697029
-0.564349
-1.21208
-1.84533
-2.43163
-2.93661
-3.32713
-3.57303
-3.6502
-3.53911
-3.23674
-2.72016
-2.06357
-1.07238
-0.529606
3.62105
2.8949
2.47996
2.36136
1.98279
1.5158
0.989487
0.385118
-0.275475
-0.966788
-1.66205
-2.32899
-2.93241
-3.43698
-3.80951
-4.02086
-4.04922
-3.87809
-3.50867
-2.92092
-2.1973
-1.1343
-0.559343
3.92399
3.12223
2.75677
2.67042
2.30774
1.85944
1.34136
0.732919
0.0544673
-0.671476
-1.41989
-2.15934
-2.85443
-3.4684
-3.96516
-4.31192
-4.48123
-4.45405
-4.21735
-3.77692
-3.11573
-2.32493
-1.19161
-0.587919
4.22278
3.34709
3.03608
2.98394
2.64182
2.21795
1.71461
1.10988
0.422264
-0.329027
-1.12119
-1.92411
-2.70292
-3.42003
-4.03727
-4.51825
-4.83124
-4.95099
-4.8617
-4.55424
-4.03926
-3.30286
-2.4452
-1.24365
-0.615035
4.51645
3.56857
3.31648
3.30007
2.98279
2.58865
2.10618
1.51266
0.824465
0.0572359
-0.768796
-1.62545
-2.47889
-3.29154
-4.02371
-4.63625
-5.09311
-5.36418
-5.4269
-5.26923
-4.88618
-4.29356
-3.4807
-2.55695
-1.28978
-0.640403
4.8042
3.7859
3.59669
3.61709
3.32856
2.96892
2.513
1.93787
1.25745
0.483679
-0.36608
-1.26608
-2.18422
-3.08345
-3.92347
-4.66293
-5.2623
-5.68643
-5.90735
-5.90577
-5.67372
-5.21068
-4.53783
-3.64771
-2.65908
-1.32938
-0.663715
5.0853
3.99839
3.87555
3.93343
3.67717
3.35627
2.93212
2.3821
1.7175
0.946431
0.0831806
-0.84936
-1.8214
-2.79721
-3.73645
-4.59647
-5.33482
-5.91212
-6.29471
-6.45736
-6.38442
-6.07239
-5.52544
-4.77021
-3.80249
-2.75057
-1.36188
-0.684637
5.35923
4.2055
4.15204
4.24768
4.0268
3.74836
3.36066
2.84199
2.20084
1.44145
0.574895
-0.37916
-1.39373
-2.43504
-3.46357
-4.43602
-5.30792
-6.03619
-6.58222
-6.91442
-7.01079
-6.85977
-6.46262
-5.8283
-4.98901
-3.94377
-2.8305
-1.38677
-0.702811
5.62553
4.40679
4.42525
4.55858
4.37579
4.14295
3.79588
3.31429
2.70369
1.9646
1.10473
0.14025
-0.905075
-2.00003
-3.10665
-4.18188
-5.17989
-6.05483
-6.76359
-7.26896
-7.54196
-7.5643
-7.3289
-6.84196
-6.11731
-5.19273
-4.07044
-2.89802
-1.40357
-0.717838
5.88386
4.6019
4.6944
4.86501
4.72263
4.53802
4.23521
3.79585
3.22237
2.5117
1.66817
0.704269
-0.359839
-1.49599
-2.66848
-3.83533
-4.95028
-5.96535
-6.83389
-7.5134
-7.96861
-8.17375
-8.1147
-7.78908
-7.20817
-6.39073
-5.38006
-4.18153
-2.95238
-1.41186
-0.729282
6.134
4.79059
4.95882
5.16601
5.06598
4.93168
4.67624
4.28366
3.7533
3.07861
2.26064
1.30805
0.237156
-0.927394
-2.15274
-3.39876
-4.61968
-5.7664
-6.78929
-7.64153
-8.2818
-8.67742
-8.80633
-8.65891
-8.23773
-7.55926
-6.64706
-5.54988
-4.27622
-2.99293
-1.41124
-0.736647
6.37579
4.97267
5.21795
5.46074
5.40463
5.32224
5.11676
4.77493
4.29301
3.66129
2.87755
1.94659
0.880747
-0.299217
-1.56385
-2.87559
-4.18999
-5.4578
-6.62746
-7.64833
-8.47396
-9.06491
-9.39169
-9.43634
-9.19408
-8.67259
-7.89348
-6.88504
-5.7013
-4.35386
-3.01907
-1.40141
-0.739385
6.60917
5.14807
5.47132
5.74852
5.73755
5.70818
5.55473
5.26705
4.83827
4.25581
3.51434
2.61484
1.56555
0.383104
-0.906903
-2.27011
-3.66424
-5.04078
-6.34727
-7.53029
-8.53873
-9.32723
-9.85886
-10.1078
-10.0606
-9.71759
-9.09161
-8.20935
-7.10365
-5.83361
-4.41394
-3.03033
-1.38209
-0.736866
6.83412
5.31675
5.71858
6.02876
6.06383
6.08814
5.98835
5.75759
5.386
4.85843
4.16659
3.30775
2.28604
1.11382
-0.18754
-1.58743
-3.0465
-4.51787
-5.94916
-7.28525
-8.47135
-9.45657
-10.1973
-10.6598
-10.8222
-10.6761
-10.2271
-9.49304
-8.50567
-7.30212
-5.94631
-4.45612
-3.02626
-1.35307
-0.728383
7.05071
5.47873
5.95943
6.301
6.38271
6.46097
6.41597
6.24439
5.93339
5.46561
4.83003
4.02035
3.03667
1.88696
0.588155
-0.833346
-2.34178
-3.89278
-5.43503
-6.91271
-8.26846
-9.4468
-10.3978
-11.0802
-11.4638
-11.5315
-11.2801
-10.7204
-9.8754
-8.7815
-7.47991
-6.03911
-4.48022
-3.00655
-1.31421
-0.713125
7.25906
5.63412
6.19367
6.5649
6.69355
6.82564
6.83618
6.72546
6.47783
6.07406
5.50061
4.74781
3.81188
2.69645
1.4138
-0.0142216
-1.55596
-3.17036
-4.80813
-6.4138
-7.9285
-9.29325
-10.4526
-11.3582
-11.9717
-12.2673
-12.2328
-11.8702
-11.1958
-10.2375
-9.03615
-7.63673
-6.11189
-4.4862
-2.9709
-1.26545
-0.690174
7.45933
5.78303
6.42116
6.82018
6.99585
7.18131
7.24773
7.19906
7.01697
6.68072
6.1745
5.48552
4.60629
3.53617
2.28279
0.863174
-0.695609
-2.35645
-4.07297
-5.79115
-7.45167
-8.99315
-10.3557
-11.4846
-12.3335
-12.868
-13.0668
-12.923
-12.4441
-11.6517
-10.5784
-9.26921
-7.77251
-6.16472
-4.47416
-2.91911
-1.20677
-0.658503
7.65172
5.92563
6.64183
7.06667
7.28919
7.52726
7.64955
7.66366
7.54871
7.28282
6.84816
6.22909
5.41467
4.40012
3.18845
1.79175
0.23216
-1.45775
-3.23528
-5.04883
-6.83985
-8.54565
-10.103
-11.4517
-12.5382
-13.3195
-13.7652
-13.8589
-13.5995
-12.9999
-12.0868
-10.8975
-9.48051
-7.8874
-6.19784
-4.44435
-2.85104
-1.13826
-0.61697
7.83648
6.0621
6.85563
7.30429
7.57328
7.86292
8.04076
8.11792
8.07118
7.87783
7.51832
6.97443
6.23203
5.28244
4.12413
2.76425
1.2198
-0.481649
-2.30178
-4.19232
-6.09654
-7.95169
-9.69235
-11.2539
-12.5766
-13.6092
-14.3121
-14.6595
-14.6407
-14.26
-13.5359
-12.5003
-11.1944
-9.6701
-7.98171
-6.21165
-4.39716
-2.7666
-1.06009
-0.564314
8.01387
6.19267
7.0626
7.533
7.8479
8.18785
8.42063
8.56071
8.58275
8.46354
8.18202
7.71773
7.05367
6.17747
5.0833
3.77339
2.25949
0.563886
-1.28007
-3.22827
-5.2268
-7.21407
-9.12371
-10.8879
-12.4416
-13.7262
-14.6931
-15.3071
-15.5475
-15.4092
-14.9023
-14.0508
-12.8913
-11.4689
-9.83825
-8.05599
-6.20668
-4.3331
-2.66575
-0.972511
-0.499167
8.18418
6.31756
7.26278
7.75281
8.11293
8.50173
8.78858
8.9911
9.08202
9.03795
8.83658
8.45552
7.87519
7.07987
6.05961
4.81193
3.34328
1.67049
-0.178486
-2.16438
-4.2371
-6.33731
-8.39897
-10.3524
-12.1282
-13.6615
-14.8956
-15.7856
-16.3007
-16.4259
-16.1619
-15.5246
-14.5435
-13.2595
-11.7211
-9.98542
-8.11091
-6.18358
-4.2528
-2.54852
-0.875857
-0.420083
8.34771
6.43703
7.45626
7.96383
8.36829
8.80432
9.14417
9.40832
9.56781
9.59936
9.47964
9.18465
8.69255
7.98459
7.04702
5.87279
4.46324
2.82959
0.99412
-1.00928
-3.13516
-5.32755
-7.52194
-9.64812
-11.6338
-13.4087
-14.9089
-16.0804
-16.8823
-17.2891
-17.2916
-16.8965
-16.1255
-15.0132
-13.6046
-11.9514
-10.1122
-8.1473
-6.14315
-4.157
-2.41499
-0.77056
-0.325522
8.50477
6.55134
7.64315
8.16617
8.61399
9.09549
9.48708
9.81177
10.0392
10.1463
10.1091
9.90231
9.50208
8.88697
8.03978
6.94918
5.61151
4.0325
2.22854
0.227738
-1.92978
-4.19237
-6.49831
-8.77812
-10.9579
-12.9636
-14.7247
-16.179
-17.2759
-17.9791
-18.2688
-18.1419
-17.6109
-16.7036
-15.4592
-13.9267
-12.1601
-10.2195
-8.16611
-6.08626
-4.04655
-2.26532
-0.657104
-0.213902
8.65574
6.66074
7.82359
8.35998
8.85009
9.3752
9.8171
10.201
10.4953
10.6776
10.7233
10.606
10.3005
9.78274
9.03254
8.03458
6.78051
5.27059
3.51538
1.53687
-0.630658
-2.94067
-5.33539
-7.7474
-10.1027
-12.3245
-14.3373
-16.0714
-17.467
-18.4776
-19.0721
-19.2365
-18.9741
-18.3036
-17.258
-15.8813
-14.2259
-12.348
-10.308
-8.1684
-6.01386
-3.9224
-2.09969
-0.536034
-0.0836523
8.80093
6.76549
7.99772
8.54547
9.0767
9.64347
10.1341
10.5757
10.9356
11.1922
11.3206
11.2936
11.0847
10.668
10.0204
9.12292
7.96291
6.53542
4.84517
2.90799
0.751875
-1.58245
-4.04204
-6.56288
-9.07223
-11.4921
-13.7434
-15.7499
-17.4437
-18.768
-19.681
-20.1574
-20.1893
-19.7862
-18.9729
-17.7878
-16.2792
-14.5027
-12.5158
-10.3789
-8.15532
-5.92699
-3.78554
-1.91835
-0.40798
0.0667746
8.94069
6.86585
8.16571
8.72285
9.29394
9.90037
10.4381
10.9356
11.3596
11.6893
11.8998
11.9633
11.8523
11.5393
10.9987
10.2085
9.1518
7.81881
6.20862
4.33082
2.20699
-0.12852
-2.62846
-5.23325
-7.87289
-10.4697
-12.9423
-15.2098
-17.1965
-18.8366
-20.0773
-20.8821
-21.2315
-21.1243
-20.5761
-19.6177
-18.2925
-16.6532
-14.7575
-12.6644
-10.4333
-8.12808
-5.82673
-3.63704
-1.72167
-0.273601
0.238885
9.07537
6.96208
8.32772
8.89235
9.50201
10.1461
10.7292
11.2807
11.7671
12.1684
12.4598
12.6134
12.6009
12.3935
11.9635
11.2861
10.3407
9.11299
7.59662
5.79517
3.72361
1.40964
-1.10585
-3.76876
-6.51301
-9.26291
-11.9363
-14.4488
-16.7189
-18.6719
-20.245
-21.3903
-22.0767
-22.2912
-22.0391
-21.3422
-20.237
-18.772
-17.0033
-14.991
-12.7947
-10.4722
-8.08795
-5.71419
-3.47805
-1.51007
-0.133553
0.434056
9.2053
7.05441
8.48392
9.05423
9.7011
10.3807
11.0074
11.611
12.1578
12.6291
13
13.2428
13.3288
13.228
12.9112
12.351
11.5237
10.4106
9.00048
7.29096
5.29058
3.02012
0.513682
-2.18094
-5.00279
-7.87947
-10.7298
-13.4677
-16.0068
-18.2653
-20.1707
-21.664
-22.7023
-23.2611
-23.3336
-22.9315
-22.083
-20.8301
-19.2259
-17.33
-15.2041
-12.9079
-10.497
-8.0362
-5.59056
-3.30974
-1.28403
0.0114878
0.653475
9.33082
7.1431
8.63449
9.20874
9.89142
10.6046
11.273
11.9266
12.5317
13.0709
13.5198
13.8505
14.0343
14.0405
13.8385
13.399
12.6952
11.7048
10.4119
8.80851
6.89685
4.69087
2.21747
-0.482405
-3.35393
-6.32938
-9.33011
-12.27
-15.0596
-17.6112
-19.8437
-21.6877
-23.0885
-24.0093
-24.4317
-24.3557
-23.7996
-22.7975
-21.3965
-19.6544
-17.6337
-15.3975
-13.005
-10.5087
-7.97416
-5.45701
-3.13327
-1.04414
0.160826
0.898215
9.45228
7.22835
8.77959
9.35616
10.0732
10.8179
11.5261
12.2277
12.889
13.494
14.0186
14.4356
14.7161
14.8291
14.7428
14.4263
13.8504
12.9894
11.8232
10.3385
8.53169
6.40978
3.99252
1.31343
-1.5795
-4.62441
-7.74669
-10.8619
-13.8793
-16.7069
-19.2564
-21.4486
-23.2175
-24.514
-25.3071
-25.5853
-25.3554
-24.6418
-23.4846
-21.936
-20.0577
-17.9153
-15.5722
-13.0872
-10.5087
-7.90313
-5.31473
-2.94984
-0.791122
0.313865
1.16907
9.56997
7.31039
8.9194
9.49675
10.2468
11.021
11.7671
12.5144
13.2296
13.8981
14.4964
14.9977
15.3734
15.5921
15.6217
15.4297
14.9848
14.2587
13.2271
11.8723
10.1847
8.16504
5.82568
3.19267
0.306417
-2.77792
-5.99122
-9.25229
-12.4711
-15.5531
-18.4044
-20.937
-23.0744
-24.7551
-25.9357
-26.5919
-26.719
-26.3304
-25.4568
-24.1437
-22.4483
-20.4362
-18.1752
-15.7292
-13.1557
-10.4983
-7.82441
-5.16489
-2.76065
-0.525694
0.470002
1.46655
9.68423
7.38941
9.05408
9.6308
10.4123
11.2141
11.9963
12.787
13.554
14.2835
14.9531
15.5363
16.0053
16.3284
16.4733
16.4064
16.0947
15.5075
14.6171
13.4016
11.8462
9.94514
7.70397
5.14107
2.28903
-0.804607
-4.07725
-7.45263
-10.8432
-14.1537
-17.2865
-20.1465
-22.6473
-24.7157
-26.2954
-27.3493
-27.8602
-27.8301
-27.279
-26.2434
-24.7744
-22.9336
-20.7904
-18.4145
-15.8695
-13.2116
-10.4785
-7.73924
-5.00872
-2.56684
-0.248743
0.628689
1.79091
9.79537
7.46558
9.18379
9.75857
10.5701
11.3976
12.214
13.046
13.8623
14.6504
15.3887
16.0514
16.6113
17.0371
17.296
17.354
17.1768
16.7313
15.9874
14.9191
13.5068
11.7391
9.61471
7.14449
4.35305
1.27991
-2.01996
-5.47648
-9.0063
-12.5157
-15.905
-19.0739
-21.9275
-24.3815
-26.367
-27.8334
-28.7507
-29.1087
-28.9163
-28.1995
-27.0008
-25.3763
-23.3921
-21.1208
-18.6338
-15.9942
-13.2561
-10.4507
-7.64887
-4.84734
-2.36955
0.0387435
0.789461
2.14214
9.90365
7.53909
9.30867
9.88033
10.7204
11.5717
12.4205
13.2916
14.1548
14.9991
15.8033
16.5429
17.1912
17.7173
18.0886
18.2706
18.2281
17.9264
17.3328
16.418
15.1582
13.5367
11.5457
9.18897
6.48312
3.45927
0.164262
-3.33936
-6.97397
-10.6493
-14.2658
-17.72
-20.91
-23.7417
-26.1339
-28.0228
-29.3647
-30.1363
-30.3346
-29.9753
-29.0907
-27.7284
-25.9495
-23.8242
-21.4281
-18.8342
-16.1044
-13.2903
-10.416
-7.55446
-4.6819
-2.16988
0.335724
0.951935
2.51991
10.0093
7.61009
9.42889
9.99636
10.8636
11.7369
12.6162
13.5243
14.4321
15.3298
16.1974
17.011
17.7448
18.3687
18.8502
19.1547
19.2463
19.0892
18.6485
17.8923
16.7926
15.3281
13.4854
11.261
8.66395
5.71691
2.45805
-1.05834
-4.76189
-8.56747
-12.378
-16.0888
-19.5932
-22.7888
-25.5829
-27.8986
-29.6782
-30.8847
-31.5023
-31.5352
-31.0057
-29.9515
-28.4258
-26.4941
-24.2303
-21.7131
-19.0166
-16.201
-13.3154
-10.3755
-7.45712
-4.51355
-1.96888
0.641082
1.1158
2.9235
10.1127
7.67875
9.54456
10.1069
10.9997
11.8935
12.8015
13.7444
14.6945
15.6431
16.5711
17.4558
18.2723
18.991
19.5801
20.0051
20.2296
20.217
19.9308
19.3365
18.4031
17.1048
15.4229
13.3477
10.8807
8.03618
4.84358
1.34825
-2.3877
-6.28604
-10.2541
-14.1884
-17.9798
-21.5192
-24.7042
-27.4452
-29.6703
-31.3281
-32.3893
-32.8456
-32.7082
-32.0057
-30.7813
-29.0929
-27.0101
-24.611
-21.9765
-19.1819
-16.2851
-13.3325
-10.3303
-7.35793
-4.34334
-1.7675
0.95364
1.28077
3.35199
10.214
7.74516
9.65583
10.2122
11.1292
12.0418
12.9769
13.9524
14.9425
15.9393
16.9251
17.8778
18.7739
19.5843
20.2781
20.8209
21.1765
21.3075
21.1762
20.7461
19.9835
18.8588
17.3485
15.437
13.119
10.4007
7.3028
3.86137
0.129397
-3.82301
-7.90958
-12.0303
-16.076
-19.9333
-23.4917
-26.6501
-29.3226
-31.4433
-32.9679
-33.8747
-34.1633
-33.8516
-32.9742
-31.5795
-29.7295
-27.4981
-24.9669
-22.2193
-19.3312
-16.3579
-13.3425
-10.2813
-7.25787
-4.17232
-1.56666
1.27207
1.44669
3.8042
10.3135
7.80945
9.76282
10.3126
11.2523
12.1822
13.1425
14.1488
15.1766
16.2191
17.2597
18.2774
19.2498
20.1487
20.944
21.6017
22.0859
22.3588
22.3819
22.1171
21.5284
20.583
19.253
17.5177
15.3653
12.7947
9.81783
6.46151
2.76915
-1.19841
-5.3628
-9.62981
-13.8924
-18.0359
-21.9436
-25.5047
-28.6203
-31.2093
-33.2123
-34.5929
-35.3373
-35.4527
-34.9636
-33.9104
-32.3457
-30.3358
-27.9586
-25.2988
-22.4422
-19.4653
-16.4202
-13.3465
-10.2296
-7.15784
-4.00146
-1.36727
1.59511
1.61346
4.27858
10.4113
7.87173
9.86562
10.4082
11.3692
12.3149
13.299
14.334
15.3972
16.4829
17.5755
18.6551
19.7005
20.6845
21.5778
22.3472
22.9571
23.3696
23.5457
23.4463
23.0332
22.271
21.1283
19.5797
17.6072
15.2032
12.3713
9.1292
5.5106
1.56637
-2.6344
-7.00506
-11.4435
-15.836
-20.0626
-24.0047
-27.5519
-30.6086
-33.0995
-34.9723
-36.199
-36.7739
-36.7116
-36.0431
-34.8134
-33.0797
-30.9121
-28.392
-25.6074
-22.6463
-19.5854
-16.473
-13.3454
-10.1761
-7.05868
-3.83175
-1.17008
1.92144
1.78098
4.77346
10.5077
7.93212
9.96436
10.4993
11.4802
12.4404
13.4466
14.5083
15.6049
16.7313
17.8731
19.0116
20.1265
21.1921
22.1798
23.0573
23.7896
24.3388
24.6659
24.7308
24.494
23.9176
22.9673
21.6135
19.8332
17.612
14.9464
11.8453
8.33262
4.44894
0.253154
-4.17729
-8.74731
-13.347
-17.856
-22.1505
-26.1105
-29.627
-32.6089
-34.9874
-36.7185
-37.7823
-38.1816
-37.9381
-37.0886
-35.6828
-33.7818
-31.4589
-28.7991
-25.8936
-22.8324
-19.6922
-16.5173
-13.3401
-10.1214
-6.96119
-3.66405
-0.975807
2.24966
1.94925
5.28692
10.6029
7.99073
10.0592
10.5861
11.5855
12.5589
13.5857
14.6724
15.8002
16.9648
18.1531
19.3473
20.5286
21.672
22.7504
23.7323
24.5832
25.2659
25.7412
25.9685
25.9074
25.5182
24.7638
23.6111
22.0326
20.0083
17.5276
14.5914
11.2143
7.42643
3.27603
-1.1699
-5.82527
-10.5865
-15.3358
-19.9472
-24.2936
-28.2544
-31.7235
-34.6151
-36.8679
-38.4463
-39.3394
-39.558
-39.1305
-38.0994
-36.5185
-34.452
-31.9766
-29.1806
-26.1583
-23.0015
-19.7868
-16.5539
-13.3313
-10.0666
-6.86605
-3.49919
-0.785145
2.57845
2.11826
5.81687
10.6969
8.04759
10.1501
10.6689
11.6854
12.6708
13.7168
14.8266
15.9836
17.1841
18.4161
19.663
20.9072
22.1249
23.2902
24.3724
25.338
26.1505
26.7707
27.158
27.271
27.0689
26.5124
25.5653
24.1963
22.3803
20.1005
17.3502
14.1353
10.4761
6.40962
1.99188
-2.70166
-7.576
-12.5189
-17.4054
-22.1042
-26.4857
-30.43
-33.835
-36.6212
-38.7355
-40.1514
-40.867
-40.9006
-40.2874
-39.0748
-37.3202
-35.0907
-32.4659
-29.5373
-26.4024
-23.1545
-19.8701
-16.5838
-13.32
-10.0121
-6.77387
-3.33797
-0.598669
2.90645
2.28806
6.36124
10.7896
8.10264
10.2374
10.7478
11.78
12.7764
13.8401
14.9714
16.1556
17.3896
18.6628
19.9594
21.2632
22.5516
23.7997
24.9781
26.0544
26.9925
27.7539
28.2979
28.5829
28.5667
28.2086
27.47
26.316
24.7173
22.6515
20.1054
17.0763
13.5754
9.62915
5.28166
0.596986
-4.34046
-9.42655
-14.5405
-19.5506
-24.3209
-28.7202
-32.6308
-35.9552
-38.6216
-40.5856
-41.8302
-42.3621
-42.2075
-41.4077
-40.0144
-38.0881
-35.6984
-32.9275
-29.8701
-26.6267
-23.2923
-19.9429
-16.6076
-13.3066
-9.95873
-6.68523
-3.18108
-0.416932
3.23236
2.45872
6.91766
10.8816
8.15572
10.3208
10.8231
11.8697
12.8759
13.956
15.1072
16.3167
17.5821
18.8937
20.2372
21.5973
22.9527
24.2798
25.5503
26.7328
27.7922
28.6906
29.3876
29.8414
30.0091
29.8488
29.3199
28.3847
27.0101
25.169
22.842
20.0194
16.7033
12.9101
8.6726
4.04251
-0.907603
-6.08408
-11.3735
-16.647
-21.7661
-26.5911
-30.9907
-34.8501
-38.0779
-40.6107
-42.4136
-43.4789
-43.8222
-43.4771
-42.4905
-40.9179
-38.8224
-36.2756
-33.3622
-30.1798
-26.8322
-23.416
-20.0061
-16.6263
-13.292
-9.90701
-6.60061
-3.0292
-0.240409
3.55497
2.63022
7.48367
10.9734
8.20707
10.4003
10.8948
11.9547
12.9699
14.065
15.2344
16.4675
17.762
19.1097
20.4971
21.9103
23.3291
24.7312
26.0896
27.3739
28.55
29.581
30.4267
31.0456
31.3944
31.4302
31.1108
30.3964
29.2507
27.6423
25.5467
22.9478
19.8397
16.229
12.1379
7.60595
2.69268
-2.52032
-7.92982
-13.4133
-18.8334
-24.0459
-28.9084
-33.2904
-37.0813
-40.1971
-42.5835
-44.2152
-45.0943
-45.245
-44.7081
-43.5353
-41.7854
-39.5237
-36.8231
-33.7708
-30.4673
-27.0199
-23.5262
-20.0606
-16.6405
-13.2767
-9.85746
-6.52043
-2.88291
-0.0694911
3.87301
2.80254
8.05699
11.065
8.25762
10.4761
10.9629
12.0349
13.0583
14.1673
15.3535
16.6083
17.9299
19.3113
20.7398
22.2029
23.6816
25.1549
26.5968
27.9784
29.2667
30.4253
31.4153
32.1949
32.7212
32.9504
32.8393
32.3461
31.432
30.0622
28.2077
25.8465
22.9657
19.5637
15.6518
11.2581
6.42923
1.23316
-4.23912
-9.87473
-15.5416
-21.0945
-26.384
-31.2663
-35.6125
-39.3181
-42.3072
-44.5349
-45.9863
-46.6734
-46.6287
-45.8992
-44.5416
-42.6171
-40.1922
-37.3415
-34.1541
-30.7337
-27.1907
-23.624
-20.1072
-16.6508
-13.2612
-9.81054
-6.44506
-2.74269
0.0953981
4.18527
2.97572
8.63533
11.1544
8.30755
10.5493
11.0277
12.1104
13.1415
14.2634
15.4649
16.7397
18.0864
19.4991
20.9661
22.4761
24.0111
25.5516
27.073
28.5473
29.9429
31.2244
32.3535
33.2893
33.9887
34.4079
34.5027
34.2298
33.5485
32.421
30.8144
28.702
26.0647
22.8931
19.1896
14.9706
10.2703
5.14299
-0.334564
-6.06171
-11.9153
-17.7537
-23.4246
-28.7742
-33.6578
-37.9505
-41.5543
-44.4024
-46.4602
-47.7236
-48.2139
-47.9715
-47.0498
-45.5093
-43.4131
-40.8287
-37.8317
-34.5131
-30.9798
-27.3454
-23.7102
-20.1465
-16.6579
-13.246
-9.76667
-6.37479
-2.60906
0.253885
4.49073
3.14974
9.21633
11.2409
8.35478
10.6199
11.0904
12.1816
13.2194
14.3533
15.569
16.8623
18.2321
19.6738
21.1766
22.7305
24.3185
25.9225
27.519
29.0816
30.5796
31.9789
33.2421
34.3289
35.1967
35.8016
36.0989
36.0444
35.5954
34.712
33.3581
31.5027
29.1216
26.1987
22.728
18.7161
14.1848
9.17479
3.74824
-2.00879
-7.98524
-14.0475
-20.0448
-25.8179
-31.2096
-36.0763
-40.2978
-43.7837
-46.4774
-48.3553
-49.4237
-49.7132
-49.2721
-48.1593
-46.4383
-44.1739
-41.4339
-38.2945
-34.8488
-31.2066
-27.4851
-23.7856
-20.1793
-16.6625
-13.2316
-9.72617
-6.30991
-2.48245
0.405714
4.78842
3.3245
9.79771
11.33
8.39716
10.6856
11.1511
12.2496
13.2926
14.437
15.666
16.9763
18.3674
19.8361
21.3722
22.967
24.6047
26.2684
27.9359
29.5822
31.1778
32.6897
34.0817
35.3142
36.3452
37.131
37.6268
37.7874
37.5692
36.9299
35.8312
34.2386
32.1233
29.4635
26.2461
22.4689
18.1425
13.2944
7.97215
2.24621
-3.7873
-10.0065
-16.2671
-22.4095
-28.2681
-33.6838
-38.5152
-42.6478
-46.0004
-48.5274
-50.2163
-51.0837
-51.1696
-50.5296
-49.2272
-47.3288
-44.9001
-42.0086
-38.7309
-35.162
-31.415
-27.6105
-23.8511
-20.2063
-16.6649
-13.2182
-9.68937
-6.25064
-2.36319
0.550645
5.07741
3.49989
10.3773
11.4275
8.43818
10.7447
11.2075
12.3147
13.3622
14.5153
15.7559
17.0822
18.493
19.9865
21.5534
23.1864
24.8705
26.5903
28.3248
30.0503
31.7385
33.358
34.8733
36.2459
37.4346
38.3961
39.0854
39.4573
39.4668
39.0705
38.2277
36.901
35.0582
32.6727
29.7252
26.2055
22.1149
17.4687
12.2999
6.66332
0.638637
-5.66746
-12.1218
-18.5696
-24.8421
-30.7689
-36.1901
-40.9674
-44.994
-48.1989
-50.5477
-52.0393
-52.7011
-52.5816
-51.743
-50.2534
-48.1812
-45.5922
-42.5536
-39.1417
-35.4537
-31.606
-27.7227
-23.9075
-20.2281
-16.6658
-13.2064
-9.65657
-6.19714
-2.25153
0.688438
5.35685
3.67575
10.953
11.5215
8.48564
10.8024
11.2578
12.3743
13.4285
14.5893
15.8394
17.18
18.6091
20.1256
21.7211
23.3894
25.1169
26.8893
28.6868
30.487
32.2631
33.9848
35.618
37.125
38.4657
39.5971
40.4746
41.0529
41.2863
41.1304
40.5426
39.4833
37.9171
35.8136
33.1485
29.905
26.0758
21.6659
16.6949
11.2019
5.24967
-1.07239
-7.64641
-14.3275
-20.9498
-27.3369
-33.314
-38.7215
-43.4262
-47.3304
-50.3739
-52.5339
-53.8214
-54.2736
-53.9476
-52.9117
-51.2378
-48.9959
-46.2511
-43.0696
-39.528
-35.7249
-31.7805
-27.8224
-23.9554
-20.2454
-16.6655
-13.1964
-9.62795
-6.14951
-2.14775
0.818891
5.62602
3.85188
11.5229
11.5895
8.53821
10.8662
11.3075
12.4269
13.4891
14.6594
15.9179
17.2704
18.716
20.2539
21.8758
23.577
25.3448
27.1663
29.0229
30.8936
32.7528
34.5715
36.3169
37.9527
39.4393
40.7347
41.7947
42.5739
43.0265
43.1072
42.772
41.9797
40.6921
38.8756
36.5019
33.5487
30.0019
25.8568
21.122
15.8218
10.0017
3.73291
-2.88456
-9.72097
-16.6191
-23.4026
-29.8878
-35.8964
-41.271
-45.8853
-49.6511
-52.5201
-54.4822
-55.5596
-55.7994
-55.2667
-54.0354
-52.1808
-49.7733
-46.8774
-43.5578
-39.8906
-35.9766
-31.9394
-27.9105
-23.9956
-20.2587
-16.6646
-13.1885
-9.60368
-6.10787
-2.05203
0.941844
5.88427
4.02805
12.0852
11.657
8.58312
10.9281
11.3648
12.4781
13.5422
14.7232
15.9918
17.3548
18.8143
20.3716
22.0182
23.7498
25.555
27.4223
29.3342
31.2712
33.2088
35.1194
36.9716
38.7301
40.3566
41.8098
43.0461
44.0204
44.6867
44.9993
44.9133
44.3858
43.3768
41.8499
39.7733
37.1208
33.8722
30.0154
25.5488
20.4839
14.8504
8.70064
2.11498
-4.79528
-11.8875
-18.9922
-25.9227
-32.4883
-38.5093
-43.832
-48.3381
-51.9502
-54.6331
-56.3891
-57.2513
-57.2768
-56.538
-55.1141
-53.0825
-50.5142
-47.472
-44.0189
-40.2305
-36.2096
-32.0836
-27.9878
-24.0288
-20.2686
-16.6633
-13.1828
-9.58392
-6.07228
-1.96451
1.05716
6.13104
4.20397
12.6381
11.7367
8.61427
10.9687
11.4219
12.5364
13.5934
14.7787
16.0587
17.4339
18.9055
20.4794
22.1484
23.9084
25.7484
27.6582
29.6219
31.6209
33.6324
35.6299
37.5833
39.4587
41.2189
42.8235
44.2297
45.3927
46.2669
46.806
46.9645
46.6986
45.9663
44.7295
42.9533
40.608
37.6691
34.1185
29.9459
25.1523
19.7528
13.7823
7.30054
0.398021
-6.80151
-14.1423
-21.4422
-28.5041
-35.1318
-41.1459
-46.3977
-50.7781
-54.2226
-56.7087
-58.251
-58.8944
-58.7047
-57.7613
-56.1476
-53.9434
-51.2192
-48.0358
-44.454
-40.5487
-36.425
-32.214
-28.0551
-24.0557
-20.2756
-16.6621
-13.1796
-9.56879
-6.04278
-1.8853
1.16473
6.36586
4.37933
13.1802
11.7628
8.61101
11.0018
11.4588
12.593
13.6518
14.8315
16.1165
17.5053
18.9905
20.5789
22.2672
24.0532
25.9257
27.8751
29.8869
31.944
34.0248
36.1043
38.1536
40.1401
42.0277
43.7772
45.3467
46.6919
47.7674
48.527
48.9246
48.9156
48.457
47.5086
46.0336
43.9994
41.3778
38.1461
34.2877
29.7942
24.6687
18.9302
12.6191
5.80331
-1.4154
-8.90029
-16.4815
-23.9638
-31.1406
-37.8118
-43.7994
-48.9612
-53.1998
-56.4632
-58.7426
-60.0653
-60.4869
-60.082
-58.9358
-57.1362
-54.7641
-51.8892
-48.5698
-44.864
-40.8462
-36.6236
-32.3314
-28.1131
-24.0768
-20.2801
-16.6613
-13.1791
-9.55835
-6.01937
-1.81445
1.26446
6.58834
4.55378
13.7099
11.7891
8.60738
11.0348
11.4877
12.6268
13.7093
14.8911
16.1705
17.5666
19.0671
20.6712
22.3763
24.1849
26.0873
28.0738
30.1304
32.2417
34.3875
36.5441
38.684
40.7758
42.7846
44.6725
46.3985
47.919
49.189
50.1625
50.7932
51.0358
50.8463
50.1833
49.0082
47.2862
44.9862
42.0819
38.5518
34.3806
29.5615
24.0996
18.0179
11.3627
4.21122
-3.32283
-11.0885
-18.9007
-26.5516
-33.8263
-40.5217
-46.4626
-51.5164
-55.5972
-58.6672
-60.7313
-61.8295
-62.0276
-61.4079
-60.0617
-58.0802
-55.5453
-52.5251
-49.0748
-45.2499
-41.1239
-36.8063
-32.4367
-28.1626
-24.0929
-20.2825
-16.6611
-13.1814
-9.55267
-6.00204
-1.75199
1.35627
6.79816
4.72693
14.226
11.8159
8.60359
11.0451
11.514
12.6533
13.7448
14.9503
16.2306
17.6228
19.1324
20.7541
22.4771
24.3054
26.234
28.2547
30.3533
32.5152
34.7217
36.9507
39.1758
41.3673
43.4913
45.511
47.3866
49.0754
50.533
51.7134
52.5705
53.0585
53.1328
52.7508
51.8726
50.4616
48.4846
45.9125
42.72
38.887
34.3988
29.2497
23.4472
17.0179
10.0153
2.52646
-5.32165
-13.3623
-21.3952
-29.2002
-36.5548
-43.2541
-49.1291
-54.0568
-57.9649
-60.8302
-62.6717
-63.5415
-63.5149
-62.6819
-61.1391
-58.9801
-56.2876
-53.1275
-49.5518
-45.6126
-41.3828
-36.9741
-32.5306
-28.2043
-24.1044
-20.2834
-16.6618
-13.1866
-9.55177
-5.99076
-1.6979
1.44012
6.99509
4.89839
14.7274
11.8428
8.60004
11.0548
11.5227
12.6822
13.7714
14.9884
16.2913
17.6841
19.191
20.8246
22.5676
24.4163
26.3677
28.4186
30.5562
32.7655
35.0287
37.3255
39.6309
41.9163
44.1494
46.2946
48.3129
50.1628
51.8005
53.1807
54.2571
54.9838
55.3157
55.2093
54.6236
53.5206
51.8656
49.6273
46.7777
43.2929
39.1531
34.3442
28.8612
22.7137
15.9327
8.57909
0.751286
-7.40875
-15.7179
-23.9605
-31.9039
-39.3191
-46.0026
-51.7921
-56.5763
-60.2977
-62.9483
-64.561
-65.1992
-64.9479
-63.9039
-62.168
-59.8366
-56.9919
-53.6977
-50.0018
-45.9531
-41.6236
-37.1276
-32.614
-28.2388
-24.1119
-20.2831
-16.6637
-13.1948
-9.55565
-5.98547
-1.65214
1.51597
7.17897
5.06774
15.2132
11.8699
8.59662
11.0648
11.5308
12.6918
13.7954
15.016
16.3333
17.7473
19.2535
20.8865
22.6443
24.5158
26.4903
28.5676
30.7398
32.9932
35.3098
37.6699
40.0506
42.4245
44.7608
47.0249
49.1793
51.1831
52.9935
54.5659
55.8542
56.8124
57.395
57.558
57.2593
56.46
55.1239
53.2182
50.7132
47.5822
43.8018
39.3523
34.2194
28.3986
21.9017
14.7645
7.05626
-1.1116
-9.58103
-18.1516
-26.5915
-34.6563
-42.113
-48.7604
-54.4449
-59.0691
-62.591
-65.0181
-66.3964
-66.8013
-66.3261
-65.0736
-63.1489
-60.6501
-57.659
-54.2364
-50.4257
-46.2723
-41.8473
-37.2679
-32.6876
-28.2668
-24.116
-20.282
-16.667
-13.2061
-9.56432
-5.98611
-1.61466
1.5838
7.34969
5.23453
15.6825
11.8972
8.59335
11.0747
11.5394
12.7007
13.8024
15.035
16.3623
17.7949
19.3195
20.9508
22.7102
24.6001
26.6004
28.7039
30.9064
33.1994
35.5657
37.9854
40.4365
42.8936
45.3272
47.704
49.9875
52.1381
54.1139
55.8707
57.3632
58.5453
59.3714
59.7968
59.7789
59.2775
58.2557
56.6794
54.5176
51.7422
48.3271
44.2487
39.4871
34.0272
27.865
21.0141
13.5158
5.44934
-3.05957
-11.8355
-20.6592
-29.2826
-37.4516
-44.9297
-51.5203
-57.0811
-61.5298
-64.8405
-67.0358
-68.1759
-68.3466
-67.6488
-66.1912
-64.0823
-61.4217
-58.29
-54.7447
-50.8245
-46.5711
-42.0548
-37.3956
-32.752
-28.2888
-24.117
-20.2803
-16.6718
-13.2206
-9.57773
-5.99262
-1.58535
1.64363
7.50721
5.39834
16.1344
11.9245
8.59022
11.0846
11.548
12.7101
13.8089
15.0392
16.3721
17.8265
19.3739
21.0204
22.7767
24.6711
26.6936
28.8264
31.0585
33.3861
35.7972
38.2728
40.7903
43.3254
45.8504
48.3336
50.7396
53.03
55.1636
57.0972
58.7859
60.1841
61.2459
61.9263
62.1821
61.9723
61.259
60.0072
58.1851
55.7634
52.715
49.014
44.6364
39.5608
33.7713
27.2635
20.0536
12.1892
3.76079
-5.09015
-14.1687
-23.236
-32.0289
-40.2834
-47.7621
-54.2757
-59.6948
-63.9533
-67.0418
-68.999
-69.8979
-69.8341
-68.916
-67.2571
-64.9689
-62.1521
-58.8858
-55.2235
-51.1991
-46.8504
-42.2469
-37.5116
-32.808
-28.3056
-24.1155
-20.2784
-16.6783
-13.2382
-9.59586
-6.00488
-1.5641
1.69546
7.65153
5.55871
16.5686
11.9524
8.58708
11.0945
11.5567
12.7193
13.8157
15.043
16.3716
17.8258
19.4086
21.0831
22.8506
24.7407
26.7709
28.9303
31.1953
33.5563
36.0068
38.5329
41.1127
43.7214
46.3324
48.9159
51.4378
53.8608
56.1448
58.2475
60.1245
61.7305
63.0201
63.9477
64.4696
64.5442
64.1328
63.1994
61.7117
59.6397
56.9556
53.633
49.6456
44.968
39.5771
33.4552
26.5976
19.0233
10.7874
1.99286
-7.2006
-16.577
-25.878
-34.8245
-43.145
-50.6036
-57.0202
-62.2803
-66.3344
-69.1914
-70.905