/*--------------------------------*- C++ -*----------------------------------*\
  =========                 |
  \\      /  F ield         | OpenFOAM: The Open Source CFD Toolbox
   \\    /   O peration     | Website:  https://openfoam.org
    \\  /    A nd           | Version:  7
     \\/     M anipulation  |
\*---------------------------------------------------------------------------*/
FoamFile
{
    version     2.0;
    format      ascii;
    class       surfaceScalarField;
    location    "600";
    object      phi;
}
// * * * * * * * * * * * * * * * * * * * * * * * * * * * * * * * * * * * * * //

dimensions      [0 3 -1 0 0 0 0];

internalField   nonuniform List<scalar> 
45906
(
-0.300349
0.0687716
-0.300378
0.0666314
-0.288296
0.0688047
-0.300403
0.0645626
-0.288334
0.06667
-0.276717
0.0688605
-0.300427
0.0625594
-0.288375
0.0646036
-0.276772
0.0667251
-0.265661
0.0689296
-0.300449
0.0606086
-0.288416
0.0625996
-0.276826
0.0646573
-0.265728
0.0667929
-0.255116
0.0690044
-0.300469
0.0587096
-0.288454
0.0606474
-0.276878
0.0626519
-0.265793
0.0647222
-0.255189
0.0668654
-0.244903
0.0690812
-0.300489
0.0568895
-0.288491
0.0587467
-0.276929
0.0606978
-0.265856
0.0627141
-0.255258
0.0647916
-0.244976
0.0669377
-0.235105
0.0691554
-0.300509
0.0551217
-0.288527
0.0569247
-0.276977
0.0587948
-0.265915
0.0607568
-0.255324
0.0627799
-0.245044
0.0648602
-0.235174
0.0670069
-0.22567
0.0692268
-0.300527
0.0533933
-0.28856
0.0551549
-0.277022
0.0569701
-0.26597
0.0588502
-0.255385
0.0608184
-0.245109
0.0628445
-0.235241
0.0649268
-0.225738
0.0670751
-0.216611
0.0692998
-0.300544
0.0517311
-0.288591
0.0534243
-0.277065
0.0551974
-0.266022
0.0570218
-0.255442
0.0589074
-0.245169
0.0608787
-0.235304
0.0629078
-0.225806
0.0649942
-0.216683
0.0671471
-0.207861
0.0693787
-0.30056
0.0501087
-0.28862
0.0517599
-0.277104
0.0534637
-0.266069
0.0552451
-0.255495
0.0570744
-0.245225
0.0589636
-0.235364
0.0609389
-0.225871
0.0629734
-0.216756
0.0650669
-0.207941
0.0672269
-0.199515
0.0694658
-0.300575
0.0485397
-0.288646
0.0501353
-0.27714
0.0517962
-0.266113
0.0535074
-0.255543
0.0552933
-0.245277
0.0571265
-0.235421
0.0590206
-0.225935
0.0610026
-0.216828
0.0630452
-0.208021
0.0651473
-0.199604
0.0673152
-0.191496
0.0695604
-0.300589
0.0470243
-0.28867
0.048564
-0.277173
0.0501683
-0.266153
0.0518357
-0.255587
0.0535512
-0.245326
0.0553413
-0.235475
0.0571803
-0.225996
0.0590821
-0.216898
0.0610732
-0.208101
0.0631248
-0.199691
0.0652353
-0.191591
0.06741
-0.183809
0.0696601
-0.300602
0.0455492
-0.288692
0.0470462
-0.277203
0.0485938
-0.266188
0.0502039
-0.255627
0.0518754
-0.24537
0.0535954
-0.235526
0.055392
-0.226056
0.0572394
-0.216967
0.0591508
-0.208179
0.0611514
-0.199778
0.0632114
-0.191684
0.0653287
-0.183907
0.0675087
-0.176429
0.0697625
-0.300613
0.044136
-0.288712
0.0455689
-0.27723
0.047073
-0.26622
0.0486257
-0.255662
0.0502396
-0.24541
0.0519159
-0.235573
0.0536428
-0.226112
0.0554484
-0.217033
0.0573056
-0.208255
0.0592265
-0.199862
0.0612357
-0.191775
0.0633028
-0.184004
0.0654255
-0.176529
0.0676094
-0.169343
0.0698663
-0.300624
0.0427487
-0.288729
0.0441535
-0.277254
0.0455927
-0.266248
0.0471012
-0.255694
0.0486575
-0.245447
0.0502765
-0.235617
0.0519601
-0.226165
0.0536961
-0.217096
0.0555115
-0.208328
0.0573784
-0.199944
0.0593079
-0.191864
0.0613243
-0.184098
0.0633972
-0.176628
0.0655242
-0.169445
0.0677112
-0.162531
0.0699709
-0.300633
0.041414
-0.288745
0.042764
-0.277275
0.0441744
-0.266273
0.0456176
-0.255723
0.0471296
-0.245481
0.048691
-0.235658
0.0503174
-0.226215
0.0520099
-0.217156
0.0537557
-0.208397
0.0555806
-0.200021
0.057456
-0.191949
0.059393
-0.18419
0.0614157
-0.176725
0.0634937
-0.169545
0.0656246
-0.162634
0.0678141
-0.155999
0.0700762
-0.300642
0.0401174
-0.288758
0.0414274
-0.277293
0.0427824
-0.266295
0.0441963
-0.255748
0.0456427
-0.245511
0.0471598
-0.235696
0.0487285
-0.226261
0.0503636
-0.217211
0.0520655
-0.208461
0.0538205
-0.200095
0.055654
-0.19203
0.0575372
-0.184278
0.059481
-0.176818
0.0615096
-0.169644
0.0635923
-0.162736
0.0657268
-0.156104
0.0679183
-0.149719
0.0701824
-0.300649
0.0388642
-0.28877
0.0401289
-0.277309
0.0414434
-0.266314
0.0428014
-0.25577
0.0442183
-0.245538
0.0456697
-0.23573
0.0471938
-0.226304
0.0487708
-0.217263
0.0504148
-0.208522
0.0521257
-0.200163
0.0538892
-0.192107
0.0557308
-0.184362
0.0576213
-0.176909
0.0595717
-0.16974
0.061606
-0.162837
0.0636931
-0.156208
0.0658308
-0.149824
0.0680241
-0.143695
0.0702896
-0.300656
0.0376491
-0.28878
0.038874
-0.277323
0.0401428
-0.26633
0.0414599
-0.255789
0.0428207
-0.245562
0.0442422
-0.23576
0.0457001
-0.226342
0.0472319
-0.217309
0.0488174
-0.208577
0.05047
-0.200227
0.0521894
-0.192179
0.0539613
-0.184442
0.0558107
-0.176996
0.0577086
-0.169834
0.0596655
-0.162936
0.0617051
-0.156311
0.0637963
-0.14993
0.0659368
-0.143802
0.0681312
-0.137914
0.0703975
-0.300662
0.036472
-0.288788
0.0376574
-0.277335
0.038886
-0.266345
0.040157
-0.255806
0.0414765
-0.245583
0.0428416
-0.235787
0.044269
-0.226376
0.045734
-0.217351
0.0472738
-0.208627
0.0488675
-0.200286
0.0505285
-0.192246
0.0522565
-0.184517
0.0540367
-0.17708
0.0558942
-0.169925
0.0577993
-0.163033
0.0597624
-0.156413
0.061807
-0.150036
0.0639018
-0.14391
0.0660444
-0.138022
0.0682395
-0.132356
0.0705059
-0.300666
0.0353343
-0.288795
0.036479
-0.277345
0.0376677
-0.266357
0.0388982
-0.25582
0.0401712
-0.245601
0.0414945
-0.23581
0.0428648
-0.226405
0.0442988
-0.217388
0.0457711
-0.208672
0.0473187
-0.200339
0.0489207
-0.192308
0.0505903
-0.184588
0.052327
-0.177159
0.0541158
-0.170012
0.0559813
-0.163127
0.0578936
-0.156513
0.0598626
-0.15014
0.0619117
-0.144017
0.0640094
-0.138131
0.0661535
-0.132466
0.0683487
-0.127027
0.0706144
-0.300671
0.0342307
-0.288801
0.0353402
-0.277354
0.0364879
-0.266367
0.0376781
-0.255832
0.0389101
-0.245616
0.0401863
-0.23583
0.0415141
-0.226431
0.0428903
-0.21742
0.044331
-0.208711
0.0458107
-0.200387
0.0473664
-0.192364
0.0489771
-0.184653
0.0506557
-0.177233
0.0524015
-0.170095
0.0541989
-0.163219
0.0560724
-0.156611
0.0579915
-0.150244
0.0599659
-0.144124
0.0620189
-0.138241
0.0641188
-0.132576
0.0662637
-0.127137
0.0684583
-0.121916
0.0707227
-0.300674
0.0331625
-0.288806
0.0342356
-0.277362
0.0353479
-0.266376
0.0364967
-0.255842
0.0376879
-0.245628
0.0389225
-0.235846
0.0402025
-0.226452
0.0415355
-0.217448
0.0429178
-0.208746
0.0443655
-0.200429
0.0458531
-0.192415
0.0474173
-0.184713
0.0490371
-0.177303
0.0507251
-0.170173
0.0524801
-0.163306
0.0542862
-0.156706
0.0561674
-0.150345
0.0580929
-0.144231
0.0600722
-0.13835
0.0621284
-0.132687
0.0642297
-0.127248
0.0663746
-0.122026
0.0685679
-0.116999
0.0708304
-0.300677
0.0321269
-0.28881
0.0331666
-0.277369
0.0342424
-0.266383
0.0353553
-0.25585
0.0365045
-0.245638
0.0376976
-0.235859
0.0389354
-0.22647
0.0402199
-0.217471
0.0415584
-0.208775
0.0429472
-0.200466
0.0444024
-0.192461
0.0458984
-0.184768
0.0474718
-0.177367
0.0491011
-0.170247
0.0507988
-0.163389
0.052563
-0.156797
0.0543776
-0.150444
0.0562662
-0.144335
0.0581976
-0.138459
0.0601811
-0.132798
0.0622398
-0.12736
0.0643418
-0.122137
0.0664859
-0.117108
0.0686773
-0.112285
0.0709371
-0.30068
0.0311265
-0.288813
0.0321304
-0.277375
0.0331726
-0.266389
0.0342484
-0.255856
0.0353613
-0.245645
0.0365117
-0.235869
0.0377074
-0.226483
0.038949
-0.217489
0.0402385
-0.2088
0.041583
-0.200498
0.0429788
-0.1925
0.0444422
-0.184817
0.0459471
-0.177425
0.0475302
-0.170315
0.0491694
-0.163467
0.0508769
-0.156885
0.0526504
-0.150539
0.0544732
-0.144438
0.0563687
-0.138567
0.0583054
-0.132909
0.0602924
-0.127473
0.0623528
-0.12225
0.0644548
-0.11722
0.0665973
-0.112394
0.0687861
-0.107761
0.0710426
-0.300682
0.0301548
-0.288816
0.0311296
-0.27738
0.0321358
-0.266394
0.0331775
-0.25586
0.0342527
-0.24565
0.0353661
-0.235875
0.0365185
-0.226493
0.0377174
-0.217504
0.0389633
-0.20882
0.0402583
-0.200524
0.0416094
-0.192534
0.043013
-0.18486
0.0444852
-0.177478
0.0459997
-0.170378
0.0475928
-0.16354
0.0492422
-0.156967
0.0509595
-0.150631
0.052742
-0.144537
0.0545727
-0.138673
0.0564747
-0.13302
0.0584161
-0.127586
0.0604058
-0.122365
0.0624671
-0.117333
0.0645683
-0.112505
0.0667084
-0.107869
0.0688939
-0.103415
0.0711464
-0.300684
0.0292168
-0.288819
0.0301576
-0.277385
0.0311345
-0.266398
0.0321396
-0.255863
0.0331801
-0.245652
0.0342553
-0.235879
0.0353701
-0.2265
0.0365252
-0.217514
0.0377279
-0.208835
0.0389787
-0.200545
0.0402798
-0.192563
0.0416382
-0.184897
0.0430502
-0.177524
0.0445318
-0.170435
0.0460564
-0.163607
0.0476599
-0.157045
0.0493196
-0.150718
0.0510466
-0.144633
0.052838
-0.138776
0.0546761
-0.133129
0.0565839
-0.127699
0.0585293
-0.12248
0.0605211
-0.117449
0.0625826
-0.112619
0.064682
-0.107979
0.066819
-0.103522
0.0690005
-0.0992482
0.0712483
-0.300685
0.0283061
-0.288822
0.0292195
-0.277389
0.0301621
-0.266401
0.0311374
-0.255864
0.0321407
-0.245653
0.0331807
-0.235881
0.0342568
-0.226504
0.0353738
-0.217521
0.0365321
-0.208846
0.037739
-0.200562
0.0389954
-0.192587
0.0403032
-0.184928
0.0416696
-0.177565
0.0430908
-0.170485
0.0445823
-0.163668
0.0461174
-0.157116
0.0477316
-0.1508
0.0494015
-0.144725
0.0511382
-0.138876
0.052938
-0.133236
0.0547832
-0.127812
0.0566963
-0.122595
0.0586449
-0.117566
0.060638
-0.112735
0.0626987
-0.108093
0.0647957
-0.103631
0.0669288
-0.0993533
0.0691057
-0.0952455
0.071348
-0.300687
0.0274251
-0.288825
0.0283088
-0.277394
0.0292237
-0.266403
0.030164
-0.255863
0.0311371
-0.245652
0.0321395
-0.23588
0.0331799
-0.226504
0.0342577
-0.217525
0.0353773
-0.208854
0.0365393
-0.200574
0.0377511
-0.192605
0.0390137
-0.184954
0.040329
-0.1776
0.0417042
-0.17053
0.0431351
-0.163723
0.0446371
-0.157182
0.046183
-0.150877
0.0478079
-0.144812
0.0494882
-0.138972
0.0512342
-0.13334
0.0530421
-0.127922
0.0548938
-0.122711
0.0568114
-0.117683
0.0587626
-0.112854
0.0607561
-0.10821
0.0628154
-0.103745
0.0649091
-0.099462
0.0670374
-0.0953489
0.069209
-0.0914069
0.0714451
-0.300688
0.0265724
-0.288827
0.0274278
-0.277397
0.0283127
-0.266404
0.0292248
-0.255862
0.0301625
-0.245649
0.0311342
-0.235877
0.0321366
-0.226503
0.0331783
-0.217525
0.0342582
-0.208857
0.0353809
-0.200582
0.0365471
-0.192618
0.0377645
-0.184974
0.039034
-0.177628
0.0403576
-0.170568
0.0417421
-0.163771
0.0431834
-0.157241
0.0446962
-0.150947
0.0462531
-0.144893
0.0478889
-0.139064
0.0495794
-0.133441
0.0513345
-0.12803
0.0531501
-0.122824
0.0550076
-0.117801
0.0569292
-0.112973
0.0588822
-0.108329
0.0608753
-0.103862
0.0629324
-0.0995748
0.0650219
-0.0954562
0.0671447
-0.0915083
0.0693104
-0.0877126
0.0715396
-0.30069
0.0257455
-0.28883
0.0265754
-0.277401
0.0274316
-0.266404
0.028313
-0.255859
0.0292221
-0.245644
0.0301581
-0.235873
0.0311296
-0.226499
0.0321328
-0.217523
0.0331761
-0.208857
0.0342584
-0.200586
0.0353847
-0.192627
0.0365559
-0.184989
0.0377796
-0.177651
0.0390568
-0.170599
0.0403892
-0.163812
0.0417838
-0.157293
0.0432358
-0.15101
0.0447599
-0.144968
0.0463281
-0.139149
0.0479747
-0.133536
0.0496751
-0.128135
0.051439
-0.122936
0.0532618
-0.117918
0.0551245
-0.113093
0.0570493
-0.10845
0.0590033
-0.103982
0.0609953
-0.0996917
0.0630492
-0.0955682
0.0651339
-0.091614
0.0672505
-0.0878118
0.0694095
-0.0841776
0.071631
-0.300692
0.0249455
-0.288834
0.0257487
-0.277405
0.026579
-0.266404
0.0274312
-0.255855
0.0283093
-0.245639
0.0292165
-0.235867
0.030152
-0.226493
0.0311238
-0.217518
0.0321281
-0.208854
0.0331732
-0.200586
0.0342585
-0.192631
0.035389
-0.184999
0.0365659
-0.177668
0.0377966
-0.170625
0.0390822
-0.163847
0.0404243
-0.157339
0.0418294
-0.151067
0.0432926
-0.145036
0.0448282
-0.139229
0.0464078
-0.133627
0.0480652
-0.128235
0.0497754
-0.123045
0.0515476
-0.118033
0.0533769
-0.113213
0.0552442
-0.108572
0.0571714
-0.104104
0.0591257
-0.0998122
0.0611158
-0.0956848
0.0631659
-0.091725
0.0652449
-0.0879156
0.0673543
-0.0842743
0.0695062
-0.0807768
0.0717191
-0.300694
0.0241698
-0.288837
0.024949
-0.277408
0.0257521
-0.266403
0.0265779
-0.255851
0.0274265
-0.245632
0.0283026
-0.235859
0.029209
-0.226486
0.0301445
-0.217511
0.0311169
-0.208849
0.0321224
-0.200583
0.0331699
-0.192632
0.0342588
-0.185005
0.0353943
-0.17768
0.0365775
-0.170644
0.037816
-0.163876
0.0391107
-0.157378
0.040463
-0.151117
0.0418792
-0.145097
0.043354
-0.139302
0.0449014
-0.133711
0.0464923
-0.12833
0.0481604
-0.123149
0.04988
-0.118145
0.05166
-0.113331
0.0534953
-0.108694
0.0553664
-0.104228
0.0572954
-0.0999356
0.0592491
-0.0958056
0.0612366
-0.0918411
0.063282
-0.0880254
0.0653547
-0.0843761
0.0674562
-0.0808709
0.0696003
-0.0775204
0.0718039
-0.300696
0.0234183
-0.288841
0.0241736
-0.277411
0.0249522
-0.266401
0.0257504
-0.255845
0.0265724
-0.245625
0.0274189
-0.235851
0.028294
-0.226477
0.0292001
-0.217502
0.0301356
-0.208841
0.0311087
-0.200576
0.032116
-0.192628
0.0331664
-0.185005
0.0342596
-0.177686
0.0354007
-0.170658
0.036591
-0.163898
0.037838
-0.157409
0.0391424
-0.15116
0.0405055
-0.145151
0.0419333
-0.139368
0.0434201
-0.133789
0.0449794
-0.128419
0.0465816
-0.123249
0.0482601
-0.118254
0.0499887
-0.113447
0.0517761
-0.108816
0.0536167
-0.104353
0.055491
-0.100061
0.0574209
-0.0959298
0.0593733
-0.0919619
0.0613574
-0.0881408
0.0633974
-0.0844845
0.065463
-0.0809706
0.0675559
-0.0776118
0.0696916
-0.0743835
0.0718849
-0.300698
0.0226923
-0.288845
0.0234225
-0.277414
0.0241766
-0.266399
0.0249499
-0.255839
0.0257442
-0.245616
0.026564
-0.235841
0.0274094
-0.226467
0.0282838
-0.217492
0.0291895
-0.20883
0.0301253
-0.200567
0.0310996
-0.192621
0.0321091
-0.185002
0.033163
-0.177688
0.0342611
-0.170666
0.0354086
-0.163914
0.0366067
-0.157434
0.037863
-0.151195
0.0391778
-0.145198
0.0405523
-0.139427
0.041992
-0.13386
0.043491
-0.128502
0.0450623
-0.123343
0.0466757
-0.118358
0.0483643
-0.11356
0.0501015
-0.108935
0.0518956
-0.104477
0.0537408
-0.100188
0.0556175
-0.0960565
0.0575476
-0.0920867
0.0594981
-0.0882614
0.061478
-0.084599
0.063512
-0.0810774
0.0655697
-0.0777092
0.0676533
-0.074472
0.0697801
-0.071381
0.071962
-0.300701
0.0219878
-0.288849
0.0226968
-0.277417
0.0234252
-0.266396
0.0241737
-0.255832
0.0249431
-0.245607
0.0257353
-0.235831
0.0265538
-0.226455
0.0273982
-0.21748
0.0282718
-0.208818
0.0291773
-0.200555
0.0301137
-0.192611
0.0310896
-0.184995
0.032102
-0.177685
0.03316
-0.170668
0.0342637
-0.163923
0.0354183
-0.157453
0.036625
-0.151223
0.0378911
-0.145237
0.039217
-0.139478
0.0406033
-0.133924
0.0420555
-0.128578
0.0435668
-0.123431
0.04515
-0.118457
0.0467745
-0.113669
0.0484729
-0.109052
0.0502181
-0.104599
0.0520182
-0.100314
0.0538674
-0.0961848
0.0557458
-0.0922144
0.0576754
-0.0883864
0.0596231
-0.0847192
0.0615982
-0.0811908
0.0636254
-0.0778142
0.0656748
-0.0745669
0.0677482
-0.0714664
0.0698656
-0.0684979
0.0720351
-0.300704
0.0213048
-0.288854
0.0219926
-0.27742
0.0226993
-0.266393
0.0234218
-0.255825
0.0241665
-0.245598
0.0249338
-0.23582
0.0257245
-0.226443
0.0265418
-0.217467
0.027385
-0.208804
0.0282579
-0.200542
0.0291635
-0.192599
0.0301009
-0.184984
0.031079
-0.177677
0.0320948
-0.170666
0.0331577
-0.163927
0.0342677
-0.157464
0.0354301
-0.151244
0.036646
-0.145269
0.0379227
-0.139521
0.0392602
-0.133979
0.0406589
-0.128646
0.0421237
-0.123512
0.0436475
-0.11855
0.0452426
-0.113772
0.0468779
-0.109164
0.0485856
-0.104719
0.0503382
-0.10044
0.0521438
-0.0963136
0.0539962
-0.0923442
0.0558756
-0.0885149
0.0578039
-0.0848443
0.0597482
-0.0813105
0.0617178
-0.0779264
0.0637377
-0.0746701
0.065778
-0.0715588
0.0678405
-0.0685803
0.069948
-0.0657294
0.072104
-0.300708
0.0206445
-0.288859
0.0213099
-0.277422
0.0219949
-0.266389
0.0226955
-0.255818
0.0234143
-0.245588
0.0241569
-0.235809
0.0249226
-0.226431
0.0257117
-0.217452
0.0265275
-0.208789
0.0273697
-0.200526
0.0282423
-0.192583
0.0291483
-0.184971
0.0300872
-0.177666
0.031068
-0.170659
0.0320879
-0.163926
0.0331563
-0.15747
0.0342733
-0.151258
0.0354443
-0.145293
0.0366702
-0.139557
0.0379581
-0.134027
0.0393077
-0.128707
0.0407192
-0.123585
0.0421968
-0.118635
0.0437332
-0.113869
0.04534
-0.109272
0.0469857
-0.104836
0.0487022
-0.100563
0.0504617
-0.0964418
0.052272
-0.0924749
0.054127
-0.0886459
0.0560065
-0.0849733
0.0579329
-0.0814354
0.0598731
-0.0780453
0.0618367
-0.0747809
0.0638485
-0.07166
0.0658792
-0.06867
0.0679302
-0.0658087
0.0700273
-0.0630704
0.0721684
-0.300712
0.0200042
-0.288865
0.0206498
-0.277424
0.0213118
-0.266384
0.0219906
-0.25581
0.0226877
-0.245578
0.0234045
-0.235797
0.0241454
-0.226417
0.0249093
-0.217437
0.0256967
-0.208773
0.0265111
-0.200509
0.0273524
-0.192566
0.0282249
-0.184954
0.0291319
-0.177652
0.0300728
-0.170648
0.0310568
-0.163919
0.0320814
-0.15747
0.033156
-0.151266
0.0342808
-0.14531
0.0354611
-0.139584
0.0366977
-0.134066
0.0379974
-0.128759
0.0393597
-0.12365
0.0407842
-0.118714
0.0422749
-0.11396
0.0438237
-0.109374
0.045442
-0.104948
0.0470977
-0.100684
0.0488225
-0.0965684
0.0505882
-0.0926055
0.0524026
-0.0887782
0.0542593
-0.0851052
0.0561384
-0.0815646
0.0580621
-0.0781699
0.0599976
-0.0748989
0.0619546
-0.0717694
0.0639579
-0.0687693
0.0659785
-0.0658956
0.0680171
-0.0631466
0.0701035
-0.060521
0.0722283
-0.300716
0.019384
-0.28887
0.0200098
-0.277425
0.0206514
-0.26638
0.0213071
-0.255802
0.0219826
-0.245569
0.0226778
-0.235786
0.0233928
-0.226404
0.0241317
-0.217422
0.0248937
-0.208755
0.0256793
-0.20049
0.0264925
-0.192547
0.0273333
-0.184935
0.0282061
-0.177634
0.0291143
-0.170633
0.0300577
-0.163908
0.0310456
-0.157464
0.0320756
-0.151267
0.0331572
-0.14532
0.0342906
-0.139604
0.0354809
-0.134097
0.0367288
-0.128802
0.038041
-0.123706
0.0394163
-0.118783
0.0408541
-0.114043
0.0423578
-0.10947
0.043919
-0.105055
0.0455485
-0.1008
0.0472138
-0.0966921
0.0489462
-0.0927348
0.0507176
-0.0889108
0.0525352
-0.0852388
0.054393
-0.0816971
0.0562709
-0.0782991
0.0581914
-0.0750229
0.0601216
-0.0718863
0.0620715
-0.0688771
0.0640657
-0.0659928
0.0660757
-0.0632307
0.0681012
-0.0605941
0.0701766
-0.0580712
0.0722835
-0.300721
0.0187825
-0.288876
0.0193897
-0.277427
0.020011
-0.266375
0.0206464
-0.255794
0.0212991
-0.245559
0.0219727
-0.235774
0.022666
-0.22639
0.0233789
-0.217406
0.0241156
-0.208737
0.0248756
-0.20047
0.0256597
-0.192526
0.0264719
-0.184914
0.0273124
-0.177614
0.0281859
-0.170614
0.0290959
-0.163893
0.0300424
-0.157453
0.0310348
-0.151262
0.0320708
-0.145323
0.0331601
-0.139616
0.0343028
-0.13412
0.0355039
-0.128837
0.0367638
-0.123754
0.0380889
-0.118845
0.0394777
-0.114118
0.0409289
-0.109557
0.0424457
-0.105155
0.044019
-0.100911
0.0456594
-0.096812
0.0473337
-0.0928618
0.0490732
-0.0890426
0.0508494
-0.0853732
0.0526696
-0.0818319
0.0545277
-0.078432
0.0564038
-0.0751519
0.0583205
-0.0720096
0.0602449
-0.0689927
0.0621871
-0.0660989
0.0641719
-0.0633258
0.0661708
-0.0606753
0.0681824
-0.0581412
0.0702465
-0.0557161
0.0723339
-0.300726
0.0182009
-0.288882
0.0187883
-0.277428
0.0193906
-0.266369
0.0200058
-0.255786
0.0206384
-0.245549
0.0212893
-0.235762
0.0219609
-0.226376
0.0226519
-0.217389
0.0233624
-0.208718
0.024097
-0.20045
0.0248551
-0.192504
0.0256378
-0.184892
0.0264492
-0.177592
0.0272898
-0.170593
0.0281644
-0.163874
0.0290766
-0.157438
0.0300268
-0.151252
0.0310244
-0.145319
0.0320673
-0.139621
0.0331651
-0.134135
0.0343178
-0.128864
0.0355303
-0.123793
0.0368029
-0.118897
0.0381413
-0.114184
0.0395438
-0.109637
0.0410087
-0.105247
0.0425385
-0.101015
0.0441236
-0.096927
0.0457743
-0.0929852
0.0474571
-0.0891725
0.049203
-0.0855072
0.0509834
-0.0819677
0.0528055
-0.0785676
0.0546633
-0.0752849
0.0565368
-0.0721382
0.0584491
-0.0691151
0.0603672
-0.0662133
0.0623015
-0.0634302
0.0642763
-0.0607683
0.0662638
-0.0582195
0.0682607
-0.055783
0.0703134
-0.0534656
0.0723793
-0.300732
0.017638
-0.288888
0.0182068
-0.277428
0.0187887
-0.266364
0.0193851
-0.255778
0.0199978
-0.245539
0.0206287
-0.23575
0.0212776
-0.226362
0.0219468
-0.217372
0.0226353
-0.208699
0.0233434
-0.200429
0.0240758
-0.192482
0.0248322
-0.184868
0.0256137
-0.177567
0.0264246
-0.170569
0.0272656
-0.163851
0.0281417
-0.157418
0.0290568
-0.151236
0.0300113
-0.14531
0.0310149
-0.139619
0.0320653
-0.134143
0.0331724
-0.128882
0.0343359
-0.123824
0.0355605
-0.118941
0.0368462
-0.114241
0.0381984
-0.109708
0.0396149
-0.105332
0.0410934
-0.101113
0.0426359
-0.097036
0.0442326
-0.0931041
0.0458932
-0.0892992
0.0475839
-0.0856397
0.0493355
-0.0821036
0.0511193
-0.0787046
0.0529426
-0.0754209
0.0547993
-0.0722711
0.0566697
-0.0692431
0.0585771
-0.0663346
0.0604885
-0.0635431
0.0624144
-0.0608708
0.0643788
-0.0583103
0.0663546
-0.0558584
0.0683362
-0.0535294
0.0703772
-0.0512999
0.0724197
-0.300738
0.017091
-0.288894
0.0176438
-0.277428
0.0182068
-0.266358
0.0187831
-0.25577
0.0193773
-0.245529
0.0199883
-0.235739
0.0206171
-0.226348
0.0212635
-0.217356
0.0219302
-0.20868
0.0226161
-0.200407
0.0233218
-0.192458
0.0240522
-0.184842
0.0248069
-0.177541
0.0255874
-0.170542
0.0263982
-0.163825
0.02724
-0.157394
0.0281181
-0.151216
0.0290366
-0.145294
0.0299961
-0.139611
0.0310063
-0.134142
0.0320652
-0.128891
0.0331822
-0.123845
0.0343572
-0.118975
0.0355946
-0.114289
0.0368939
-0.10977
0.0382603
-0.105408
0.0396908
-0.101202
0.0411829
-0.0971381
0.042738
-0.0932173
0.0443458
-0.0894217
0.0460157
-0.0857695
0.0477136
-0.0822384
0.0494703
-0.0788421
0.0512567
-0.0755589
0.0530805
-0.0724074
0.0549355
-0.0693757
0.0568023
-0.0664618
0.0587043
-0.0636631
0.0606086
-0.0609822
0.0625258
-0.058411
0.0644795
-0.0559471
0.0664432
-0.053602
0.0684087
-0.0513607
0.070438
-0.0492189
0.0724549
-0.300744
0.0165613
-0.288899
0.0170968
-0.277428
0.0176434
-0.266353
0.0182011
-0.255762
0.0187754
-0.24552
0.019368
-0.235727
0.0199769
-0.226334
0.0206032
-0.217339
0.0212469
-0.208661
0.0219109
-0.200385
0.0225942
-0.192434
0.0232977
-0.184816
0.024026
-0.177513
0.0247793
-0.170514
0.025559
-0.163797
0.0263699
-0.157367
0.027213
-0.151192
0.0280937
-0.145274
0.0290163
-0.139596
0.0299815
-0.134135
0.0309991
-0.128893
0.0320671
-0.123858
0.0331949
-0.119
0.0343821
-0.114327
0.0356328
-0.109822
0.0369462
-0.105475
0.0383269
-0.101283
0.0397716
-0.0972323
0.0412771
-0.0933238
0.0428445
-0.0895389
0.044463
-0.0858954
0.0461417
-0.0823709
0.0478461
-0.0789789
0.0496071
-0.0756976
0.0513955
-0.0725459
0.053219
-0.0695119
0.0550718
-0.0665938
0.0569343
-0.0637893
0.0588305
-0.0611009
0.0607274
-0.0585208
0.0626355
-0.0560458
0.0645783
-0.0536885
0.0665298
-0.0514304
0.0684784
-0.0492768
0.070496
-0.0472226
0.072485
-0.300751
0.0160489
-0.288905
0.0165669
-0.277427
0.0170959
-0.266347
0.0176376
-0.255755
0.0181936
-0.245511
0.0187664
-0.235716
0.0193568
-0.22632
0.0199631
-0.217323
0.0205867
-0.208642
0.0212276
-0.200363
0.0218889
-0.192409
0.0225697
-0.184789
0.0232708
-0.177484
0.0239973
-0.170484
0.0247493
-0.163767
0.0255285
-0.157337
0.02634
-0.151164
0.0271848
-0.145249
0.0280687
-0.139576
0.028996
-0.134121
0.0299677
-0.128888
0.0309935
-0.123862
0.0320714
-0.119015
0.0332107
-0.114356
0.0344108
-0.109865
0.0356754
-0.105532
0.0370032
-0.101354
0.0383984
-0.097318
0.0398573
-0.0934227
0.041376
-0.0896497
0.0429553
-0.0860163
0.0445839
-0.0824999
0.0462707
-0.0791138
0.047981
-0.0758361
0.0497456
-0.0726857
0.0515353
-0.0696508
0.0533579
-0.0667298
0.0552077
-0.0639206
0.0570656
-0.061226
0.0589555
-0.0586381
0.0608446
-0.0561539
0.0627436
-0.0537853
0.0646751
-0.0515148
0.0666142
-0.0493436
0.0685452
-0.0472778
0.0705511
-0.0453112
0.0725098
-0.300758
0.015551
-0.28891
0.0160542
-0.277425
0.0165656
-0.266341
0.0170901
-0.255748
0.0176304
-0.245502
0.0181848
-0.235705
0.0187554
-0.226306
0.0193433
-0.217306
0.0199469
-0.208623
0.0205676
-0.200342
0.0212057
-0.192385
0.0218642
-0.184762
0.0225425
-0.177455
0.0232413
-0.170452
0.0239661
-0.163734
0.024717
-0.157305
0.0254961
-0.151132
0.0263085
-0.14522
0.0271556
-0.139551
0.0280433
-0.134102
0.0289761
-0.128875
0.029955
-0.123858
0.0309898
-0.119022
0.0320784
-0.114375
0.0332299
-0.109898
0.0344434
-0.105579
0.0357223
-0.101416
0.0370649
-0.0973943
0.0384748
-0.0935131
0.0399477
-0.089753
0.0414794
-0.0861311
0.0430701
-0.0826243
0.0447083
-0.0792457
0.0464026
-0.0759731
0.048118
-0.0728256
0.0498855
-0.0697913
0.0516758
-0.0668687
0.0534968
-0.0640561
0.0553432
-0.0613563
0.0571959
-0.0587618
0.0590792
-0.0562696
0.0609603
-0.0538917
0.06285
-0.0516097
0.06477
-0.049426
0.0666965
-0.0473418
0.0686092
-0.0453636
0.0706036
-0.0434696
0.0725293
-0.300766
0.0150703
-0.288915
0.0155561
-0.277424
0.0160526
-0.266335
0.0165599
-0.255741
0.0170831
-0.245494
0.0176219
-0.235695
0.0181741
-0.226293
0.0187422
-0.21729
0.0193273
-0.208604
0.019928
-0.20032
0.0205458
-0.19236
0.021181
-0.184735
0.0218367
-0.177425
0.0225124
-0.17042
0.0232091
-0.1637
0.0239323
-0.15727
0.0246824
-0.151098
0.0254617
-0.145187
0.0262756
-0.13952
0.0271256
-0.134076
0.0280177
-0.128856
0.0289567
-0.123847
0.0299436
-0.119021
0.0309882
-0.114385
0.0320882
-0.10992
0.0332526
-0.105615
0.0344801
-0.101468
0.0357738
-0.0974608
0.0371313
-0.0935942
0.0385559
-0.0898481
0.0400427
-0.0862388
0.041587
-0.0827429
0.0431887
-0.0793733
0.0448359
-0.0761075
0.046537
-0.0729644
0.0482569
-0.0699323
0.0500265
-0.0670096
0.0518167
-0.0641948
0.0536355
-0.061491
0.0554779
-0.0588909
0.057325
-0.0563918
0.0592015
-0.0540057
0.0610743
-0.0517142
0.0629546
-0.0495188
0.0648628
-0.047422
0.0667768
-0.0454248
0.0686704
-0.0435194
0.0706534
-0.0417029
0.0725437
-0.300773
0.0146042
-0.28892
0.0150751
-0.277422
0.015554
-0.26633
0.0160469
-0.255734
0.0165532
-0.245485
0.0170749
-0.235684
0.0176115
-0.22628
0.0181613
-0.217275
0.0187266
-0.208585
0.0193087
-0.200298
0.0199065
-0.192335
0.0205212
-0.184707
0.0211534
-0.177394
0.0218063
-0.170387
0.0224794
-0.163666
0.0231741
-0.157234
0.023896
-0.151061
0.0246456
-0.145151
0.0254256
-0.139486
0.0262415
-0.134045
0.027095
-0.12883
0.0279922
-0.123828
0.0289382
-0.119011
0.0299338
-0.114385
0.030989
-0.109933
0.0321011
-0.105642
0.0332791
-0.101509
0.0345211
-0.0975169
0.0358299
-0.0936655
0.0372025
-0.0899339
0.0386418
-0.0863383
0.0401422
-0.0828546
0.0416987
-0.0794954
0.0433109
-0.076238
0.0449664
-0.073101
0.0466736
-0.0700726
0.0483972
-0.0671514
0.0501683
-0.0643358
0.0519577
-0.0616293
0.0537738
-0.0590247
0.0556117
-0.0565196
0.0574528
-0.0541264
0.0593221
-0.0518265
0.0611866
-0.0496215
0.0630573
-0.0475129
0.0649537
-0.0455031
0.0668551
-0.043578
0.068729
-0.0417502
0.0707007
-0.0400161
0.0725528
-0.300781
0.0141513
-0.288925
0.0146086
-0.277419
0.0150727
-0.266324
0.0155484
-0.255727
0.0160404
-0.245478
0.0165452
-0.235674
0.0170649
-0.226268
0.017599
-0.217259
0.018146
-0.208567
0.0187084
-0.200277
0.0192876
-0.192311
0.0198821
-0.18468
0.0204938
-0.177364
0.0211229
-0.170354
0.0217729
-0.16363
0.0224436
-0.157196
0.0231365
-0.151022
0.0238572
-0.145112
0.0246068
-0.139449
0.0253879
-0.13401
0.0262063
-0.128799
0.0270639
-0.123803
0.0279671
-0.118993
0.0289207
-0.114377
0.0299259
-0.109937
0.0309924
-0.105658
0.0321174
-0.101539
0.0333095
-0.0975623
0.0345665
-0.0937262
0.0358906
-0.0900099
0.0372785
-0.0864288
0.0387322
-0.0829584
0.040246
-0.079611
0.0418143
-0.0763634
0.0434363
-0.0732341
0.0450995
-0.0702111
0.0468121
-0.0672929
0.0485388
-0.0644781
0.0503106
-0.0617702
0.0520986
-0.0591623
0.0539114
-0.0566523
0.0557443
-0.0542527
0.0575791
-0.0519454
0.0594411
-0.0497319
0.061297
-0.0476137
0.0631581
-0.045592
0.0650426
-0.0436542
0.0669314
-0.0418061
0.0687848
-0.040061
0.0707456
-0.0383843
0.0725568
-0.300789
0.0137143
-0.288929
0.0141554
-0.277416
0.0146058
-0.266319
0.0150672
-0.255721
0.0155422
-0.24547
0.0160328
-0.235665
0.0165355
-0.226256
0.0170527
-0.217245
0.0175842
-0.208549
0.0181283
-0.200256
0.0186877
-0.192287
0.0192636
-0.184652
0.0198549
-0.177333
0.0204632
-0.17032
0.0210893
-0.163593
0.0217365
-0.157157
0.0224049
-0.150982
0.0230961
-0.145071
0.0238161
-0.139408
0.024566
-0.133971
0.0253487
-0.128763
0.0261702
-0.123772
0.0270326
-0.118969
0.0279424
-0.114361
0.0289046
-0.109931
0.0299201
-0.105664
0.0309987
-0.101559
0.0321373
-0.0975968
0.033344
-0.0937761
0.0346164
-0.0900753
0.0359561
-0.0865094
0.0373591
-0.0830534
0.0388272
-0.0797189
0.040354
-0.0764826
0.0419335
-0.0733625
0.0435647
-0.0703465
0.0452349
-0.0674331
0.0469522
-0.0646206
0.0486812
-0.0619128
0.0504532
-0.0593028
0.0522392
-0.0567889
0.0540481
-0.054384
0.0558756
-0.0520701
0.0577038
-0.049849
0.0595582
-0.0477222
0.0614054
-0.0456909
0.0632571
-0.0437411
0.0651294
-0.0418805
0.0670057
-0.0401143
0.0688382
-0.0384269
0.0707881
-0.0368274
0.0725557
-0.300798
0.0132892
-0.288932
0.0137179
-0.277413
0.0141522
-0.266313
0.0146005
-0.255715
0.0150613
-0.245463
0.0155349
-0.235655
0.0160234
-0.226244
0.0165238
-0.21723
0.0170384
-0.208532
0.0175669
-0.200236
0.018108
-0.192263
0.0186641
-0.184625
0.0192367
-0.177303
0.0198246
-0.170287
0.0204296
-0.163557
0.0210526
-0.157118
0.0216971
-0.15094
0.0223633
-0.145028
0.0230531
-0.139364
0.0237726
-0.133928
0.0245233
-0.128723
0.0253082
-0.123735
0.0261335
-0.118938
0.0270014
-0.114337
0.0279186
-0.109916
0.0288901
-0.105661
0.0299167
-0.101568
0.031008
-0.0976204
0.0321608
-0.0938149
0.0333828
-0.0901297
0.0346709
-0.0865795
0.0360262
-0.0831386
0.0374443
-0.0798182
0.0389265
-0.0765944
0.0404658
-0.073485
0.042056
-0.0704777
0.0436958
-0.0675705
0.0453723
-0.064762
0.0470937
-0.0620559
0.0488243
-0.0594454
0.0505957
-0.0569289
0.0523791
-0.0545196
0.0541837
-0.0521999
0.0560054
-0.0499719
0.0578266
-0.0478374
0.0596733
-0.0457974
0.0615119
-0.0438381
0.063354
-0.0419653
0.0652143
-0.0401868
0.0670782
-0.0384777
0.068889
-0.0368678
0.0708284
-0.0353257
0.0725497
-0.300806
0.0128773
-0.288935
0.0132923
-0.27741
0.0137144
-0.266308
0.0141471
-0.25571
0.0145949
-0.245456
0.0150543
-0.235646
0.0155259
-0.226232
0.0160121
-0.217216
0.0165099
-0.208515
0.0170217
-0.200216
0.0175472
-0.19224
0.018085
-0.184599
0.0186377
-0.177273
0.0192067
-0.170253
0.0197911
-0.16352
0.0203928
-0.157078
0.0210127
-0.150898
0.0216546
-0.144983
0.0223189
-0.139319
0.0230075
-0.133883
0.023727
-0.128678
0.0244789
-0.123693
0.0252666
-0.1189
0.0260962
-0.114306
0.0269705
-0.109894
0.0278958
-0.105648
0.0288774
-0.101568
0.0299159
-0.0976331
0.0310207
-0.0938423
0.0321883
-0.0901728
0.0334258
-0.0866385
0.0347299
-0.0832133
0.0361009