/*--------------------------------*- C++ -*----------------------------------*\
  =========                 |
  \\      /  F ield         | OpenFOAM: The Open Source CFD Toolbox
   \\    /   O peration     | Website:  https://openfoam.org
    \\  /    A nd           | Version:  7
     \\/     M anipulation  |
\*---------------------------------------------------------------------------*/
FoamFile
{
    version     2.0;
    format      ascii;
    class       volVectorField;
    location    "600";
    object      U;
}
// * * * * * * * * * * * * * * * * * * * * * * * * * * * * * * * * * * * * * //

dimensions      [0 1 -1 0 0 0 0];

internalField   nonuniform List<vector> 
23117
(
(49.7123 13.3354 0)
(49.7197 13.3367 0)
(49.7166 13.336 0)
(49.7237 13.3373 0)
(49.7265 13.3335 0)
(49.7244 13.3464 0)
(49.7282 13.3372 0)
(49.732 13.3329 0)
(49.7388 13.3466 0)
(49.7378 13.3593 0)
(49.732 13.3364 0)
(49.7396 13.3318 0)
(49.7467 13.3469 0)
(49.7564 13.36 0)
(49.7564 13.3729 0)
(49.7356 13.335 0)
(49.7464 13.3306 0)
(49.7569 13.3464 0)
(49.7664 13.3604 0)
(49.7773 13.3732 0)
(49.7744 13.388 0)
(49.7391 13.3329 0)
(49.7531 13.329 0)
(49.766 13.3456 0)
(49.7791 13.3599 0)
(49.7884 13.3733 0)
(49.7959 13.3882 0)
(49.7873 13.4029 0)
(49.7424 13.3303 0)
(49.7594 13.3271 0)
(49.775 13.3443 0)
(49.7903 13.3588 0)
(49.8025 13.3725 0)
(49.8074 13.3881 0)
(49.8083 13.4026 0)
(49.7935 13.4168 0)
(49.7455 13.3272 0)
(49.7653 13.325 0)
(49.7835 13.3426 0)
(49.8012 13.357 0)
(49.8147 13.371 0)
(49.8219 13.3869 0)
(49.8201 13.4022 0)
(49.8143 13.416 0)
(49.7942 13.4306 0)
(49.7485 13.3237 0)
(49.7709 13.3225 0)
(49.7914 13.3405 0)
(49.8112 13.3547 0)
(49.8264 13.3688 0)
(49.8343 13.3849 0)
(49.8347 13.4006 0)
(49.8268 13.4156 0)
(49.8164 13.4297 0)
(49.7927 13.4451 0)
(49.7513 13.3199 0)
(49.7761 13.3198 0)
(49.7988 13.338 0)
(49.8206 13.3518 0)
(49.8372 13.3658 0)
(49.8463 13.382 0)
(49.8475 13.3981 0)
(49.8423 13.4139 0)
(49.8306 13.4299 0)
(49.8182 13.4448 0)
(49.7922 13.4612 0)
(49.7539 13.3159 0)
(49.781 13.317 0)
(49.8057 13.3352 0)
(49.8292 13.3485 0)
(49.847 13.3623 0)
(49.8573 13.3785 0)
(49.8601 13.3948 0)
(49.8563 13.4114 0)
(49.848 13.4284 0)
(49.8346 13.4456 0)
(49.8219 13.4616 0)
(49.7939 13.4789 0)
(49.7563 13.3117 0)
(49.7854 13.314 0)
(49.8119 13.3322 0)
(49.837 13.3447 0)
(49.856 13.3583 0)
(49.8675 13.3743 0)
(49.8718 13.3908 0)
(49.8703 13.4079 0)
(49.8641 13.426 0)
(49.8547 13.4445 0)
(49.8405 13.4631 0)
(49.8276 13.4801 0)
(49.7972 13.4978 0)
(49.7585 13.3073 0)
(49.7894 13.311 0)
(49.8176 13.3289 0)
(49.844 13.3406 0)
(49.8642 13.3539 0)
(49.8768 13.3697 0)
(49.8829 13.3861 0)
(49.8836 13.4037 0)
(49.8802 13.4226 0)
(49.8733 13.4424 0)
(49.8634 13.4623 0)
(49.8481 13.4819 0)
(49.8342 13.4995 0)
(49.801 13.5175 0)
(49.7606 13.3029 0)
(49.793 13.308 0)
(49.8227 13.3255 0)
(49.8504 13.3363 0)
(49.8715 13.3492 0)
(49.8855 13.3646 0)
(49.8933 13.3809 0)
(49.8963 13.3988 0)
(49.8957 13.4183 0)
(49.8919 13.439 0)
(49.8844 13.4603 0)
(49.8734 13.4813 0)
(49.8562 13.5016 0)
(49.8404 13.5195 0)
(49.8042 13.5375 0)
(49.7625 13.2984 0)
(49.7962 13.3049 0)
(49.8273 13.3219 0)
(49.856 13.3318 0)
(49.8781 13.3442 0)
(49.8933 13.3592 0)
(49.903 13.3753 0)
(49.9084 13.3932 0)
(49.9106 13.4132 0)
(49.9097 13.4346 0)
(49.9052 13.4569 0)
(49.8964 13.4794 0)
(49.8835 13.5011 0)
(49.8637 13.5218 0)
(49.8456 13.5398 0)
(49.8061 13.5577 0)
(49.7642 13.294 0)
(49.7991 13.3019 0)
(49.8313 13.3182 0)
(49.861 13.3272 0)
(49.884 13.3391 0)
(49.9005 13.3535 0)
(49.912 13.3693 0)
(49.9198 13.3872 0)
(49.9248 13.4074 0)
(49.9267 13.4292 0)
(49.925 13.4523 0)
(49.9191 13.4759 0)
(49.9082 13.4992 0)
(49.8928 13.5215 0)
(49.8702 13.5423 0)
(49.8495 13.5603 0)
(49.8069 13.578 0)
(49.7657 13.2896 0)
(49.8016 13.299 0)
(49.8348 13.3146 0)
(49.8654 13.3225 0)
(49.8892 13.3339 0)
(49.907 13.3477 0)
(49.9203 13.363 0)
(49.9305 13.3807 0)
(49.938 13.4008 0)
(49.9428 13.4229 0)
(49.9439 13.4465 0)
(49.9407 13.4709 0)
(49.9327 13.4955 0)
(49.9192 13.5195 0)
(49.9011 13.5422 0)
(49.8756 13.5632 0)
(49.8524 13.581 0)
(49.8067 13.5985 0)
(49.767 13.2854 0)
(49.8037 13.2962 0)
(49.8379 13.3109 0)
(49.8692 13.3179 0)
(49.8939 13.3287 0)
(49.9128 13.3419 0)
(49.9279 13.3566 0)
(49.9403 13.3739 0)
(49.9503 13.3937 0)
(49.9577 13.4158 0)
(49.9617 13.4396 0)
(49.9613 13.4646 0)
(49.956 13.4902 0)
(49.9454 13.5157 0)
(49.9292 13.5404 0)
(49.9084 13.5634 0)
(49.8802 13.5845 0)
(49.8546 13.6019 0)
(49.8058 13.6192 0)
(49.7682 13.2812 0)
(49.8056 13.2936 0)
(49.8406 13.3073 0)
(49.8726 13.3134 0)
(49.8979 13.3236 0)
(49.918 13.336 0)
(49.9347 13.3501 0)
(49.9491 13.3668 0)
(49.9616 13.3861 0)
(49.9716 13.4079 0)
(49.9782 13.4317 0)
(49.9806 13.4571 0)
(49.9782 13.4835 0)
(49.9705 13.5103 0)
(49.9573 13.5366 0)
(49.9384 13.5618 0)
(49.915 13.5851 0)
(49.8841 13.6061 0)
(49.8562 13.6232 0)
(49.8044 13.6401 0)
(49.7692 13.2772 0)
(49.8072 13.291 0)
(49.843 13.3038 0)
(49.8755 13.309 0)
(49.9014 13.3186 0)
(49.9226 13.3302 0)
(49.9408 13.3435 0)
(49.9571 13.3594 0)
(49.9718 13.3781 0)
(49.9842 13.3994 0)
(49.9935 13.423 0)
(49.9987 13.4485 0)
(49.9992 13.4754 0)
(49.9946 13.5032 0)
(49.9844 13.531 0)
(49.9687 13.5582 0)
(49.9471 13.5839 0)
(49.921 13.6073 0)
(49.8874 13.6282 0)
(49.8574 13.6448 0)
(49.8025 13.6611 0)
(49.7701 13.2734 0)
(49.8085 13.2887 0)
(49.845 13.3005 0)
(49.8779 13.3048 0)
(49.9045 13.3138 0)
(49.9266 13.3245 0)
(49.9461 13.3369 0)
(49.9642 13.352 0)
(49.9809 13.3698 0)
(49.9956 13.3904 0)
(50.0074 13.4135 0)
(50.0155 13.4389 0)
(50.019 13.4661 0)
(50.0175 13.4946 0)
(50.0106 13.5237 0)
(49.9979 13.5526 0)
(49.9796 13.5805 0)
(49.9553 13.6066 0)
(49.9266 13.63 0)
(49.8903 13.6505 0)
(49.8582 13.6665 0)
(49.8003 13.6821 0)
(49.7709 13.2697 0)
(49.8096 13.2865 0)
(49.8467 13.2973 0)
(49.8801 13.3008 0)
(49.907 13.3092 0)
(49.9299 13.319 0)
(49.9507 13.3304 0)
(49.9703 13.3445 0)
(49.9888 13.3613 0)
(50.0057 13.381 0)
(50.02 13.4035 0)
(50.0308 13.4285 0)
(50.0374 13.4557 0)
(50.0392 13.4847 0)
(50.0356 13.5148 0)
(50.0263 13.5452 0)
(50.0111 13.5751 0)
(49.9901 13.6036 0)
(49.9632 13.6298 0)
(49.9318 13.6531 0)
(49.8928 13.6731 0)
(49.8586 13.6884 0)
(49.7978 13.7031 0)
(49.7716 13.2663 0)
(49.8106 13.2845 0)
(49.8482 13.2943 0)
(49.8819 13.2971 0)
(49.9092 13.3048 0)
(49.9327 13.3137 0)
(49.9545 13.324 0)
(49.9754 13.337 0)
(49.9957 13.3527 0)
(50.0146 13.3714 0)
(50.0312 13.3929 0)
(50.0448 13.4174 0)
(50.0544 13.4444 0)
(50.0595 13.4736 0)
(50.0594 13.5043 0)
(50.0536 13.536 0)
(50.0419 13.5676 0)
(50.0241 13.5984 0)
(50.0003 13.6273 0)
(49.9706 13.6536 0)
(49.9365 13.6765 0)
(49.8948 13.696 0)
(49.8586 13.7104 0)
(49.7949 13.7241 0)
(49.7721 13.2631 0)
(49.8114 13.2828 0)
(49.8495 13.2915 0)
(49.8834 13.2936 0)
(49.9109 13.3007 0)
(49.935 13.3086 0)
(49.9576 13.3178 0)
(49.9797 13.3296 0)
(50.0015 13.3441 0)
(50.0223 13.3615 0)
(50.0411 13.3821 0)
(50.0573 13.4057 0)
(50.0699 13.4322 0)
(50.0783 13.4613 0)
(50.0818 13.4925 0)
(50.0797 13.5251 0)
(50.0717 13.5582 0)
(50.0574 13.591 0)
(50.0368 13.6225 0)
(50.0102 13.6517 0)
(49.9775 13.6779 0)
(49.9407 13.7003 0)
(49.8964 13.7189 0)
(49.8581 13.7323 0)
(49.7916 13.7449 0)
(49.7726 13.2601 0)
(49.812 13.2812 0)
(49.8507 13.289 0)
(49.8847 13.2905 0)
(49.9123 13.2969 0)
(49.9367 13.3037 0)
(49.96 13.3118 0)
(49.9832 13.3223 0)
(50.0063 13.3355 0)
(50.0287 13.3517 0)
(50.0497 13.371 0)
(50.0683 13.3935 0)
(50.0839 13.4193 0)
(50.0956 13.4481 0)
(50.1026 13.4793 0)
(50.1044 13.5126 0)
(50.1002 13.5469 0)
(50.0897 13.5815 0)
(50.0727 13.6153 0)
(50.0492 13.6473 0)
(50.0196 13.6766 0)
(49.984 13.7025 0)
(49.9444 13.7242 0)
(49.8974 13.7419 0)
(49.8571 13.7541 0)
(49.7879 13.7655 0)
(49.773 13.2573 0)
(49.8126 13.2799 0)
(49.8517 13.2866 0)
(49.8857 13.2876 0)
(49.9133 13.2934 0)
(49.938 13.2991 0)
(49.9618 13.3061 0)
(49.9858 13.3153 0)
(50.0101 13.3271 0)
(50.034 13.3418 0)
(50.0569 13.3598 0)
(50.0779 13.3811 0)
(50.0963 13.4059 0)
(50.1112 13.434 0)
(50.1219 13.4651 0)
(50.1275 13.4986 0)
(50.1273 13.5338 0)
(50.1208 13.5699 0)
(50.1077 13.6057 0)
(50.0878 13.6404 0)
(50.0613 13.6728 0)
(50.0286 13.7021 0)
(49.99 13.7275 0)
(49.9476 13.7483 0)
(49.8979 13.7648 0)
(49.8556 13.7758 0)
(49.7839 13.7858 0)
(49.7734 13.2547 0)
(49.8131 13.2788 0)
(49.8527 13.2846 0)
(49.8865 13.2851 0)
(49.914 13.2902 0)
(49.9387 13.2949 0)
(49.9629 13.3006 0)
(49.9876 13.3085 0)
(50.0129 13.3189 0)
(50.0383 13.3321 0)
(50.0629 13.3486 0)
(50.0861 13.3686 0)
(50.1072 13.3922 0)
(50.1252 13.4194 0)
(50.1394 13.4499 0)
(50.1489 13.4834 0)
(50.1528 13.5191 0)
(50.1506 13.5563 0)
(50.1416 13.5939 0)
(50.1256 13.631 0)
(50.1027 13.6663 0)
(50.0729 13.699 0)
(50.0371 13.728 0)
(49.9954 13.7527 0)
(49.9502 13.7725 0)
(49.8978 13.7877 0)
(49.8537 13.7972 0)
(49.7796 13.8057 0)
(49.7737 13.2524 0)
(49.8136 13.2779 0)
(49.8535 13.2827 0)
(49.8872 13.2828 0)
(49.9144 13.2873 0)
(49.9391 13.2909 0)
(49.9635 13.2954 0)
(49.9888 13.302 0)
(50.015 13.311 0)
(50.0415 13.3227 0)
(50.0677 13.3376 0)
(50.0929 13.356 0)
(50.1165 13.3782 0)
(50.1375 13.4042 0)
(50.1552 13.4339 0)
(50.1685 13.467 0)
(50.1766 13.5029 0)
(50.1787 13.5409 0)
(50.1741 13.58 0)
(50.1623 13.6191 0)
(50.1433 13.6572 0)
(50.1172 13.6931 0)
(50.0841 13.7257 0)
(50.0451 13.7543 0)
(50.0002 13.7781 0)
(49.9521 13.7967 0)
(49.8972 13.8104 0)
(49.8512 13.8184 0)
(49.7749 13.8253 0)
(49.774 13.2502 0)
(49.8141 13.2772 0)
(49.8543 13.2812 0)
(49.8876 13.2809 0)
(49.9145 13.2846 0)
(49.939 13.2872 0)
(49.9636 13.2906 0)
(49.9893 13.2959 0)
(50.0162 13.3034 0)
(50.0437 13.3135 0)
(50.0713 13.3267 0)
(50.0984 13.3435 0)
(50.1242 13.3641 0)
(50.1481 13.3887 0)
(50.1691 13.4173 0)
(50.1863 13.4497 0)
(50.1985 13.4854 0)
(50.205 13.5238 0)
(50.2049 13.5639 0)
(50.1977 13.6048 0)
(50.1831 13.6453 0)
(50.1608 13.6842 0)
(50.1313 13.7205 0)
(50.0948 13.753 0)
(50.0524 13.781 0)
(50.0044 13.8037 0)
(49.9535 13.8209 0)
(49.896 13.833 0)
(49.8483 13.8393 0)
(49.7698 13.8444 0)
(49.7742 13.2483 0)
(49.8146 13.2767 0)
(49.8551 13.2798 0)
(49.888 13.2793 0)
(49.9143 13.2823 0)
(49.9386 13.2838 0)
(49.9632 13.2861 0)
(49.9892 13.2902 0)
(50.0166 13.2962 0)
(50.045 13.3047 0)
(50.0738 13.3162 0)
(50.1025 13.3312 0)
(50.1305 13.35 0)
(50.1571 13.373 0)
(50.1812 13.4003 0)
(50.202 13.4316 0)
(50.2184 13.4668 0)
(50.2294 13.5051 0)
(50.234 13.546 0)
(50.2315 13.5882 0)
(50.2215 13.6308 0)
(50.2037 13.6725 0)
(50.178 13.7122 0)
(50.145 13.7486 0)
(50.105 13.7808 0)
(50.0591 13.8079 0)
(50.0079 13.8294 0)
(49.9542 13.845 0)
(49.8942 13.8553 0)
(49.8448 13.8598 0)
(49.7643 13.8629 0)
(49.7745 13.2467 0)
(49.8151 13.2765 0)
(49.8558 13.2787 0)
(49.8881 13.2779 0)
(49.9139 13.2802 0)
(49.9379 13.2807 0)
(49.9625 13.282 0)
(49.9887 13.2848 0)
(50.0164 13.2894 0)
(50.0454 13.2963 0)
(50.0752 13.3061 0)
(50.1054 13.3192 0)
(50.1353 13.3362 0)
(50.1643 13.3573 0)
(50.1915 13.3829 0)
(50.2158 13.413 0)
(50.2362 13.4472 0)
(50.2516 13.4852 0)
(50.261 13.5262 0)
(50.2635 13.5695 0)
(50.2584 13.6138 0)
(50.2453 13.658 0)
(50.2241 13.7007 0)
(50.1949 13.7409 0)
(50.1581 13.7773 0)
(50.1145 13.8089 0)
(50.0652 13.835 0)
(50.0108 13.8551 0)
(49.9543 13.8689 0)
(49.8917 13.8772 0)
(49.8407 13.8798 0)
(49.7585 13.881 0)
(49.7748 13.2452 0)
(49.8156 13.2764 0)
(49.8564 13.2779 0)
(49.8881 13.2768 0)
(49.9133 13.2784 0)
(49.9369 13.278 0)
(49.9613 13.2783 0)
(49.9876 13.2799 0)
(50.0157 13.2831 0)
(50.0451 13.2884 0)
(50.0757 13.2963 0)
(50.1071 13.3075 0)
(50.1387 13.3225 0)
(50.1699 13.3418 0)
(50.1999 13.3655 0)
(50.2276 13.3939 0)
(50.2519 13.4269 0)
(50.2717 13.4641 0)
(50.2858 13.505 0)
(50.2934 13.5487 0)
(50.2934 13.5943 0)
(50.2854 13.6406 0)
(50.2691 13.6862 0)
(50.2442 13.7299 0)
(50.2113 13.7704 0)
(50.1707 13.8065 0)
(50.1234 13.8374 0)
(50.0706 13.8622 0)
(50.0129 13.8807 0)
(49.9536 13.8927 0)
(49.8886 13.8989 0)
(49.8361 13.8994 0)
(49.7522 13.8984 0)
(49.7751 13.2439 0)
(49.8162 13.2766 0)
(49.8571 13.2772 0)
(49.888 13.2759 0)
(49.9125 13.2768 0)
(49.9357 13.2755 0)
(49.9599 13.2749 0)
(49.9862 13.2753 0)
(50.0143 13.2772 0)
(50.0441 13.2809 0)
(50.0753 13.2871 0)
(50.1077 13.2964 0)
(50.1408 13.3093 0)
(50.174 13.3264 0)
(50.2065 13.3481 0)
(50.2373 13.3746 0)
(50.2653 13.406 0)
(50.2894 13.4421 0)
(50.3083 13.4824 0)
(50.321 13.5262 0)
(50.3264 13.5726 0)
(50.3237 13.6205 0)
(50.3126 13.6686 0)
(50.2926 13.7155 0)
(50.264 13.7599 0)
(50.2272 13.8005 0)
(50.1827 13.8362 0)
(50.1316 13.8661 0)
(50.0752 13.8896 0)
(50.0143 13.9063 0)
(49.9522 13.9162 0)
(49.8849 13.9201 0)
(49.8308 13.9185 0)
(49.7456 13.9151 0)
(49.7755 13.2429 0)
(49.8169 13.2769 0)
(49.8577 13.2768 0)
(49.8878 13.2752 0)
(49.9115 13.2755 0)
(49.9342 13.2734 0)
(49.9582 13.2719 0)
(49.9844 13.2712 0)
(50.0125 13.2718 0)
(50.0425 13.274 0)
(50.0741 13.2784 0)
(50.1073 13.2857 0)
(50.1416 13.2965 0)
(50.1765 13.3114 0)
(50.2113 13.3309 0)
(50.245 13.3554 0)
(50.2766 13.3849 0)
(50.3048 13.4194 0)
(50.3284 13.4587 0)
(50.3461 13.5021 0)
(50.3569 13.5489 0)
(50.3599 13.5979 0)
(50.3543 13.648 0)
(50.3397 13.6977 0)
(50.316 13.7458 0)
(50.2834 13.7907 0)
(50.2425 13.8312 0)
(50.1941 13.8663 0)
(50.1391 13.8951 0)
(50.0791 13.917 0)
(50.0149 13.9317 0)
(49.95 13.9394 0)
(49.8804 13.9409 0)
(49.8249 13.937 0)
(49.7385 13.9312 0)
(49.7758 13.242 0)
(49.8176 13.2774 0)
(49.8583 13.2765 0)
(49.8874 13.2748 0)
(49.9104 13.2744 0)
(49.9326 13.2715 0)
(49.9563 13.2692 0)
(49.9823 13.2676 0)
(50.0103 13.2668 0)
(50.0403 13.2675 0)
(50.0722 13.2703 0)
(50.1059 13.2756 0)
(50.1413 13.2843 0)
(50.1777 13.2969 0)
(50.2145 13.3141 0)
(50.2508 13.3362 0)
(50.2857 13.3636 0)
(50.3177 13.3963 0)
(50.3458 13.4341 0)
(50.3687 13.4767 0)
(50.385 13.5233 0)
(50.3937 13.573 0)
(50.3939 13.6246 0)
(50.385 13.6768 0)
(50.3668 13.728 0)
(50.3391 13.777 0)
(50.3024 13.8222 0)
(50.2572 13.8625 0)
(50.2047 13.8968 0)
(50.1458 13.9242 0)
(50.0822 13.9444 0)
(50.0147 13.957 0)
(49.9471 13.9623 0)
(49.8752 13.9612 0)
(49.8183 13.955 0)
(49.731 13.9465 0)
(49.7763 13.2414 0)
(49.8183 13.2781 0)
(49.8588 13.2764 0)
(49.8869 13.2745 0)
(49.9091 13.2735 0)
(49.9309 13.27 0)
(49.9543 13.2669 0)
(49.9799 13.2643 0)
(50.0077 13.2624 0)
(50.0376 13.2617 0)
(50.0696 13.2627 0)
(50.1038 13.2662 0)
(50.1398 13.2727 0)
(50.1775 13.283 0)
(50.2161 13.2977 0)
(50.2547 13.3174 0)
(50.2926 13.3423 0)
(50.3283 13.3729 0)
(50.3607 13.4089 0)
(50.3885 13.4502 0)
(50.4102 13.4962 0)
(50.4248 13.5461 0)
(50.4311 13.5987 0)
(50.4283 13.6527 0)
(50.4158 13.7068 0)
(50.3936 13.7594 0)
(50.3618 13.8091 0)
(50.3207 13.8544 0)
(50.2713 13.8942 0)
(50.2146 13.9275 0)
(50.1517 13.9534 0)
(50.0844 13.9717 0)
(50.0136 13.982 0)
(49.9433 13.9848 0)
(49.8693 13.9811 0)
(49.8111 13.9724 0)
(49.7231 13.9611 0)
(49.7768 13.2409 0)
(49.8191 13.2789 0)
(49.8593 13.2765 0)
(49.8864 13.2744 0)
(49.9078 13.2728 0)
(49.9291 13.2686 0)
(49.9521 13.2649 0)
(49.9774 13.2614 0)
(50.0049 13.2584 0)
(50.0345 13.2563 0)
(50.0665 13.2558 0)
(50.1008 13.2573 0)
(50.1375 13.2617 0)
(50.1761 13.2697 0)
(50.2161 13.2819 0)
(50.2569 13.2989 0)
(50.2974 13.3213 0)
(50.3365 13.3494 0)
(50.373 13.3833 0)
(50.4055 13.4229 0)
(50.4326 13.4678 0)
(50.453 13.5173 0)
(50.4655 13.5703 0)
(50.469 13.6258 0)
(50.4628 13.6822 0)
(50.4466 13.738 0)
(50.4202 13.7918 0)
(50.384 13.842 0)
(50.3385 13.8873 0)
(50.2847 13.9264 0)
(50.2236 13.9584 0)
(50.1567 13.9827 0)
(50.0858 13.9989 0)
(50.0118 14.0068 0)
(49.9387 14.007 0)
(49.8625 14.0004 0)
(49.8031 13.9892 0)
(49.7146 13.9749 0)
(49.7774 13.2406 0)
(49.82 13.2799 0)
(49.8597 13.2767 0)
(49.8857 13.2744 0)
(49.9063 13.2723 0)
(49.9271 13.2676 0)
(49.9498 13.2632 0)
(49.9747 13.2589 0)
(50.0017 13.2549 0)
(50.031 13.2515 0)
(50.0628 13.2494 0)
(50.0972 13.2492 0)
(50.1342 13.2515 0)
(50.1735 13.2571 0)
(50.2148 13.2668 0)
(50.2573 13.2811 0)
(50.3002 13.3007 0)
(50.3424 13.3261 0)
(50.3827 13.3576 0)
(50.4197 13.3951 0)
(50.452 13.4383 0)
(50.4782 13.4869 0)
(50.4969 13.5398 0)
(50.5069 13.5961 0)
(50.5074 13.6543 0)
(50.4976 13.7129 0)
(50.4772 13.7704 0)
(50.4465 13.8252 0)
(50.4057 13.8757 0)
(50.3556 13.9206 0)
(50.2972 13.9589 0)
(50.2319 13.9895 0)
(50.1609 14.012 0)
(50.0863 14.0259 0)
(50.009 14.0314 0)
(49.9332 14.0288 0)
(49.855 14.0192 0)
(49.7944 14.0054 0)
(49.7057 13.9878 0)
(49.778 13.2405 0)
(49.8209 13.281 0)
(49.8601 13.277 0)
(49.8849 13.2746 0)
(49.9049 13.2719 0)
(49.9252 13.2668 0)
(49.9474 13.2619 0)
(49.9718 13.2568 0)
(49.9984 13.2518 0)
(50.0272 13.2473 0)
(50.0587 13.2437 0)
(50.093 13.2417 0)
(50.1301 13.242 0)
(50.1699 13.2453 0)
(50.2121 13.2524 0)
(50.2561 13.264 0)
(50.301 13.2807 0)
(50.346 13.3032 0)
(50.3898 13.3319 0)
(50.4311 13.3669 0)
(50.4684 13.4081 0)
(50.5002 13.4553 0)
(50.5251 13.5075 0)
(50.5418 13.564 0)
(50.549 13.6234 0)
(50.546 13.6842 0)
(50.5323 13.7449 0)
(50.5076 13.8039 0)
(50.4723 13.8594 0)
(50.4267 13.91 0)
(50.3719 13.9545 0)
(50.309 13.9916 0)
(50.2393 14.0207 0)
(50.1642 14.0412 0)
(50.0859 14.0528 0)
(50.0053 14.0556 0)
(49.9268 14.0501 0)
(49.8467 14.0374 0)
(49.7849 14.021 0)
(49.6963 13.9998 0)
(49.7787 13.2406 0)
(49.8218 13.2822 0)
(49.8605 13.2775 0)
(49.8841 13.2749 0)
(49.9033 13.2717 0)
(49.9232 13.2661 0)
(49.9449 13.2608 0)
(49.9688 13.2551 0)
(49.9949 13.2492 0)
(50.0232 13.2435 0)
(50.0543 13.2385 0)
(50.0883 13.2349 0)
(50.1254 13.2332 0)
(50.1654 13.2343 0)
(50.2083 13.2388 0)
(50.2534 13.2476 0)
(50.3001 13.2614 0)
(50.3475 13.2809 0)
(50.3944 13.3065 0)
(50.4396 13.3387 0)
(50.4817 13.3775 0)
(50.519 13.4227 0)
(50.55 13.4737 0)
(50.5733 13.5298 0)
(50.5875 13.5898 0)
(50.5916 13.6522 0)
(50.5849 13.7156 0)
(50.5669 13.7782 0)
(50.5377 13.8383 0)
(50.4975 13.8944 0)
(50.4471 13.945 0)
(50.3875 13.9887 0)
(50.3199 14.0246 0)
(50.2457 14.0519 0)
(50.1666 14.0703 0)
(50.0845 14.0794 0)
(50.0007 14.0794 0)
(49.9195 14.071 0)
(49.8375 14.055 0)
(49.7745 14.0359 0)
(49.6864 14.011 0)
(49.7795 13.2408 0)
(49.8228 13.2835 0)
(49.8607 13.278 0)
(49.8832 13.2753 0)
(49.9018 13.2717 0)
(49.9212 13.2658 0)
(49.9425 13.26 0)
(49.9658 13.2537 0)
(49.9912 13.247 0)
(50.019 13.2402 0)
(50.0495 13.234 0)
(50.0831 13.2288 0)
(50.12 13.2252 0)
(50.1601 13.2241 0)
(50.2034 13.2261 0)
(50.2493 13.2321 0)
(50.2974 13.2429 0)
(50.3469 13.2592 0)
(50.3966 13.2816 0)
(50.4454 13.3107 0)
(50.4919 13.3467 0)
(50.5344 13.3894 0)
(50.5714 13.4387 0)
(50.6012 13.4938 0)
(50.6225 13.5537 0)
(50.634 13.6171 0)
(50.6347 13.6825 0)
(50.6239 13.7482 0)
(50.6014 13.8126 0)
(50.5673 13.8738 0)
(50.5222 13.9302 0)
(50.4668 13.9804 0)
(50.4022 14.0232 0)
(50.3299 14.0577 0)
(50.2513 14.0831 0)
(50.168 14.0992 0)
(50.0822 14.1058 0)
(49.9952 14.103 0)
(49.9113 14.0915 0)
(49.8274 14.0721 0)
(49.7634 14.0502 0)
(49.6759 14.0212 0)
(49.7803 13.2411 0)
(49.8238 13.2849 0)
(49.8609 13.2785 0)
(49.8823 13.2757 0)
(49.9002 13.2717 0)
(49.9192 13.2655 0)
(49.94 13.2594 0)
(49.9627 13.2525 0)
(49.9875 13.2451 0)
(50.0146 13.2374 0)
(50.0445 13.23 0)
(50.0776 13.2233 0)
(50.1141 13.218 0)
(50.1541 13.2147 0)
(50.1975 13.2143 0)
(50.244 13.2175 0)
(50.2932 13.2253 0)
(50.3444 13.2383 0)
(50.3965 13.2574 0)
(50.4486 13.2831 0)
(50.499 13.3159 0)
(50.5464 13.3559 0)
(50.5891 13.4028 0)
(50.6255 13.4563 0)
(50.6538 13.5155 0)
(50.6727 13.5792 0)
(50.6811 13.646 0)
(50.6779 13.7142 0)
(50.6628 13.7822 0)
(50.6355 13.848 0)
(50.5964 13.91 0)
(50.5461 13.9666 0)
(50.4856 14.0163 0)
(50.416 14.058 0)
(50.3389 14.0908 0)
(50.2559 14.1143 0)
(50.1685 14.128 0)
(50.079 14.1319 0)
(49.9887 14.1261 0)
(49.9022 14.1115 0)
(49.8165 14.0885 0)
(49.7513 14.0639 0)
(49.6649 14.0305 0)
(49.7812 13.2416 0)
(49.8248 13.2864 0)
(49.8611 13.2791 0)
(49.8813 13.2762 0)
(49.8987 13.2719 0)
(49.9172 13.2655 0)
(49.9375 13.2591 0)
(49.9597 13.2517 0)
(49.9837 13.2436 0)
(50.0101 13.2351 0)
(50.0393 13.2266 0)
(50.0718 13.2185 0)
(50.1078 13.2115 0)
(50.1475 13.2062 0)
(50.1908 13.2034 0)
(50.2376 13.2039 0)
(50.2876 13.2086 0)
(50.3401 13.2184 0)
(50.3943 13.234 0)
(50.4491 13.2562 0)
(50.5032 13.2855 0)
(50.5552 13.3223 0)
(50.6033 13.3664 0)
(50.6458 13.4177 0)
(50.6812 13.4756 0)
(50.7076 13.5388 0)
(50.7238 13.6063 0)
(50.7286 13.6764 0)
(50.7214 13.7474 0)
(50.7016 13.8174 0)
(50.6693 13.8845 0)
(50.6249 13.9471 0)
(50.5693 14.0036 0)
(50.5035 14.0525 0)
(50.4289 14.0929 0)
(50.347 14.124 0)
(50.2595 14.1453 0)
(50.168 14.1565 0)
(50.0748 14.1577 0)
(49.9813 14.1489 0)
(49.892 14.1311 0)
(49.8046 14.1044 0)
(49.7384 14.0769 0)
(49.6533 14.0388 0)
(49.7822 13.2423 0)
(49.8259 13.2879 0)
(49.8611 13.2798 0)
(49.8803 13.2768 0)
(49.8972 13.2722 0)
(49.9153 13.2656 0)
(49.9351 13.259 0)
(49.9566 13.2511 0)
(49.9799 13.2425 0)
(50.0056 13.2332 0)
(50.034 13.2236 0)
(50.0658 13.2143 0)
(50.1011 13.2057 0)
(50.1403 13.1985 0)
(50.1834 13.1935 0)
(50.2303 13.1913 0)
(50.2807 13.1931 0)
(50.3342 13.1995 0)
(50.39 13.2116 0)
(50.4472 13.2301 0)
(50.5046 13.2557 0)
(50.5607 13.2889 0)
(50.6138 13.3298 0)
(50.6623 13.3784 0)
(50.7044 13.4342 0)
(50.7383 13.4964 0)
(50.7625 13.5639 0)
(50.7756 13.6351 0)
(50.7765 13.7084 0)
(50.7648 13.7819 0)
(50.74 13.8537 0)
(50.7025 13.9219 0)
(50.6527 13.9849 0)
(50.5917 14.041 0)
(50.5205 14.089 0)
(50.4408 14.128 0)
(50.3541 14.1571 0)
(50.2621 14.1762 0)
(50.1665 14.1848 0)
(50.0696 14.1832 0)
(49.9729 14.1712 0)
(49.8809 14.1502 0)
(49.7919 14.1197 0)
(49.7245 14.0894 0)
(49.6412 14.0461 0)
(49.7833 13.2431 0)
(49.8269 13.2895 0)
(49.8611 13.2805 0)
(49.8792 13.2774 0)
(49.8957 13.2726 0)
(49.9134 13.2659 0)
(49.9326 13.259 0)
(49.9535 13.2508 0)
(49.9761 13.2416 0)
(50.001 13.2317 0)
(50.0286 13.2212 0)
(50.0596 13.2107 0)
(50.0942 13.2007 0)
(50.1327 13.1917 0)
(50.1753 13.1845 0)
(50.222 13.1798 0)
(50.2726 13.1786 0)
(50.3268 13.1818 0)
(50.3839 13.1903 0)
(50.4431 13.205 0)
(50.5032 13.2267 0)
(50.563 13.256 0)
(50.6208 13.2933 0)
(50.6749 13.3387 0)
(50.7235 13.3919 0)
(50.7647 13.4524 0)
(50.7968 13.519 0)
(50.8183 13.5906 0)
(50.8279 13.6654 0)
(50.8246 13.7418 0)
(50.8081 13.8176 0)
(50.7781 13.891 0)
(50.7351 13.9602 0)
(50.6797 14.0233 0)
(50.6131 14.0789 0)
(50.5366 14.1257 0)
(50.4517 14.163 0)
(50.3601 14.1901 0)
(50.2636 14.2068 0)
(50.164 14.2128 0)
(50.0634 14.2083 0)
(49.9635 14.1931 0)
(49.8688 14.1689 0)
(49.7782 14.1343 0)
(49.7097 14.1013 0)
(49.6284 14.0524 0)
(49.7844 13.244 0)
(49.8278 13.2911 0)
(49.861 13.2811 0)
(49.8781 13.2781 0)
(49.8942 13.273 0)
(49.9115 13.2663 0)
(49.9303 13.2592 0)
(49.9505 13.2507 0)
(49.9723 13.2411 0)
(49.9964 13.2305 0)
(50.0232 13.2193 0)
(50.0533 13.2077 0)
(50.087 13.1963 0)
(50.1248 13.1856 0)
(50.1668 13.1764 0)
(50.213 13.1693 0)
(50.2636 13.1653 0)
(50.3181 13.1653 0)
(50.3761 13.1702 0)
(50.4368 13.1811 0)
(50.4993 13.1987 0)
(50.5623 13.224 0)
(50.6243 13.2573 0)
(50.6836 13.299 0)
(50.7384 13.349 0)
(50.7867 13.407 0)
(50.8266 13.4721 0)
(50.8566 13.5433 0)
(50.8749 13.6189 0)
(50.8806 13.6973 0)
(50.8728 13.7765 0)
(50.8511 13.8546 0)
(50.8157 13.9294 0)
(50.767 13.9992 0)
(50.7059 14.0622 0)
(50.6336 14.117 0)
(50.5516 14.1626 0)
(50.4615 14.1981 0)
(50.3651 14.223 0)
(50.2642 14.2372 0)
(50.1605 14.2404 0)
(50.0561 14.233 0)
(49.9531 14.2146 0)
(49.8557 14.1871 0)
(49.7636 14.1484 0)
(49.6939 14.1126 0)
(49.615 14.0577 0)
(49.7855 13.245 0)
(49.8288 13.2928 0)
(49.8608 13.2818 0)
(49.8771 13.2788 0)
(49.8928 13.2735 0)
(49.9097 13.2667 0)
(49.9279 13.2595 0)
(49.9475 13.2508 0)
(49.9686 13.2408 0)
(49.9918 13.2297 0)
(50.0177 13.2177 0)
(50.0469 13.2052 0)
(50.0797 13.1926 0)
(50.1166 13.1804 0)
(50.1578 13.1692 0)
(50.2034 13.1598 0)
(50.2536 13.1531 0)
(50.3082 13.15 0)
(50.3667 13.1514 0)
(50.4286 13.1584 0)
(50.493 13.1719 0)
(50.5587 13.1929 0)
(50.6245 13.2219 0)
(50.6885 13.2595 0)
(50.749 13.3059 0)
(50.804 13.3608 0)
(50.8517 13.4237 0)
(50.89 13.4937 0)
(50.9173 13.5693 0)
(50.9322 13.6489 0)
(50.9336 13.7307 0)
(50.9208 13.8127 0)
(50.8938 13.8927 0)
(50.8526 13.9687 0)
(50.7981 14.0389 0)
(50.7311 14.1016 0)
(50.6531 14.1555 0)
(50.5655 14.1995 0)
(50.4703 14.233 0)
(50.369 14.2556 0)
(50.2636 14.2672 0)
(50.1559 14.2677 0)
(50.0479 14.2574 0)
(49.9417 14.2357 0)
(49.8416 14.2048 0)
(49.7481 14.1619 0)
(49.6771 14.1233 0)
(49.6011 14.062 0)
(49.7867 13.2462 0)
(49.8297 13.2944 0)
(49.8605 13.2825 0)
(49.876 13.2795 0)
(49.8914 13.2741 0)
(49.9079 13.2673 0)
(49.9257 13.26 0)
(49.9445 13.251 0)
(49.9649 13.2407 0)
(49.9873 13.2292 0)
(50.0123 13.2166 0)
(50.0405 13.2033 0)
(50.0723 13.1895 0)
(50.1082 13.1759 0)
(50.1484 13.1629 0)
(50.1933 13.1514 0)
(50.2429 13.1421 0)
(50.2972 13.1359 0)
(50.356 13.1339 0)
(50.4186 13.1371 0)
(50.4845 13.1464 0)
(50.5525 13.163 0)
(50.6214 13.1875 0)
(50.6896 13.2207 0)
(50.7554 13.2629 0)
(50.8169 13.3142 0)
(50.8719 13.3742 0)
(50.9184 13.4421 0)
(50.9547 13.5169 0)
(50.9789 13.597 0)
(50.9899 13.6805 0)
(50.9867 13.7656 0)
(50.9687 13.8501 0)
(50.936 13.9318 0)
(50.8889 14.0088 0)
(50.8283 14.0791 0)
(50.7553 14.1413 0)
(50.6714 14.194 0)
(50.5784 14.2364 0)
(50.4779 14.2678 0)
(50.3719 14.288 0)
(50.262 14.297 0)
(50.1503 14.2947 0)
(50.0387 14.2813 0)
(49.9293 14.2564 0)
(49.8265 14.2222 0)
(49.7316 14.1748 0)
(49.6593 14.1336 0)
(49.5865 14.0653 0)
(49.788 13.2474 0)
(49.8306 13.296 0)
(49.8602 13.2831 0)
(49.8749 13.2802 0)
(49.8901 13.2747 0)
(49.9063 13.2679 0)
(49.9235 13.2605 0)
(49.9417 13.2514 0)
(49.9612 13.2409 0)
(49.9828 13.229 0)
(50.0069 13.2158 0)
(50.0341 13.2018 0)
(50.0649 13.187 0)
(50.0997 13.1721 0)
(50.1389 13.1575 0)
(50.1828 13.1439 0)
(50.2317 13.1322 0)
(50.2854 13.1231 0)
(50.344 13.1178 0)
(50.4071 13.1172 0)
(50.4739 13.1224 0)
(50.5437 13.1345 0)
(50.6153 13.1543 0)
(50.6873 13.1828 0)
(50.7578 13.2205 0)
(50.8251 13.2676 0)
(50.8871 13.324 0)
(50.9416 13.3892 0)
(50.9867 13.4622 0)
(51.0205 13.5418 0)
(51.0413 13.6263 0)
(51.0479 13.7137 0)
(51.0397 13.8019 0)
(51.0162 13.8886 0)
(50.9775 13.9719 0)
(50.9243 14.0495 0)
(50.8575 14.1199 0)
(50.7784 14.1813 0)
(50.6887 14.2327 0)
(50.5901 14.2732 0)
(50.4844 14.3024 0)
(50.3736 14.3201 0)
(50.2594 14.3264 0)
(50.1436 14.3212 0)
(50.0284 14.3049 0)
(49.9159 14.2766 0)
(49.8103 14.2391 0)
(49.7141 14.1872 0)
(49.6404 14.1433 0)
(49.5712 14.0676 0)
(49.7893 13.2488 0)
(49.8314 13.2976 0)
(49.8598 13.2837 0)
(49.8739 13.2809 0)
(49.8888 13.2753 0)
(49.9046 13.2686 0)
(49.9213 13.2612 0)
(49.9389 13.2519 0)
(49.9577 13.2412 0)
(49.9784 13.229 0)
(50.0016 13.2154 0)
(50.0278 13.2007 0)
(50.0574 13.1851 0)
(50.0911 13.169 0)
(50.1292 13.1529 0)
(50.172 13.1375 0)
(50.2199 13.1234 0)
(50.2729 13.1116 0)
(50.3311 13.1031 0)
(50.3941 13.0988 0)
(50.4616 13.0999 0)
(50.5327 13.1075 0)
(50.6064 13.1226 0)
(50.6815 13.1461 0)
(50.7563 13.1789 0)
(50.829 13.2213 0)
(50.8974 13.2735 0)
(50.9596 13.3353 0)
(51.0133 13.4058 0)
(51.0564 13.4841 0)
(51.0872 13.5685 0)
(51.1042 13.6573 0)
(51.1061 13.7484 0)
(51.0925 13.8394 0)
(51.0632 13.9283 0)
(51.0183 14.0128 0)
(50.9588 14.091 0)
(50.8857 14.161 0)
(50.8004 14.2215 0)
(50.7048 14.2714 0)
(50.6005 14.3099 0)
(50.4897 14.3367 0)
(50.3741 14.3518 0)
(50.2556 14.3554 0)
(50.1359 14.3473 0)
(50.0171 14.328 0)
(49.9016 14.2964 0)
(49.7931 14.2555 0)
(49.6957 14.199 0)
(49.6205 14.1525 0)
(49.5553 14.0688 0)
(49.7906 13.2502 0)
(49.8321 13.2991 0)
(49.8593 13.2843 0)
(49.8729 13.2817 0)
(49.8876 13.276 0)
(49.9031 13.2694 0)
(49.9193 13.2619 0)
(49.9362 13.2525 0)
(49.9543 13.2417 0)
(49.9742 13.2292 0)
(49.9964 13.2153 0)
(50.0215 13.2 0)
(50.05 13.1836 0)
(50.0825 13.1665 0)
(50.1193 13.1491 0)
(50.1609 13.1319 0)
(50.2077 13.1157 0)
(50.2598 13.1013 0)
(50.3172 13.0897 0)
(50.38 13.0819 0)
(50.4476 13.079 0)
(50.5195 13.0821 0)
(50.5949 13.0924 0)
(50.6726 13.1109 0)
(50.751 13.1385 0)
(50.8284 13.1758 0)
(50.9029 13.2233 0)
(50.9723 13.2809 0)
(51.0342 13.3482 0)
(51.0866 13.4242 0)
(51.1274 13.5077 0)
(51.1548 13.597 0)
(51.1674 13.69 0)
(51.1643 13.7845 0)
(51.145 13.8783 0)
(51.1095 13.969 0)
(51.0583 14.0545 0)
(50.9923 14.1329 0)
(50.9128 14.2025 0)
(50.8213 14.2618 0)
(50.7196 14.31 0)
(50.6098 14.3464 0)
(50.4938 14.3707 0)
(50.3735 14.3832 0)
(50.2507 14.3839 0)
(50.1272 14.373 0)
(50.0047 14.3507 0)
(49.8862 14.3157 0)
(49.7749 14.2716 0)
(49.6764 14.2102 0)
(49.5996 14.1612 0)
(49.5388 14.0691 0)
(49.792 13.2517 0)
(49.8328 13.3006 0)
(49.8588 13.2848 0)
(49.8718 13.2824 0)
(49.8864 13.2766 0)
(49.9015 13.2701 0)
(49.9173 13.2626 0)
(49.9335 13.2533 0)
(49.9509 13.2423 0)
(49.97 13.2297 0)
(49.9913 13.2154 0)
(50.0154 13.1997 0)
(50.0427 13.1827 0)
(50.0739 13.1646 0)
(50.1095 13.1459 0)
(50.1498 13.1272 0)
(50.1952 13.1091 0)
(50.2462 13.0923 0)
(50.3027 13.0778 0)
(50.3648 13.0665 0)
(50.4322 13.0597 0)
(50.5046 13.0584 0)
(50.5811 13.0639 0)
(50.6607 13.0773 0)
(50.7422 13.0995 0)
(50.8238 13.1315 0)
(50.9037 13.1738 0)
(50.9796 13.2266 0)
(51.0494 13.2898 0)
(51.1108 13.3627 0)
(51.1614 13.4443 0)
(51.1994 13.5331 0)
(51.223 13.627 0)
(51.2309 13.7241 0)
(51.2223 13.822 0)
(51.197 13.9182 0)
(51.1552 14.0106 0)
(51.0974 14.097 0)
(51.0247 14.1754 0)
(50.9387 14.2442 0)
(50.8408 14.3022 0)
(50.7332 14.3485 0)
(50.6178 14.3826 0)
(50.4967 14.4044 0)
(50.3718 14.4141 0)
(50.2448 14.412 0)
(50.1174 14.3982 0)
(49.9914 14.373 0)
(49.8698 14.3346 0)
(49.7556 14.2872 0)
(49.6561 14.221 0)
(49.5775 14.1695 0)
(49.5216 14.0684 0)
(49.7933 13.2533 0)
(49.8333 13.3021 0)
(49.8582 13.2853 0)
(49.8709 13.2831 0)
(49.8853 13.2773 0)
(49.9001 13.2709 0)
(49.9153 13.2634 0)
(49.931 13.2541 0)
(49.9477 13.243 0)
(49.9659 13.2303 0)
(49.9863 13.2158 0)
(50.0093 13.1997 0)
(50.0355 13.1821 0)
(50.0654 13.1633 0)
(50.0996 13.1435 0)
(50.1385 13.1234 0)
(50.1826 13.1034 0)
(50.2322 13.0844 0)
(50.2875 13.0672 0)
(50.3487 13.0527 0)
(50.4156 13.0421 0)
(50.488 13.0366 0)
(50.5651 13.0373 0)
(50.6462 13.0455 0)
(50.7301 13.0622 0)
(50.8152 13.0885 0)
(50.8998 13.1252 0)
(50.9818 13.1728 0)
(51.059 13.2312 0)
(51.1289 13.3002 0)
(51.1892 13.379 0)
(51.2376 13.4662 0)
(51.2723 13.5602 0)
(51.2916 13.6588 0)
(51.2944 13.7598 0)
(51.28 13.8608 0)
(51.2484 13.9593 0)
(51.2 14.053 0)
(51.1354 14.1399 0)
(51.056 14.2181 0)
(50.9633 14.286 0)
(50.8591 14.3425 0)
(50.7455 14.3868 0)
(50.6246 14.4185 0)
(50.4984 14.4376 0)
(50.3689 14.4446 0)
(50.2377 14.4397 0)
(50.1065 14.4229 0)
(49.977 14.3948 0)
(49.8524 14.3531 0)