/*--------------------------------*- C++ -*----------------------------------*\
  =========                 |
  \\      /  F ield         | OpenFOAM: The Open Source CFD Toolbox
   \\    /   O peration     | Website:  https://openfoam.org
    \\  /    A nd           | Version:  7
     \\/     M anipulation  |
\*---------------------------------------------------------------------------*/
FoamFile
{
    version     2.0;
    format      ascii;
    class       volScalarField;
    location    "600";
    object      yPlus;
}
// * * * * * * * * * * * * * * * * * * * * * * * * * * * * * * * * * * * * * //

dimensions      [0 0 0 0 0 0 0];

internalField   uniform 0;

boundaryField
{
    inlet-l
    {
        type            calculated;
        value           uniform 0;
    }
    airfoil-l1
    {
        type            calculated;
        value           nonuniform 0();
    }
    empty-1
    {
        type            empty;
    }
    empty-2
    {
        type            empty;
    }
    wall-l1
    {
        type            calculated;
        value           nonuniform List<scalar> 
67
(
81.1779
80.7052
80.1401
79.561
78.9769
78.399
77.8253
77.258
76.6945
76.1359
75.5783
75.0267
74.4881
73.9575
73.4312
72.91
72.3994
71.8955
71.3952
70.9011
70.4172
69.9403
69.4671
69.0029
68.5475
68.0985
67.6584
67.2211
66.794
66.3766
65.9645
65.5638
65.1679
64.7833
64.4025
64.0334
63.674
63.3222
62.981
62.6486
62.3254
62.0112
61.7076
61.4123
61.1286
60.8522
60.5866
60.3306
60.0843
59.8474
59.6209
59.4017
59.1943
58.9943
58.8038
58.6221
58.4492
58.2837
58.1287
57.9773
57.8358
57.7024
57.575
57.4578
57.3407
57.2437
57.1017
)
;
    }
    airfoil-l2
    {
        type            calculated;
        value           nonuniform List<scalar> 
66
(
23.7246
23.9055
24.0517
24.1706
24.2693
24.3508
24.4231
24.4856
24.5362
24.5787
24.6128
24.6413
24.6686
24.6889
24.7053
24.7181
24.7281
24.7353
24.7416
24.7452
24.7451
24.7468
24.7441
24.7421
24.7389
24.7321
24.7244
24.718
24.7085
24.6977
24.6891
24.6771
24.6643
24.6511
24.6395
24.6299
24.6147
24.5945
24.5802
24.5684
24.5509
24.5354
24.5193
24.4997
24.4797
24.4615
24.4423
24.4195
24.3957
24.3711
24.3472
24.3242
24.2969
24.2648
24.2302
24.1928
24.1514
24.1056
24.0556
23.9988
23.9324
23.8511
23.7602
23.6169
23.523
22.2487
)
;
    }
    empty-3
    {
        type            empty;
    }
    empty-4
    {
        type            empty;
    }
    wall-l2
    {
        type            calculated;
        value           nonuniform List<scalar> 
74
(
57.2485
57.3211
57.3675
57.477
57.5937
57.6787
57.7472
57.8174
57.889
57.9576
58.0236
58.0887
58.1549
58.2229
58.2925
58.3644
58.4387
58.5155
58.5944
58.6749
58.7562
58.8374
58.917
58.9937
59.0659
59.1316
59.1888
59.2355
59.2692
59.2876
59.2883
59.2685
59.2256
59.157
59.0598
58.9311
58.7679
58.5674
58.3262
58.0412
57.7092
57.3266
56.89
56.3956
55.8396
55.2181
54.5273
53.7628
52.9208
51.9969
50.9872
49.8877
48.6949
47.4054
46.0167
44.5267
42.9348
41.2418
39.4506
37.5679
35.6038
33.5766
31.5129
29.4537
27.4588
25.6101
24.009
22.7511
21.9015
21.4451
21.3779
21.8102
22.7196
25.7435
)
;
    }
    outlet-l
    {
        type            calculated;
        value           uniform 0;
    }
    empty-5
    {
        type            empty;
    }
    empty-6
    {
        type            empty;
    }
    outlet-h
    {
        type            calculated;
        value           nonuniform 0();
    }
    wall-h2
    {
        type            calculated;
        value           nonuniform 0();
    }
    empty-7
    {
        type            empty;
    }
    empty-8
    {
        type            empty;
    }
    airfoil-h2
    {
        type            calculated;
        value           nonuniform 0();
    }
    wall-h1
    {
        type            calculated;
        value           nonuniform 0();
    }
    empty-9
    {
        type            empty;
    }
    empty-10
    {
        type            empty;
    }
    inlet-h
    {
        type            calculated;
        value           nonuniform 0();
    }
    airfoil-h1
    {
        type            calculated;
        value           nonuniform 0();
    }
    empty-11
    {
        type            empty;
    }
    empty-12
    {
        type            empty;
    }
    procBoundary1to0
    {
        type            processor;
        value           uniform 0;
    }
    procBoundary1to2
    {
        type            processor;
        value           uniform 0;
    }
}


// ************************************************************************* //
