/*--------------------------------*- C++ -*----------------------------------*\
  =========                 |
  \\      /  F ield         | OpenFOAM: The Open Source CFD Toolbox
   \\    /   O peration     | Website:  https://openfoam.org
    \\  /    A nd           | Version:  7
     \\/     M anipulation  |
\*---------------------------------------------------------------------------*/
FoamFile
{
    version     2.0;
    format      ascii;
    class       volScalarField;
    location    "1600";
    object      nut;
}
// * * * * * * * * * * * * * * * * * * * * * * * * * * * * * * * * * * * * * //

dimensions      [0 2 -1 0 0 0 0];

internalField   nonuniform List<scalar> 
23064
(
5.20723e-06
5.2085e-06
5.20722e-06
5.20972e-06
5.2085e-06
5.20722e-06
5.2109e-06
5.20971e-06
5.20849e-06
5.20722e-06
5.21205e-06
5.21089e-06
5.2097e-06
5.20848e-06
5.20722e-06
5.21316e-06
5.21204e-06
5.21088e-06
5.20969e-06
5.20847e-06
5.20722e-06
5.21423e-06
5.21314e-06
5.21202e-06
5.21086e-06
5.20968e-06
5.20846e-06
5.20721e-06
5.21526e-06
5.21421e-06
5.21313e-06
5.212e-06
5.21085e-06
5.20966e-06
5.20846e-06
5.20721e-06
5.21625e-06
5.21525e-06
5.2142e-06
5.21311e-06
5.21199e-06
5.21083e-06
5.20965e-06
5.20845e-06
5.20721e-06
5.21721e-06
5.21624e-06
5.21523e-06
5.21418e-06
5.21309e-06
5.21197e-06
5.21081e-06
5.20964e-06
5.20844e-06
5.2072e-06
5.21812e-06
5.21719e-06
5.21623e-06
5.21522e-06
5.21417e-06
5.21307e-06
5.21195e-06
5.2108e-06
5.20962e-06
5.20843e-06
5.2072e-06
5.21899e-06
5.21811e-06
5.21718e-06
5.21621e-06
5.2152e-06
5.21415e-06
5.21306e-06
5.21193e-06
5.21078e-06
5.2096e-06
5.20842e-06
5.2072e-06
5.21983e-06
5.21898e-06
5.2181e-06
5.21717e-06
5.2162e-06
5.21518e-06
5.21413e-06
5.21304e-06
5.21191e-06
5.21076e-06
5.20959e-06
5.2084e-06
5.20719e-06
5.22062e-06
5.21982e-06
5.21898e-06
5.21809e-06
5.21716e-06
5.21618e-06
5.21517e-06
5.21411e-06
5.21301e-06
5.21189e-06
5.21074e-06
5.20957e-06
5.20839e-06
5.20719e-06
5.22139e-06
5.22062e-06
5.21982e-06
5.21897e-06
5.21808e-06
5.21714e-06
5.21617e-06
5.21515e-06
5.21409e-06
5.21299e-06
5.21187e-06
5.21072e-06
5.20955e-06
5.20838e-06
5.20719e-06
5.22211e-06
5.22138e-06
5.22062e-06
5.21981e-06
5.21896e-06
5.21807e-06
5.21713e-06
5.21615e-06
5.21513e-06
5.21407e-06
5.21297e-06
5.21184e-06
5.21069e-06
5.20953e-06
5.20836e-06
5.20718e-06
5.2228e-06
5.22211e-06
5.22138e-06
5.22061e-06
5.2198e-06
5.21895e-06
5.21806e-06
5.21712e-06
5.21613e-06
5.21511e-06
5.21405e-06
5.21295e-06
5.21182e-06
5.21067e-06
5.20951e-06
5.20835e-06
5.20718e-06
5.22346e-06
5.22281e-06
5.22211e-06
5.22138e-06
5.22061e-06
5.2198e-06
5.21894e-06
5.21804e-06
5.2171e-06
5.21612e-06
5.21509e-06
5.21402e-06
5.21292e-06
5.21179e-06
5.21064e-06
5.20949e-06
5.20834e-06
5.20717e-06
5.22409e-06
5.22347e-06
5.22281e-06
5.22211e-06
5.22138e-06
5.2206e-06
5.21979e-06
5.21893e-06
5.21803e-06
5.21709e-06
5.2161e-06
5.21507e-06
5.214e-06
5.21289e-06
5.21176e-06
5.21062e-06
5.20947e-06
5.20832e-06
5.20716e-06
5.22469e-06
5.22409e-06
5.22347e-06
5.22281e-06
5.22211e-06
5.22138e-06
5.2206e-06
5.21978e-06
5.21892e-06
5.21802e-06
5.21707e-06
5.21608e-06
5.21505e-06
5.21397e-06
5.21287e-06
5.21174e-06
5.21059e-06
5.20944e-06
5.2083e-06
5.20716e-06
5.22525e-06
5.22469e-06
5.2241e-06
5.22347e-06
5.22281e-06
5.22211e-06
5.22137e-06
5.2206e-06
5.21977e-06
5.21891e-06
5.218e-06
5.21705e-06
5.21606e-06
5.21502e-06
5.21395e-06
5.21284e-06
5.21171e-06
5.21056e-06
5.20942e-06
5.20828e-06
5.20715e-06
5.2258e-06
5.22526e-06
5.2247e-06
5.22411e-06
5.22348e-06
5.22281e-06
5.22211e-06
5.22137e-06
5.22059e-06
5.21977e-06
5.2189e-06
5.21799e-06
5.21704e-06
5.21604e-06
5.215e-06
5.21392e-06
5.21281e-06
5.21168e-06
5.21053e-06
5.20939e-06
5.20826e-06
5.20715e-06
5.22631e-06
5.2258e-06
5.22527e-06
5.22471e-06
5.22411e-06
5.22348e-06
5.22281e-06
5.22211e-06
5.22137e-06
5.22058e-06
5.21976e-06
5.21889e-06
5.21798e-06
5.21702e-06
5.21602e-06
5.21497e-06
5.21389e-06
5.21278e-06
5.21164e-06
5.2105e-06
5.20936e-06
5.20824e-06
5.20714e-06
5.2268e-06
5.22632e-06
5.22581e-06
5.22528e-06
5.22471e-06
5.22412e-06
5.22348e-06
5.22282e-06
5.22211e-06
5.22137e-06
5.22058e-06
5.21975e-06
5.21888e-06
5.21796e-06
5.217e-06
5.21599e-06
5.21495e-06
5.21386e-06
5.21275e-06
5.21161e-06
5.21046e-06
5.20933e-06
5.20822e-06
5.20713e-06
5.22726e-06
5.22681e-06
5.22633e-06
5.22582e-06
5.22529e-06
5.22472e-06
5.22412e-06
5.22349e-06
5.22282e-06
5.22211e-06
5.22136e-06
5.22057e-06
5.21974e-06
5.21887e-06
5.21795e-06
5.21698e-06
5.21597e-06
5.21492e-06
5.21383e-06
5.21271e-06
5.21157e-06
5.21043e-06
5.2093e-06
5.2082e-06
5.20712e-06
5.2277e-06
5.22727e-06
5.22682e-06
5.22634e-06
5.22583e-06
5.22529e-06
5.22473e-06
5.22413e-06
5.22349e-06
5.22282e-06
5.22211e-06
5.22136e-06
5.22057e-06
5.21973e-06
5.21885e-06
5.21793e-06
5.21696e-06
5.21595e-06
5.21489e-06
5.2138e-06
5.21268e-06
5.21154e-06
5.21039e-06
5.20926e-06
5.20817e-06
5.20711e-06
5.22812e-06
5.22771e-06
5.22728e-06
5.22683e-06
5.22635e-06
5.22584e-06
5.2253e-06
5.22473e-06
5.22413e-06
5.2235e-06
5.22282e-06
5.22211e-06
5.22136e-06
5.22056e-06
5.21972e-06
5.21884e-06
5.21791e-06
5.21694e-06
5.21592e-06
5.21486e-06
5.21377e-06
5.21264e-06
5.2115e-06
5.21035e-06
5.20923e-06
5.20815e-06
5.2071e-06
5.22852e-06
5.22813e-06
5.22773e-06
5.2273e-06
5.22684e-06
5.22636e-06
5.22585e-06
5.22531e-06
5.22474e-06
5.22414e-06
5.2235e-06
5.22282e-06
5.22211e-06
5.22135e-06
5.22056e-06
5.21971e-06
5.21883e-06
5.2179e-06
5.21692e-06
5.2159e-06
5.21483e-06
5.21373e-06
5.2126e-06
5.21145e-06
5.21031e-06
5.20919e-06
5.20812e-06
5.20709e-06
5.22889e-06
5.22853e-06
5.22815e-06
5.22774e-06
5.22731e-06
5.22685e-06
5.22637e-06
5.22586e-06
5.22532e-06
5.22475e-06
5.22414e-06
5.2235e-06
5.22283e-06
5.22211e-06
5.22135e-06
5.22055e-06
5.2197e-06
5.21881e-06
5.21788e-06
5.2169e-06
5.21587e-06
5.2148e-06
5.2137e-06
5.21256e-06
5.21141e-06
5.21027e-06
5.20915e-06
5.20809e-06
5.20708e-06
5.22925e-06
5.22891e-06
5.22854e-06
5.22816e-06
5.22775e-06
5.22732e-06
5.22686e-06
5.22638e-06
5.22587e-06
5.22533e-06
5.22476e-06
5.22415e-06
5.22351e-06
5.22283e-06
5.22211e-06
5.22135e-06
5.22054e-06
5.21969e-06
5.2188e-06
5.21786e-06
5.21687e-06
5.21584e-06
5.21477e-06
5.21366e-06
5.21252e-06
5.21137e-06
5.21022e-06
5.20911e-06
5.20806e-06
5.20707e-06
5.22959e-06
5.22927e-06
5.22892e-06
5.22856e-06
5.22817e-06
5.22777e-06
5.22733e-06
5.22688e-06
5.22639e-06
5.22588e-06
5.22534e-06
5.22476e-06
5.22416e-06
5.22351e-06
5.22283e-06
5.22211e-06
5.22134e-06
5.22054e-06
5.21968e-06
5.21879e-06
5.21784e-06
5.21685e-06
5.21582e-06
5.21474e-06
5.21362e-06
5.21248e-06
5.21132e-06
5.21017e-06
5.20906e-06
5.20802e-06
5.20705e-06
0.000275446
5.22991e-06
5.22961e-06
5.22928e-06
5.22894e-06
5.22857e-06
5.22819e-06
5.22778e-06
5.22735e-06
5.22689e-06
5.22641e-06
5.22589e-06
5.22535e-06
5.22477e-06
5.22416e-06
5.22352e-06
5.22283e-06
5.22211e-06
5.22134e-06
5.22053e-06
5.21967e-06
5.21877e-06
5.21782e-06
5.21683e-06
5.21579e-06
5.2147e-06
5.21358e-06
5.21243e-06
5.21127e-06
5.21012e-06
5.20902e-06
5.20799e-06
5.20704e-06
0.000290714
0.000279308
5.23022e-06
5.22993e-06
5.22962e-06
5.2293e-06
5.22895e-06
5.22859e-06
5.2282e-06
5.22779e-06
5.22736e-06
5.2269e-06
5.22642e-06
5.2259e-06
5.22536e-06
5.22478e-06
5.22417e-06
5.22352e-06
5.22283e-06
5.22211e-06
5.22134e-06
5.22052e-06
5.21966e-06
5.21876e-06
5.2178e-06
5.2168e-06
5.21576e-06
5.21466e-06
5.21354e-06
5.21238e-06
5.21122e-06
5.21007e-06
5.20897e-06
5.20795e-06
5.20702e-06
0.000537651
0.000292649
0.000283134
5.23051e-06
5.23023e-06
5.22994e-06
5.22964e-06
5.22931e-06
5.22897e-06
5.2286e-06
5.22822e-06
5.22781e-06
5.22737e-06
5.22692e-06
5.22643e-06
5.22591e-06
5.22537e-06
5.22479e-06
5.22418e-06
5.22353e-06
5.22284e-06
5.22211e-06
5.22133e-06
5.22052e-06
5.21965e-06
5.21874e-06
5.21778e-06
5.21678e-06
5.21572e-06
5.21463e-06
5.21349e-06
5.21233e-06
5.21116e-06
5.21001e-06
5.20892e-06
5.20791e-06
5.20701e-06
0.00078521
0.000540878
0.00029462
0.000287025
5.23078e-06
5.23052e-06
5.23025e-06
5.22996e-06
5.22965e-06
5.22933e-06
5.22898e-06
5.22862e-06
5.22823e-06
5.22782e-06
5.22739e-06
5.22693e-06
5.22644e-06
5.22593e-06
5.22538e-06
5.2248e-06
5.22418e-06
5.22353e-06
5.22284e-06
5.22211e-06
5.22133e-06
5.22051e-06
5.21964e-06
5.21873e-06
5.21776e-06
5.21675e-06
5.21569e-06
5.21459e-06
5.21345e-06
5.21228e-06
5.21111e-06
5.20995e-06
5.20886e-06
5.20786e-06
5.20699e-06
0.00103618
0.000788977
0.00054416
0.000296559
0.000290931
5.23104e-06
5.2308e-06
5.23054e-06
5.23026e-06
5.22998e-06
5.22967e-06
5.22934e-06
5.229e-06
5.22863e-06
5.22825e-06
5.22784e-06
5.2274e-06
5.22694e-06
5.22646e-06
5.22594e-06
5.22539e-06
5.22481e-06
5.22419e-06
5.22354e-06
5.22284e-06
5.22211e-06
5.22133e-06
5.2205e-06
5.21963e-06
5.21871e-06
5.21774e-06
5.21672e-06
5.21566e-06
5.21455e-06
5.2134e-06
5.21223e-06
5.21105e-06
5.20989e-06
5.2088e-06
5.20781e-06
5.20697e-06
0.0012814
0.00103961
0.000792749
0.00054736
0.000298608
0.000294832
5.23129e-06
5.23106e-06
5.23081e-06
5.23056e-06
5.23028e-06
5.22999e-06
5.22968e-06
5.22936e-06
5.22901e-06
5.22865e-06
5.22826e-06
5.22785e-06
5.22742e-06
5.22696e-06
5.22647e-06
5.22595e-06
5.2254e-06
5.22482e-06
5.2242e-06
5.22354e-06
5.22284e-06
5.22211e-06
5.22132e-06
5.22049e-06
5.21962e-06
5.21869e-06
5.21772e-06
5.2167e-06
5.21562e-06
5.2145e-06
5.21335e-06
5.21217e-06
5.21098e-06
5.20983e-06
5.20874e-06
5.20776e-06
5.20695e-06
0.00151537
0.00128364
0.00104301
0.000796556
0.00055078
0.000300675
0.000298801
5.23152e-06
5.23131e-06
5.23107e-06
5.23083e-06
5.23057e-06
5.2303e-06
5.23001e-06
5.2297e-06
5.22938e-06
5.22903e-06
5.22867e-06
5.22828e-06
5.22787e-06
5.22743e-06
5.22697e-06
5.22648e-06
5.22596e-06
5.22541e-06
5.22483e-06
5.22421e-06
5.22355e-06
5.22285e-06
5.22211e-06
5.22132e-06
5.22049e-06
5.21961e-06
5.21868e-06
5.2177e-06
5.21667e-06
5.21559e-06
5.21446e-06
5.2133e-06
5.21211e-06
5.21092e-06
5.20976e-06
5.20867e-06
5.20771e-06
5.20692e-06
0.00173527
0.00151571
0.00128578
0.00104638
0.000800438
0.000554036
0.000302769
0.000302773
5.23175e-06
5.23154e-06
5.23132e-06
5.23109e-06
5.23085e-06
5.23059e-06
5.23032e-06
5.23003e-06
5.22972e-06
5.22939e-06
5.22905e-06
5.22868e-06
5.2283e-06
5.22789e-06
5.22745e-06
5.22699e-06
5.2265e-06
5.22598e-06
5.22542e-06
5.22484e-06
5.22421e-06
5.22355e-06
5.22285e-06
5.22211e-06
5.22132e-06
5.22048e-06
5.21959e-06
5.21866e-06
5.21767e-06
5.21664e-06
5.21555e-06
5.21441e-06
5.21324e-06
5.21205e-06
5.21085e-06
5.20968e-06
5.2086e-06
5.20765e-06
5.2069e-06
0.0019397
0.00173314
0.00151586
0.00128781
0.00104974
0.00080417
0.000557497
0.000304929
0.000306835
5.23196e-06
5.23176e-06
5.23156e-06
5.23134e-06
5.23111e-06
5.23086e-06
5.23061e-06
5.23033e-06
5.23004e-06
5.22974e-06
5.22941e-06
5.22907e-06
5.2287e-06
5.22831e-06
5.2279e-06
5.22747e-06
5.227e-06
5.22651e-06
5.22599e-06
5.22544e-06
5.22485e-06
5.22422e-06
5.22356e-06
5.22285e-06
5.22211e-06
5.22131e-06
5.22047e-06
5.21958e-06
5.21864e-06
5.21765e-06
5.21661e-06
5.21551e-06
5.21437e-06
5.21319e-06
5.21198e-06
5.21078e-06
5.20961e-06
5.20852e-06
5.20759e-06
5.20687e-06
0.00212773
0.00193458
0.00173071
0.0015158
0.00128972
0.00105295
0.000808023
0.000560928
0.000307015
0.000310912
5.23216e-06
5.23197e-06
5.23178e-06
5.23157e-06
5.23135e-06
5.23112e-06
5.23088e-06
5.23062e-06
5.23035e-06
5.23006e-06
5.22975e-06
5.22943e-06
5.22908e-06
5.22872e-06
5.22833e-06
5.22792e-06
5.22748e-06
5.22702e-06
5.22653e-06
5.226e-06
5.22545e-06
5.22486e-06
5.22423e-06
5.22357e-06
5.22286e-06
5.22211e-06
5.22131e-06
5.22047e-06
5.21957e-06
5.21862e-06
5.21763e-06
5.21657e-06
5.21547e-06
5.21432e-06
5.21313e-06
5.21191e-06
5.2107e-06
5.20952e-06
5.20845e-06
5.20753e-06
5.20684e-06
0.00229857
0.00211919
0.00192909
0.001728
0.00151555
0.00129143
0.00105615
0.000811838
0.00056437
0.00030932
0.000315027
5.23234e-06
5.23217e-06
5.23199e-06
5.23179e-06
5.23159e-06
5.23137e-06
5.23114e-06
5.2309e-06
5.23064e-06
5.23037e-06
5.23008e-06
5.22977e-06
5.22945e-06
5.2291e-06
5.22874e-06
5.22835e-06
5.22794e-06
5.2275e-06
5.22704e-06
5.22654e-06
5.22602e-06
5.22546e-06
5.22487e-06
5.22424e-06
5.22357e-06
5.22286e-06
5.22211e-06
5.22131e-06
5.22046e-06
5.21956e-06
5.21861e-06
5.2176e-06
5.21654e-06
5.21543e-06
5.21427e-06
5.21307e-06
5.21184e-06
5.21062e-06
5.20944e-06
5.20836e-06
5.20746e-06
5.20681e-06
0.00245136
0.00228616
0.00211017
0.00192322
0.00172497
0.001515
0.00129303
0.00105924
0.000815705
0.000568055
0.000311587
0.000319252
5.23252e-06
5.23236e-06
5.23219e-06
5.232e-06
5.23181e-06
5.2316e-06
5.23139e-06
5.23116e-06
5.23092e-06
5.23066e-06
5.23039e-06
5.2301e-06
5.22979e-06
5.22947e-06
5.22912e-06
5.22876e-06
5.22837e-06
5.22796e-06
5.22752e-06
5.22705e-06
5.22656e-06
5.22603e-06
5.22548e-06
5.22488e-06
5.22425e-06
5.22358e-06
5.22287e-06
5.22211e-06
5.22131e-06
5.22045e-06
5.21955e-06
5.21859e-06
5.21758e-06
5.21651e-06
5.21539e-06
5.21422e-06
5.21301e-06
5.21177e-06
5.21054e-06
5.20935e-06
5.20827e-06
5.20738e-06
5.20677e-06
0.00258514
0.00243463
0.00227316
0.00210068
0.00191692
0.00172157
0.00151422
0.00129439
0.0010623
0.000819653
0.000571561
0.000313958
0.00032355
5.23269e-06
5.23254e-06
5.23237e-06
5.2322e-06
5.23202e-06
5.23183e-06
5.23162e-06
5.23141e-06
5.23118e-06
5.23093e-06
5.23068e-06
5.23041e-06
5.23012e-06
5.22981e-06
5.22948e-06
5.22914e-06
5.22877e-06
5.22839e-06
5.22797e-06
5.22754e-06
5.22707e-06
5.22658e-06
5.22605e-06
5.22549e-06
5.22489e-06
5.22426e-06
5.22359e-06
5.22287e-06
5.22211e-06
5.2213e-06
5.22044e-06
5.21953e-06
5.21857e-06
5.21755e-06
5.21647e-06
5.21534e-06
5.21416e-06
5.21294e-06
5.21169e-06
5.21045e-06
5.20925e-06
5.20818e-06
5.2073e-06
5.20673e-06
0.00269877
0.00256362
0.00241719
0.00225956
0.00209061
0.00191014
0.00171785
0.00151311
0.00129564
0.0010653
0.00082344
0.00057526
0.000316416
0.000327879
5.23285e-06
5.23271e-06
5.23255e-06
5.23239e-06
5.23222e-06
5.23204e-06
5.23184e-06
5.23164e-06
5.23142e-06
5.2312e-06
5.23095e-06
5.2307e-06
5.23042e-06
5.23014e-06
5.22983e-06
5.2295e-06
5.22916e-06
5.22879e-06
5.22841e-06
5.22799e-06
5.22755e-06
5.22709e-06
5.22659e-06
5.22607e-06
5.2255e-06
5.22491e-06
5.22427e-06
5.2236e-06
5.22288e-06
5.22211e-06
5.2213e-06
5.22044e-06
5.21952e-06
5.21855e-06
5.21752e-06
5.21644e-06
5.2153e-06
5.21411e-06
5.21287e-06
5.21161e-06
5.21036e-06
5.20915e-06
5.20808e-06
5.20721e-06
5.20669e-06
0.00279098
0.00267196
0.00254124
0.002399
0.00224527
0.00207996
0.00190293
0.00171365
0.00151179
0.00129669
0.00106813
0.000827366
0.000579055
0.00031896
0.000332357
5.23301e-06
5.23287e-06
5.23272e-06
5.23257e-06
5.23241e-06
5.23223e-06
5.23205e-06
5.23186e-06
5.23166e-06
5.23144e-06
5.23121e-06
5.23097e-06
5.23072e-06
5.23044e-06
5.23016e-06
5.22985e-06
5.22952e-06
5.22918e-06
5.22881e-06
5.22843e-06
5.22801e-06
5.22757e-06
5.22711e-06
5.22661e-06
5.22608e-06
5.22552e-06
5.22492e-06
5.22428e-06
5.22361e-06
5.22288e-06
5.22212e-06
5.2213e-06
5.22043e-06
5.21951e-06
5.21853e-06
5.2175e-06
5.2164e-06
5.21525e-06
5.21405e-06
5.2128e-06
5.21153e-06
5.21026e-06
5.20905e-06
5.20797e-06
5.20712e-06
5.20664e-06
0.00286034
0.00275836
0.00264414
0.00251796
0.00237998
0.00223026
0.00206874
0.00189512
0.00170912
0.00151011
0.00129747
0.00107092
0.00083129
0.000582881
0.000321557
0.000336968
5.23315e-06
5.23302e-06
5.23288e-06
5.23274e-06
5.23258e-06
5.23242e-06
5.23225e-06
5.23207e-06
5.23188e-06
5.23168e-06
5.23146e-06
5.23123e-06
5.23099e-06
5.23074e-06
5.23046e-06
5.23018e-06
5.22987e-06
5.22955e-06
5.2292e-06
5.22884e-06
5.22845e-06
5.22803e-06
5.22759e-06
5.22713e-06
5.22663e-06
5.2261e-06
5.22554e-06
5.22494e-06
5.2243e-06
5.22362e-06
5.22289e-06
5.22212e-06
5.2213e-06
5.22043e-06
5.2195e-06
5.21851e-06
5.21747e-06
5.21637e-06
5.2152e-06
5.21399e-06
5.21273e-06
5.21144e-06
5.21016e-06
5.20893e-06
5.20785e-06
5.20702e-06
5.20662e-06
0.00290528
0.00282136
0.00272456
0.00261524
0.00249369
0.00236008
0.00221449
0.00205678
0.0018868
0.0017041
0.00150806
0.00129809
0.00107359
0.000835147
0.000586697
0.000324259
0.000341593
5.23329e-06
5.23316e-06
5.23303e-06
5.2329e-06
5.23275e-06
5.2326e-06
5.23244e-06
5.23227e-06
5.23209e-06
5.2319e-06
5.23169e-06
5.23148e-06
5.23125e-06
5.23101e-06
5.23076e-06
5.23048e-06
5.2302e-06
5.22989e-06
5.22957e-06
5.22922e-06
5.22886e-06
5.22847e-06
5.22805e-06
5.22762e-06
5.22715e-06
5.22665e-06
5.22612e-06
5.22555e-06
5.22495e-06
5.22431e-06
5.22363e-06
5.2229e-06
5.22212e-06
5.2213e-06
5.22042e-06
5.21949e-06
5.2185e-06
5.21744e-06
5.21633e-06
5.21516e-06
5.21393e-06
5.21265e-06
5.21135e-06
5.21005e-06
5.20882e-06
5.20773e-06
5.20693e-06
5.20663e-06
0.00292406
0.00285937
0.00278102
0.00268949
0.00258517
0.00246835
0.00233924
0.00219783
0.00204414
0.00187785
0.00169856
0.00150569
0.00129843
0.0010761
0.00083903
0.000590884
0.000327086
0.000346352
5.23342e-06
5.2333e-06
5.23318e-06
5.23305e-06
5.23291e-06
5.23277e-06
5.23262e-06
5.23246e-06
5.23229e-06
5.23211e-06
5.23192e-06
5.23171e-06
5.2315e-06
5.23127e-06
5.23103e-06
5.23078e-06
5.23051e-06
5.23022e-06
5.22991e-06
5.22959e-06
5.22924e-06
5.22888e-06
5.22849e-06
5.22808e-06
5.22764e-06
5.22717e-06
5.22667e-06
5.22614e-06
5.22557e-06
5.22497e-06
5.22432e-06
5.22364e-06
5.22291e-06
5.22213e-06
5.2213e-06
5.22041e-06
5.21948e-06
5.21848e-06
5.21741e-06
5.21629e-06
5.21511e-06
5.21386e-06
5.21258e-06
5.21126e-06
5.20994e-06
5.20869e-06
5.20761e-06
5.20687e-06
5.20666e-06
0.0029148
0.0028706
0.00281187
0.00273919
0.00265305
0.00255384
0.0024419
0.00231734
0.00218032
0.00203069
0.00186822
0.00169251
0.00150288
0.00129846
0.00107851
0.000843052
0.000594969
0.000330018
0.000351299
5.23354e-06
5.23343e-06
5.23331e-06
5.23319e-06
5.23306e-06
5.23293e-06
5.23278e-06
5.23263e-06
5.23247e-06
5.2323e-06
5.23212e-06
5.23193e-06
5.23173e-06
5.23152e-06
5.23129e-06
5.23105e-06
5.2308e-06
5.23053e-06
5.23024e-06
5.22994e-06
5.22961e-06
5.22927e-06
5.2289e-06
5.22851e-06
5.2281e-06
5.22766e-06
5.22719e-06
5.22669e-06
5.22616e-06
5.22559e-06
5.22498e-06
5.22434e-06
5.22365e-06
5.22291e-06
5.22213e-06
5.2213e-06
5.22041e-06
5.21946e-06
5.21846e-06
5.21739e-06
5.21625e-06
5.21506e-06
5.2138e-06
5.21249e-06
5.21116e-06
5.20983e-06
5.20856e-06
5.20748e-06
5.20684e-06
5.20671e-06
0.00287546
0.00285314
0.00281532
0.00276266
0.00269577
0.00261512
0.00252116
0.00241417
0.00229437
0.0021618
0.00201638
0.00185789
0.00168587
0.0014996
0.00129825
0.00108082
0.000846893
0.000599047
0.000333104
0.000356402
5.23365e-06
5.23355e-06
5.23344e-06
5.23333e-06
5.23321e-06
5.23308e-06
5.23294e-06
5.2328e-06
5.23265e-06
5.23249e-06
5.23232e-06
5.23214e-06
5.23195e-06
5.23175e-06
5.23154e-06
5.23131e-06
5.23107e-06
5.23082e-06
5.23055e-06
5.23026e-06
5.22996e-06
5.22963e-06
5.22929e-06
5.22893e-06
5.22854e-06
5.22812e-06
5.22768e-06
5.22721e-06
5.22671e-06
5.22618e-06
5.22561e-06
5.225e-06
5.22435e-06
5.22366e-06
5.22292e-06
5.22214e-06
5.2213e-06
5.22041e-06
5.21945e-06
5.21844e-06
5.21736e-06
5.21621e-06
5.215e-06
5.21373e-06
5.21241e-06
5.21106e-06
5.2097e-06
5.20842e-06
5.20735e-06
5.20686e-06
5.20678e-06
0.00280392
0.00280495
0.00278942
0.00275809
0.00271162
0.00265063
0.00257561
0.00248701
0.00238513
0.00227017
0.0021422
0.00200116
0.00184678
0.00167858
0.00149589
0.00129771
0.00108282
0.000850681
0.000603375
0.00033633
0.00036168
5.23376e-06
5.23367e-06
5.23356e-06
5.23346e-06
5.23334e-06
5.23322e-06
5.23309e-06
5.23296e-06
5.23282e-06
5.23267e-06
5.23251e-06
5.23234e-06
5.23216e-06
5.23197e-06
5.23177e-06
5.23156e-06
5.23134e-06
5.2311e-06
5.23084e-06
5.23057e-06
5.23029e-06
5.22998e-06
5.22966e-06
5.22931e-06
5.22895e-06
5.22856e-06
5.22815e-06
5.2277e-06
5.22723e-06
5.22673e-06
5.2262e-06
5.22563e-06
5.22502e-06
5.22437e-06
5.22367e-06
5.22293e-06
5.22214e-06
5.2213e-06
5.2204e-06
5.21944e-06
5.21842e-06
5.21733e-06
5.21617e-06
5.21495e-06
5.21366e-06
5.21232e-06
5.21095e-06
5.20958e-06
5.20828e-06
5.20724e-06
5.20691e-06
5.20685e-06
0.00269795
0.00272388
0.00273211
0.00272349
0.00269876
0.0026586
0.00260364
0.00253438
0.00245127
0.00235463
0.00224466
0.00212145
0.00198493
0.00183481
0.00167063
0.00149164
0.0012967
0.00108462
0.000854533
0.000607783
0.000339726
0.000367147
5.23387e-06
5.23377e-06
5.23368e-06
5.23358e-06
5.23347e-06
5.23336e-06
5.23324e-06
5.23311e-06
5.23298e-06
5.23284e-06
5.23269e-06
5.23253e-06
5.23236e-06
5.23218e-06
5.23199e-06
5.23179e-06
5.23158e-06
5.23136e-06
5.23112e-06
5.23086e-06
5.2306e-06
5.23031e-06
5.23001e-06
5.22968e-06
5.22934e-06
5.22897e-06
5.22859e-06
5.22817e-06
5.22773e-06
5.22726e-06
5.22676e-06
5.22622e-06
5.22565e-06
5.22504e-06
5.22439e-06
5.22369e-06
5.22295e-06
5.22215e-06
5.2213e-06
5.2204e-06
5.21943e-06
5.2184e-06
5.2173e-06
5.21613e-06
5.21489e-06
5.21359e-06
5.21223e-06
5.21084e-06
5.20944e-06
5.20812e-06
5.20715e-06
5.207e-06
5.20694e-06
0.00255532
0.0026077
0.00264123
0.00265678
0.00265518
0.00263717
0.00260345
0.00255464
0.00249128
0.0024138
0.00232255
0.00221773
0.00209945
0.0019676
0.00182193
0.00166193
0.00148674
0.00129531
0.00108625
0.000858303
0.000612301
0.000343305
0.000372774
5.23396e-06
5.23388e-06
5.23379e-06
5.23369e-06
5.23359e-06
5.23348e-06
5.23337e-06
5.23325e-06
5.23313e-06
5.23299e-06
5.23285e-06
5.2327e-06
5.23255e-06
5.23238e-06
5.2322e-06
5.23201e-06
5.23182e-06
5.2316e-06
5.23138e-06
5.23114e-06
5.23089e-06
5.23062e-06
5.23033e-06
5.23003e-06
5.22971e-06
5.22937e-06
5.229e-06
5.22861e-06
5.2282e-06
5.22775e-06
5.22728e-06
5.22678e-06
5.22624e-06
5.22567e-06
5.22506e-06
5.2244e-06
5.2237e-06
5.22296e-06
5.22216e-06
5.22131e-06
5.2204e-06
5.21942e-06
5.21838e-06
5.21727e-06
5.21609e-06
5.21484e-06
5.21352e-06
5.21214e-06
5.21072e-06
5.2093e-06
5.20797e-06
5.20711e-06
5.20711e-06
5.20704e-06
0.00237382
0.00245421
0.00251456
0.00255581
0.00257878
0.0025843
0.00257314
0.00254598
0.00250347
0.00244615
0.00237446
0.00228875
0.00218927
0.00207607
0.00194909
0.00180804
0.00165235
0.00148122
0.00129351
0.00108759
0.000862033
0.000616947
0.000347117
0.000378714
5.23406e-06
5.23398e-06
5.23389e-06
5.2338e-06
5.2337e-06
5.2336e-06
5.2335e-06
5.23339e-06
5.23327e-06
5.23314e-06
5.23301e-06
5.23287e-06
5.23272e-06
5.23257e-06
5.2324e-06
5.23222e-06
5.23204e-06
5.23184e-06
5.23163e-06
5.2314e-06
5.23116e-06
5.23091e-06
5.23064e-06
5.23036e-06
5.23006e-06
5.22973e-06
5.22939e-06
5.22903e-06
5.22864e-06
5.22822e-06
5.22778e-06
5.22731e-06
5.2268e-06
5.22627e-06
5.22569e-06
5.22508e-06
5.22442e-06
5.22372e-06
5.22297e-06
5.22217e-06
5.22131e-06
5.22039e-06
5.21941e-06
5.21836e-06
5.21724e-06
5.21605e-06
5.21478e-06
5.21345e-06
5.21205e-06
5.21061e-06
5.20916e-06
5.20782e-06
5.20712e-06
5.20726e-06
5.20715e-06
0.00215144
0.00226126
0.00234992
0.00241836
0.0024674
0.0024979
0.00251066
0.00250646
0.00248601
0.00244994
0.00239881
0.00233308
0.00225311
0.00215913
0.00205122
0.00192928
0.00179301
0.00164187
0.00147504
0.00129117
0.00108865
0.000865642
0.000621672
0.000351118
0.000384964
5.23415e-06
5.23407e-06
5.23399e-06
5.2339e-06
5.23381e-06
5.23372e-06
5.23362e-06
5.23351e-06
5.2334e-06
5.23328e-06
5.23316e-06
5.23303e-06
5.23289e-06
5.23274e-06
5.23258e-06
5.23242e-06
5.23224e-06
5.23206e-06
5.23186e-06
5.23165e-06
5.23143e-06
5.23119e-06
5.23094e-06
5.23067e-06
5.23038e-06
5.23008e-06
5.22976e-06
5.22942e-06
5.22905e-06
5.22866e-06
5.22825e-06
5.22781e-06
5.22733e-06
5.22683e-06
5.22629e-06
5.22572e-06
5.2251e-06
5.22444e-06
5.22374e-06
5.22298e-06
5.22218e-06
5.22132e-06
5.22039e-06
5.2194e-06
5.21834e-06
5.21721e-06
5.21601e-06
5.21472e-06
5.21337e-06
5.21195e-06
5.21048e-06
5.209e-06
5.20768e-06
5.20717e-06
5.20742e-06
5.20727e-06
0.0018865
0.00202694
0.00214527
0.00224232
0.00231886
0.00237578
0.00241391
0.00243403
0.00243694
0.00242334
0.00239387
0.00234911
0.00228951
0.00221546
0.00212718
0.00202474
0.00190804
0.00177678
0.00163043
0.001468
0.00128824
0.00108931
0.000869114
0.000626402
0.000355415
0.000391464
5.23423e-06
5.23416e-06
5.23408e-06
5.234e-06
5.23391e-06
5.23383e-06
5.23373e-06
5.23363e-06
5.23353e-06
5.23342e-06
5.2333e-06
5.23318e-06
5.23305e-06
5.23291e-06
5.23276e-06
5.2326e-06
5.23244e-06
5.23226e-06
5.23208e-06
5.23188e-06
5.23167e-06
5.23145e-06
5.23121e-06
5.23096e-06
5.2307e-06
5.23041e-06
5.23011e-06
5.22979e-06
5.22945e-06
5.22908e-06
5.22869e-06
5.22828e-06
5.22784e-06
5.22736e-06
5.22686e-06
5.22632e-06
5.22574e-06
5.22512e-06
5.22446e-06
5.22376e-06
5.223e-06
5.22219e-06
5.22132e-06
5.22039e-06
5.21939e-06
5.21833e-06
5.21718e-06
5.21596e-06
5.21467e-06
5.21329e-06
5.21185e-06
5.21035e-06
5.20884e-06
5.20756e-06
5.20725e-06
5.20761e-06
5.2074e-06
0.00157777
0.00174974
0.00189882
0.00202572
0.0021311
0.00221583
0.00228072
0.00232657
0.00235418
0.00236433
0.00235773
0.00233504
0.00229682
0.00224356
0.00217562
0.00209323
0.00199647
0.00188522
0.00175922
0.0016178
0.00146008
0.00128463
0.00108956
0.000872457
0.000631527
0.000360001
0.00039824
5.23431e-06
5.23424e-06
5.23417e-06
5.23409e-06
5.23401e-06
5.23393e-06
5.23384e-06
5.23375e-06
5.23365e-06
5.23354e-06
5.23343e-06
5.23332e-06
5.23319e-06
5.23306e-06
5.23293e-06
5.23278e-06
5.23262e-06
5.23246e-06
5.23229e-06
5.2321e-06
5.2319e-06
5.2317e-06
5.23147e-06
5.23124e-06
5.23099e-06
5.23072e-06
5.23044e-06
5.23014e-06
5.22982e-06
5.22947e-06
5.22911e-06
5.22872e-06
5.22831e-06
5.22786e-06
5.22739e-06
5.22689e-06
5.22635e-06
5.22577e-06
5.22515e-06
5.22448e-06
5.22378e-06
5.22302e-06
5.2222e-06
5.22133e-06
5.22039e-06
5.21939e-06
5.21831e-06
5.21716e-06
5.21592e-06
5.21461e-06
5.21321e-06
5.21174e-06
5.21022e-06
5.20867e-06
5.20747e-06
5.20738e-06
5.20782e-06
5.20754e-06
0.00122459
0.00142871
0.00160927
0.00176695
0.00190228
0.00201608
0.00210904
0.00218195
0.00223562
0.00227085
0.00228839
0.00228897
0.00227323
0.00224175
0.00219501
0.00213338
0.00205709
0.00196622
0.00186068
0.00174011
0.00160392
0.00145112
0.00128028
0.00108937
0.000875767
0.000636685
0.000364955
0.000405433
5.23438e-06
5.23432e-06
5.23425e-06
5.23418e-06
5.2341e-06
5.23402e-06
5.23394e-06
5.23385e-06
5.23376e-06
5.23366e-06
5.23356e-06
5.23345e-06
5.23333e-06
5.23321e-06
5.23308e-06
5.23295e-06
5.2328e-06
5.23265e-06
5.23248e-06
5.23231e-06
5.23212e-06
5.23193e-06
5.23172e-06
5.2315e-06
5.23126e-06
5.23101e-06
5.23075e-06
5.23047e-06
5.23017e-06
5.22985e-06
5.2295e-06
5.22914e-06
5.22875e-06
5.22834e-06
5.22789e-06
5.22742e-06
5.22691e-06
5.22637e-06
5.22579e-06
5.22517e-06
5.22451e-06
5.2238e-06
5.22303e-06
5.22221e-06
5.22134e-06
5.22039e-06
5.21938e-06
5.21829e-06
5.21713e-06
5.21588e-06
5.21455e-06
5.21313e-06
5.21164e-06
5.21007e-06
5.20851e-06
5.20741e-06
5.20753e-06
5.20805e-06
5.20771e-06
0.000824362
0.00106309
0.00127583
0.0014649
0.00163098
0.00177482
0.00189697
0.00199818
0.0020792
0.00214081
0.00218378
0.00220887
0.00221677
0.00220817
0.00218362
0.00214361
0.0020885
0.00201853
0.00193379
0.00183416
0.00171932
0.0015886
0.00144103
0.00127511
0.00108872
0.000878779
0.000641928
0.000370337
0.000413187
5.23445e-06
5.23439e-06
5.23433e-06
5.23426e-06
5.23419e-06
5.23411e-06
5.23404e-06
5.23395e-06
5.23387e-06
5.23377e-06
5.23368e-06
5.23358e-06
5.23347e-06
5.23335e-06
5.23323e-06
5.2331e-06
5.23297e-06
5.23282e-06
5.23267e-06
5.2325e-06
5.23233e-06
5.23215e-06
5.23195e-06
5.23175e-06
5.23153e-06
5.23129e-06
5.23104e-06
5.23078e-06
5.2305e-06
5.2302e-06
5.22988e-06
5.22953e-06
5.22917e-06
5.22878e-06
5.22837e-06
5.22793e-06
5.22745e-06
5.22695e-06
5.2264e-06
5.22582e-06
5.2252e-06
5.22453e-06
5.22382e-06
5.22305e-06
5.22223e-06
5.22135e-06
5.2204e-06
5.21937e-06
5.21828e-06
5.2171e-06
5.21584e-06
5.21449e-06
5.21305e-06
5.21153e-06
5.20993e-06
5.20835e-06
5.2074e-06
5.20772e-06
5.2083e-06
5.20788e-06
0.000387475
0.000648382
0.000897033
0.0011189
0.00131633
0.00149083
0.00164301
0.00177351
0.00188301
0.00197221
0.00204183
0.00209267
0.00212545
0.00214087
0.00213958
0.00212215
0.00208907
0.0020407
0.00197729
0.00189891
0.00180548
0.00169661
0.00157169
0.00142968
0.00126903
0.0010874
0.000881508
0.000647174
0.000376168
0.000421418
5.23452e-06
5.23446e-06
5.2344e-06
5.23434e-06
5.23427e-06
5.2342e-06
5.23413e-06
5.23405e-06
5.23397e-06
5.23388e-06
5.23379e-06
5.23369e-06
5.23359e-06
5.23348e-06
5.23337e-06
5.23325e-06
5.23312e-06
5.23299e-06
5.23284e-06
5.23269e-06
5.23253e-06
5.23235e-06
5.23217e-06
5.23198e-06
5.23177e-06
5.23155e-06
5.23132e-06
5.23107e-06
5.23081e-06
5.23052e-06
5.23023e-06
5.22991e-06
5.22957e-06
5.2292e-06
5.22882e-06
5.2284e-06
5.22796e-06
5.22748e-06
5.22698e-06
5.22643e-06
5.22585e-06
5.22523e-06
5.22456e-06
5.22384e-06
5.22307e-06
5.22225e-06
5.22136e-06
5.2204e-06
5.21937e-06
5.21826e-06
5.21707e-06
5.2158e-06
5.21443e-06
5.21297e-06
5.21141e-06
5.20977e-06
5.2082e-06
5.20743e-06
5.20793e-06
5.20857e-06
5.20808e-06
5.86997e-05
0.000235266
0.000472477
0.000725578
0.000957403
0.00116339
0.00134615
0.00150663
0.00164543
0.00176323
0.00186063
0.00193838
0.00199721
0.00203783
0.00206092
0.00206712
0.00205701
0.00203107
0.00198967
0.00193306
0.00186131
0.00177434
0.00167178
0.00155299
0.00141689
0.00126181
0.00108533
0.000883858
0.000652698
0.000382595
0.000430091
5.23458e-06
5.23452e-06
5.23447e-06
5.23441e-06
5.23435e-06
5.23428e-06
5.23421e-06
5.23414e-06
5.23406e-06
5.23398e-06
5.2339e-06
5.23381e-06
5.23371e-06
5.23361e-06
5.2335e-06
5.23339e-06
5.23327e-06
5.23314e-06
5.23301e-06
5.23286e-06
5.23271e-06
5.23255e-06
5.23238e-06
5.2322e-06
5.232e-06
5.2318e-06
5.23158e-06
5.23135e-06
5.2311e-06
5.23084e-06
5.23056e-06
5.23026e-06
5.22994e-06
5.2296e-06
5.22924e-06
5.22885e-06
5.22843e-06
5.22799e-06
5.22752e-06
5.22701e-06
5.22647e-06
5.22588e-06
5.22526e-06
5.22459e-06
5.22387e-06
5.22309e-06
5.22226e-06
5.22137e-06
5.22041e-06
5.21937e-06
5.21825e-06
5.21705e-06
5.21575e-06
5.21437e-06
5.21288e-06
5.2113e-06
5.20961e-06
5.20807e-06
5.2075e-06
5.20817e-06
5.20887e-06
5.2083e-06
6.60242e-08
4.7115e-06
0.000113409
0.000308293
0.000550317
0.000790391
0.00100568
0.00119672
0.00136539
0.00151247
0.00163852
0.00174418
0.00183011
0.00189703
0.00194561
0.00197652
0.00199041
0.00198782
0.00196923
0.00193504
0.00188548
0.00182066
0.00174047
0.00164454
0.00153224
0.0014024
0.00125332
0.00108241
0.00088598
0.000658472
0.000389725
0.00043947
5.23464e-06
5.23459e-06
5.23453e-06
5.23448e-06
5.23442e-06
5.23436e-06
5.23429e-06
5.23422e-06
5.23415e-06
5.23408e-06
5.234e-06
5.23391e-06
5.23382e-06
5.23373e-06
5.23363e-06
5.23352e-06
5.23341e-06
5.23329e-06