/*--------------------------------*- C++ -*----------------------------------*\
  =========                 |
  \\      /  F ield         | OpenFOAM: The Open Source CFD Toolbox
   \\    /   O peration     | Website:  https://openfoam.org
    \\  /    A nd           | Version:  7
     \\/     M anipulation  |
\*---------------------------------------------------------------------------*/
FoamFile
{
    version     2.0;
    format      ascii;
    class       volScalarField;
    location    "1600";
    object      nuTilda;
}
// * * * * * * * * * * * * * * * * * * * * * * * * * * * * * * * * * * * * * //

dimensions      [0 2 -1 0 0 0 0];

internalField   nonuniform List<scalar> 
23064
(
3.43222e-05
3.43246e-05
3.43222e-05
3.43269e-05
3.43246e-05
3.43222e-05
3.43291e-05
3.43269e-05
3.43246e-05
3.43222e-05
3.43312e-05
3.4329e-05
3.43268e-05
3.43246e-05
3.43222e-05
3.43333e-05
3.43312e-05
3.4329e-05
3.43268e-05
3.43245e-05
3.43222e-05
3.43352e-05
3.43332e-05
3.43311e-05
3.4329e-05
3.43268e-05
3.43245e-05
3.43222e-05
3.43372e-05
3.43352e-05
3.43332e-05
3.43311e-05
3.4329e-05
3.43268e-05
3.43245e-05
3.43222e-05
3.4339e-05
3.43371e-05
3.43352e-05
3.43332e-05
3.43311e-05
3.43289e-05
3.43267e-05
3.43245e-05
3.43222e-05
3.43408e-05
3.4339e-05
3.43371e-05
3.43352e-05
3.43331e-05
3.4331e-05
3.43289e-05
3.43267e-05
3.43245e-05
3.43222e-05
3.43425e-05
3.43408e-05
3.4339e-05
3.43371e-05
3.43351e-05
3.43331e-05
3.4331e-05
3.43289e-05
3.43267e-05
3.43245e-05
3.43222e-05
3.43441e-05
3.43425e-05
3.43407e-05
3.43389e-05
3.43371e-05
3.43351e-05
3.43331e-05
3.4331e-05
3.43288e-05
3.43267e-05
3.43244e-05
3.43222e-05
3.43456e-05
3.43441e-05
3.43424e-05
3.43407e-05
3.43389e-05
3.4337e-05
3.43351e-05
3.4333e-05
3.43309e-05
3.43288e-05
3.43266e-05
3.43244e-05
3.43222e-05
3.43471e-05
3.43456e-05
3.43441e-05
3.43424e-05
3.43407e-05
3.43389e-05
3.4337e-05
3.4335e-05
3.4333e-05
3.43309e-05
3.43288e-05
3.43266e-05
3.43244e-05
3.43222e-05
3.43485e-05
3.43471e-05
3.43456e-05
3.4344e-05
3.43424e-05
3.43407e-05
3.43388e-05
3.4337e-05
3.4335e-05
3.43329e-05
3.43309e-05
3.43287e-05
3.43266e-05
3.43244e-05
3.43222e-05
3.43499e-05
3.43485e-05
3.43471e-05
3.43456e-05
3.4344e-05
3.43424e-05
3.43406e-05
3.43388e-05
3.43369e-05
3.43349e-05
3.43329e-05
3.43308e-05
3.43287e-05
3.43265e-05
3.43243e-05
3.43221e-05
3.43512e-05
3.43499e-05
3.43485e-05
3.43471e-05
3.43456e-05
3.4344e-05
3.43424e-05
3.43406e-05
3.43388e-05
3.43369e-05
3.43349e-05
3.43329e-05
3.43308e-05
3.43286e-05
3.43265e-05
3.43243e-05
3.43221e-05
3.43524e-05
3.43512e-05
3.43499e-05
3.43485e-05
3.43471e-05
3.43456e-05
3.4344e-05
3.43423e-05
3.43406e-05
3.43388e-05
3.43368e-05
3.43349e-05
3.43328e-05
3.43307e-05
3.43286e-05
3.43264e-05
3.43243e-05
3.43221e-05
3.43536e-05
3.43524e-05
3.43512e-05
3.43499e-05
3.43485e-05
3.43471e-05
3.43456e-05
3.4344e-05
3.43423e-05
3.43406e-05
3.43387e-05
3.43368e-05
3.43348e-05
3.43328e-05
3.43307e-05
3.43285e-05
3.43264e-05
3.43243e-05
3.43221e-05
3.43547e-05
3.43536e-05
3.43524e-05
3.43512e-05
3.43499e-05
3.43485e-05
3.43471e-05
3.43456e-05
3.4344e-05
3.43423e-05
3.43405e-05
3.43387e-05
3.43368e-05
3.43348e-05
3.43327e-05
3.43306e-05
3.43285e-05
3.43263e-05
3.43242e-05
3.43221e-05
3.43557e-05
3.43547e-05
3.43536e-05
3.43524e-05
3.43512e-05
3.43499e-05
3.43485e-05
3.43471e-05
3.43455e-05
3.43439e-05
3.43423e-05
3.43405e-05
3.43386e-05
3.43367e-05
3.43347e-05
3.43327e-05
3.43306e-05
3.43284e-05
3.43263e-05
3.43242e-05
3.43221e-05
3.43567e-05
3.43557e-05
3.43547e-05
3.43536e-05
3.43524e-05
3.43512e-05
3.43499e-05
3.43485e-05
3.43471e-05
3.43455e-05
3.43439e-05
3.43422e-05
3.43405e-05
3.43386e-05
3.43367e-05
3.43347e-05
3.43326e-05
3.43305e-05
3.43284e-05
3.43263e-05
3.43242e-05
3.43221e-05
3.43577e-05
3.43567e-05
3.43557e-05
3.43547e-05
3.43536e-05
3.43524e-05
3.43512e-05
3.43499e-05
3.43485e-05
3.4347e-05
3.43455e-05
3.43439e-05
3.43422e-05
3.43404e-05
3.43386e-05
3.43366e-05
3.43346e-05
3.43326e-05
3.43304e-05
3.43283e-05
3.43262e-05
3.43241e-05
3.43221e-05
3.43586e-05
3.43577e-05
3.43568e-05
3.43558e-05
3.43547e-05
3.43536e-05
3.43524e-05
3.43512e-05
3.43499e-05
3.43485e-05
3.4347e-05
3.43455e-05
3.43439e-05
3.43422e-05
3.43404e-05
3.43385e-05
3.43366e-05
3.43346e-05
3.43325e-05
3.43304e-05
3.43282e-05
3.43261e-05
3.43241e-05
3.43221e-05
3.43594e-05
3.43586e-05
3.43577e-05
3.43568e-05
3.43558e-05
3.43547e-05
3.43536e-05
3.43524e-05
3.43512e-05
3.43499e-05
3.43485e-05
3.4347e-05
3.43455e-05
3.43439e-05
3.43421e-05
3.43404e-05
3.43385e-05
3.43365e-05
3.43345e-05
3.43324e-05
3.43303e-05
3.43282e-05
3.43261e-05
3.4324e-05
3.4322e-05
3.43603e-05
3.43595e-05
3.43586e-05
3.43577e-05
3.43568e-05
3.43558e-05
3.43547e-05
3.43536e-05
3.43524e-05
3.43512e-05
3.43499e-05
3.43485e-05
3.4347e-05
3.43455e-05
3.43438e-05
3.43421e-05
3.43403e-05
3.43384e-05
3.43365e-05
3.43345e-05
3.43324e-05
3.43302e-05
3.43281e-05
3.4326e-05
3.4324e-05
3.4322e-05
3.4361e-05
3.43603e-05
3.43595e-05
3.43586e-05
3.43577e-05
3.43568e-05
3.43558e-05
3.43548e-05
3.43536e-05
3.43525e-05
3.43512e-05
3.43499e-05
3.43485e-05
3.4347e-05
3.43455e-05
3.43438e-05
3.43421e-05
3.43403e-05
3.43384e-05
3.43364e-05
3.43344e-05
3.43323e-05
3.43302e-05
3.4328e-05
3.4326e-05
3.43239e-05
3.4322e-05
3.43618e-05
3.43611e-05
3.43603e-05
3.43595e-05
3.43587e-05
3.43578e-05
3.43568e-05
3.43558e-05
3.43548e-05
3.43536e-05
3.43525e-05
3.43512e-05
3.43499e-05
3.43485e-05
3.4347e-05
3.43454e-05
3.43438e-05
3.43421e-05
3.43402e-05
3.43383e-05
3.43364e-05
3.43343e-05
3.43322e-05
3.43301e-05
3.4328e-05
3.43259e-05
3.43239e-05
3.4322e-05
3.43625e-05
3.43618e-05
3.43611e-05
3.43603e-05
3.43595e-05
3.43587e-05
3.43578e-05
3.43568e-05
3.43558e-05
3.43548e-05
3.43537e-05
3.43525e-05
3.43512e-05
3.43499e-05
3.43485e-05
3.4347e-05
3.43454e-05
3.43438e-05
3.4342e-05
3.43402e-05
3.43383e-05
3.43363e-05
3.43343e-05
3.43321e-05
3.433e-05
3.43279e-05
3.43258e-05
3.43238e-05
3.4322e-05
3.43631e-05
3.43625e-05
3.43618e-05
3.43611e-05
3.43603e-05
3.43596e-05
3.43587e-05
3.43578e-05
3.43569e-05
3.43559e-05
3.43548e-05
3.43537e-05
3.43525e-05
3.43512e-05
3.43499e-05
3.43485e-05
3.4347e-05
3.43454e-05
3.43437e-05
3.4342e-05
3.43402e-05
3.43382e-05
3.43363e-05
3.43342e-05
3.43321e-05
3.43299e-05
3.43278e-05
3.43257e-05
3.43238e-05
3.43219e-05
3.43638e-05
3.43632e-05
3.43625e-05
3.43618e-05
3.43611e-05
3.43604e-05
3.43596e-05
3.43587e-05
3.43578e-05
3.43569e-05
3.43559e-05
3.43548e-05
3.43537e-05
3.43525e-05
3.43512e-05
3.43499e-05
3.43485e-05
3.4347e-05
3.43454e-05
3.43437e-05
3.4342e-05
3.43401e-05
3.43382e-05
3.43362e-05
3.43341e-05
3.4332e-05
3.43298e-05
3.43277e-05
3.43256e-05
3.43237e-05
3.43219e-05
0.000278334
3.43644e-05
3.43638e-05
3.43632e-05
3.43625e-05
3.43619e-05
3.43612e-05
3.43604e-05
3.43596e-05
3.43588e-05
3.43579e-05
3.43569e-05
3.43559e-05
3.43548e-05
3.43537e-05
3.43525e-05
3.43512e-05
3.43499e-05
3.43485e-05
3.43469e-05
3.43454e-05
3.43437e-05
3.43419e-05
3.43401e-05
3.43381e-05
3.43361e-05
3.4334e-05
3.43319e-05
3.43297e-05
3.43276e-05
3.43256e-05
3.43236e-05
3.43219e-05
0.000293318
0.000282121
3.43649e-05
3.43644e-05
3.43638e-05
3.43632e-05
3.43626e-05
3.43619e-05
3.43612e-05
3.43604e-05
3.43596e-05
3.43588e-05
3.43579e-05
3.43569e-05
3.43559e-05
3.43548e-05
3.43537e-05
3.43525e-05
3.43512e-05
3.43499e-05
3.43484e-05
3.43469e-05
3.43453e-05
3.43437e-05
3.43419e-05
3.434e-05
3.43381e-05
3.43361e-05
3.4334e-05
3.43318e-05
3.43297e-05
3.43275e-05
3.43255e-05
3.43236e-05
3.43219e-05
0.00053843
0.00029522
0.000285875
3.43655e-05
3.4365e-05
3.43644e-05
3.43638e-05
3.43632e-05
3.43626e-05
3.43619e-05
3.43612e-05
3.43605e-05
3.43596e-05
3.43588e-05
3.43579e-05
3.43569e-05
3.43559e-05
3.43549e-05
3.43537e-05
3.43525e-05
3.43512e-05
3.43499e-05
3.43484e-05
3.43469e-05
3.43453e-05
3.43436e-05
3.43418e-05
3.434e-05
3.4338e-05
3.4336e-05
3.43339e-05
3.43317e-05
3.43295e-05
3.43274e-05
3.43254e-05
3.43235e-05
3.43218e-05
0.000785576
0.000541648
0.000297159
0.000289694
3.4366e-05
3.43655e-05
3.4365e-05
3.43644e-05
3.43639e-05
3.43633e-05
3.43626e-05
3.4362e-05
3.43612e-05
3.43605e-05
3.43597e-05
3.43588e-05
3.43579e-05
3.4357e-05
3.43559e-05
3.43549e-05
3.43537e-05
3.43525e-05
3.43512e-05
3.43499e-05
3.43484e-05
3.43469e-05
3.43453e-05
3.43436e-05
3.43418e-05
3.43399e-05
3.4338e-05
3.43359e-05
3.43338e-05
3.43316e-05
3.43294e-05
3.43273e-05
3.43253e-05
3.43234e-05
3.43218e-05
0.00103639
0.00078934
0.00054492
0.000299065
0.000293532
3.43665e-05
3.4366e-05
3.43655e-05
3.4365e-05
3.43645e-05
3.43639e-05
3.43633e-05
3.43627e-05
3.4362e-05
3.43613e-05
3.43605e-05
3.43597e-05
3.43588e-05
3.43579e-05
3.4357e-05
3.4356e-05
3.43549e-05
3.43537e-05
3.43525e-05
3.43512e-05
3.43499e-05
3.43484e-05
3.43469e-05
3.43453e-05
3.43436e-05
3.43418e-05
3.43399e-05
3.43379e-05
3.43358e-05
3.43337e-05
3.43315e-05
3.43293e-05
3.43272e-05
3.43252e-05
3.43233e-05
3.43217e-05
0.00128153
0.00103982
0.000793108
0.000548111
0.000301081
0.000297367
3.43669e-05
3.43665e-05
3.4366e-05
3.43655e-05
3.4365e-05
3.43645e-05
3.43639e-05
3.43633e-05
3.43627e-05
3.4362e-05
3.43613e-05
3.43605e-05
3.43597e-05
3.43589e-05
3.4358e-05
3.4357e-05
3.4356e-05
3.43549e-05
3.43538e-05
3.43525e-05
3.43512e-05
3.43499e-05
3.43484e-05
3.43469e-05
3.43453e-05
3.43435e-05
3.43417e-05
3.43398e-05
3.43378e-05
3.43358e-05
3.43336e-05
3.43314e-05
3.43292e-05
3.43271e-05
3.4325e-05
3.43232e-05
3.43217e-05
0.00151546
0.00128378
0.00104322
0.000796912
0.000551522
0.000303115
0.000301272
3.43673e-05
3.43669e-05
3.43665e-05
3.43661e-05
3.43656e-05
3.43651e-05
3.43645e-05
3.4364e-05
3.43634e-05
3.43627e-05
3.4362e-05
3.43613e-05
3.43606e-05
3.43598e-05
3.43589e-05
3.4358e-05
3.4357e-05
3.4356e-05
3.43549e-05
3.43538e-05
3.43525e-05
3.43512e-05
3.43499e-05
3.43484e-05
3.43469e-05
3.43452e-05
3.43435e-05
3.43417e-05
3.43398e-05
3.43378e-05
3.43357e-05
3.43335e-05
3.43313e-05
3.43291e-05
3.43269e-05
3.43249e-05
3.43231e-05
3.43217e-05
0.00173535
0.00151581
0.00128592
0.00104658
0.000800791
0.00055477
0.000305177
0.000305181
3.43678e-05
3.43674e-05
3.4367e-05
3.43665e-05
3.43661e-05
3.43656e-05
3.43651e-05
3.43646e-05
3.4364e-05
3.43634e-05
3.43628e-05
3.43621e-05
3.43614e-05
3.43606e-05
3.43598e-05
3.43589e-05
3.4358e-05
3.43571e-05
3.4356e-05
3.43549e-05
3.43538e-05
3.43526e-05
3.43513e-05
3.43499e-05
3.43484e-05
3.43469e-05
3.43452e-05
3.43435e-05
3.43416e-05
3.43397e-05
3.43377e-05
3.43356e-05
3.43334e-05
3.43312e-05
3.4329e-05
3.43268e-05
3.43248e-05
3.4323e-05
3.43216e-05
0.00193976
0.00173321
0.00151596
0.00128794
0.00104994
0.000804519
0.000558221
0.000307304
0.000309182
3.43681e-05
3.43678e-05
3.43674e-05
3.4367e-05
3.43666e-05
3.43661e-05
3.43656e-05
3.43651e-05
3.43646e-05
3.4364e-05
3.43634e-05
3.43628e-05
3.43621e-05
3.43614e-05
3.43606e-05
3.43598e-05
3.4359e-05
3.4358e-05
3.43571e-05
3.43561e-05
3.4355e-05
3.43538e-05
3.43526e-05
3.43513e-05
3.43499e-05
3.43484e-05
3.43468e-05
3.43452e-05
3.43434e-05
3.43416e-05
3.43397e-05
3.43376e-05
3.43355e-05
3.43333e-05
3.43311e-05
3.43288e-05
3.43267e-05
3.43246e-05
3.43229e-05
3.43216e-05
0.00212778
0.00193464
0.00173079
0.0015159
0.00128986
0.00105316
0.000808369
0.000561644
0.000309359
0.0003132
3.43685e-05
3.43682e-05
3.43678e-05
3.43674e-05
3.4367e-05
3.43666e-05
3.43662e-05
3.43657e-05
3.43652e-05
3.43646e-05
3.43641e-05
3.43635e-05
3.43628e-05
3.43621e-05
3.43614e-05
3.43607e-05
3.43599e-05
3.4359e-05
3.43581e-05
3.43571e-05
3.43561e-05
3.4355e-05
3.43538e-05
3.43526e-05
3.43513e-05
3.43499e-05
3.43484e-05
3.43468e-05
3.43452e-05
3.43434e-05
3.43416e-05
3.43396e-05
3.43376e-05
3.43354e-05
3.43332e-05
3.43309e-05
3.43287e-05
3.43265e-05
3.43245e-05
3.43228e-05
3.43215e-05
0.00229861
0.00211924
0.00192915
0.00172808
0.00151565
0.00129156
0.00105636
0.00081218
0.000565077
0.000311631
0.000317258
3.43689e-05
3.43685e-05
3.43682e-05
3.43678e-05
3.43675e-05
3.43671e-05
3.43666e-05
3.43662e-05
3.43657e-05
3.43652e-05
3.43647e-05
3.43641e-05
3.43635e-05
3.43629e-05
3.43622e-05
3.43615e-05
3.43607e-05
3.43599e-05
3.4359e-05
3.43581e-05
3.43571e-05
3.43561e-05
3.4355e-05
3.43538e-05
3.43526e-05
3.43513e-05
3.43499e-05
3.43484e-05
3.43468e-05
3.43451e-05
3.43434e-05
3.43415e-05
3.43395e-05
3.43375e-05
3.43353e-05
3.43331e-05
3.43308e-05
3.43285e-05
3.43263e-05
3.43243e-05
3.43227e-05
3.43214e-05
0.0024514
0.0022862
0.00211023
0.00192328
0.00172505
0.00151509
0.00129316
0.00105944
0.000816045
0.000568753
0.000313865
0.000321425
3.43692e-05
3.43689e-05
3.43686e-05
3.43682e-05
3.43679e-05
3.43675e-05
3.43671e-05
3.43667e-05
3.43662e-05
3.43657e-05
3.43652e-05
3.43647e-05
3.43641e-05
3.43635e-05
3.43629e-05
3.43622e-05
3.43615e-05
3.43607e-05
3.43599e-05
3.43591e-05
3.43581e-05
3.43572e-05
3.43561e-05
3.4355e-05
3.43539e-05
3.43526e-05
3.43513e-05
3.43499e-05
3.43484e-05
3.43468e-05
3.43451e-05
3.43433e-05
3.43415e-05
3.43395e-05
3.43374e-05
3.43352e-05
3.4333e-05
3.43307e-05
3.43284e-05
3.43262e-05
3.43242e-05
3.43225e-05
3.43214e-05
0.00258517
0.00243467
0.0022732
0.00210073
0.00191698
0.00172164
0.00151432
0.00129452
0.0010625
0.000819989
0.000572251
0.000316203
0.000325667
3.43695e-05
3.43692e-05
3.43689e-05
3.43686e-05
3.43683e-05
3.43679e-05
3.43675e-05
3.43671e-05
3.43667e-05
3.43663e-05
3.43658e-05
3.43653e-05
3.43647e-05
3.43642e-05
3.43636e-05
3.43629e-05
3.43622e-05
3.43615e-05
3.43608e-05
3.43599e-05
3.43591e-05
3.43582e-05
3.43572e-05
3.43562e-05
3.4355e-05
3.43539e-05
3.43526e-05
3.43513e-05
3.43499e-05
3.43484e-05
3.43468e-05
3.43451e-05
3.43433e-05
3.43414e-05
3.43394e-05
3.43373e-05
3.43351e-05
3.43329e-05
3.43305e-05
3.43282e-05
3.4326e-05
3.4324e-05
3.43224e-05
3.43213e-05
0.0026988
0.00256366
0.00241723
0.0022596
0.00209066
0.0019102
0.00171792
0.00151321
0.00129577
0.0010655
0.000823773
0.000575941
0.000318628
0.000329942
3.43698e-05
3.43695e-05
3.43693e-05
3.4369e-05
3.43686e-05
3.43683e-05
3.43679e-05
3.43676e-05
3.43672e-05
3.43667e-05
3.43663e-05
3.43658e-05
3.43653e-05
3.43648e-05
3.43642e-05
3.43636e-05
3.4363e-05
3.43623e-05
3.43616e-05
3.43608e-05
3.436e-05
3.43591e-05
3.43582e-05
3.43572e-05
3.43562e-05
3.43551e-05
3.43539e-05
3.43526e-05
3.43513e-05
3.43499e-05
3.43484e-05
3.43468e-05
3.43451e-05
3.43433e-05
3.43414e-05
3.43394e-05
3.43372e-05
3.4335e-05
3.43327e-05
3.43304e-05
3.4328e-05
3.43258e-05
3.43238e-05
3.43222e-05
3.43212e-05
0.00279101
0.002672
0.00254128
0.00239904
0.00224532
0.00208002
0.00190299
0.00171373
0.00151189
0.00129682
0.00106832
0.000827696
0.000579727
0.000321137
0.000334367
3.43701e-05
3.43698e-05
3.43696e-05
3.43693e-05
3.4369e-05
3.43687e-05
3.43683e-05
3.4368e-05
3.43676e-05
3.43672e-05
3.43668e-05
3.43663e-05
3.43658e-05
3.43653e-05
3.43648e-05
3.43642e-05
3.43636e-05
3.4363e-05
3.43623e-05
3.43616e-05
3.43608e-05
3.436e-05
3.43592e-05
3.43582e-05
3.43573e-05
3.43562e-05
3.43551e-05
3.43539e-05
3.43527e-05
3.43513e-05
3.43499e-05
3.43484e-05
3.43468e-05
3.43451e-05
3.43432e-05
3.43413e-05
3.43393e-05
3.43371e-05
3.43349e-05
3.43326e-05
3.43302e-05
3.43279e-05
3.43256e-05
3.43236e-05
3.4322e-05
3.43211e-05
0.00286037
0.00275839
0.00264417
0.00251799
0.00238002
0.0022303
0.0020688
0.00189518
0.0017092
0.00151021
0.00129761
0.00107112
0.000831617
0.000583544
0.000323701
0.000338925
3.43704e-05
3.43701e-05
3.43699e-05
3.43696e-05
3.43693e-05
3.4369e-05
3.43687e-05
3.43684e-05
3.4368e-05
3.43676e-05
3.43672e-05
3.43668e-05
3.43664e-05
3.43659e-05
3.43654e-05
3.43648e-05
3.43643e-05
3.43637e-05
3.4363e-05
3.43624e-05
3.43616e-05
3.43609e-05
3.43601e-05
3.43592e-05
3.43583e-05
3.43573e-05
3.43562e-05
3.43551e-05
3.43539e-05
3.43527e-05
3.43513e-05
3.43499e-05
3.43484e-05
3.43468e-05
3.4345e-05
3.43432e-05
3.43413e-05
3.43392e-05
3.43371e-05
3.43348e-05
3.43325e-05
3.43301e-05
3.43277e-05
3.43254e-05
3.43234e-05
3.43218e-05
3.43211e-05
0.00290531
0.00282139
0.00272459
0.00261527
0.00249373
0.00236012
0.00221454
0.00205683
0.00188686
0.00170418
0.00150816
0.00129823
0.00107379
0.000835471
0.000587352
0.000326367
0.000343498
3.43706e-05
3.43704e-05
3.43701e-05
3.43699e-05
3.43696e-05
3.43693e-05
3.4369e-05
3.43687e-05
3.43684e-05
3.4368e-05
3.43677e-05
3.43673e-05
3.43668e-05
3.43664e-05
3.43659e-05
3.43654e-05
3.43649e-05
3.43643e-05
3.43637e-05
3.43631e-05
3.43624e-05
3.43617e-05
3.43609e-05
3.43601e-05
3.43592e-05
3.43583e-05
3.43573e-05
3.43563e-05
3.43552e-05
3.4354e-05
3.43527e-05
3.43513e-05
3.43499e-05
3.43484e-05
3.43467e-05
3.4345e-05
3.43432e-05
3.43412e-05
3.43391e-05
3.4337e-05
3.43347e-05
3.43323e-05
3.43299e-05
3.43275e-05
3.43252e-05
3.43232e-05
3.43217e-05
3.43211e-05
0.00292409
0.00285939
0.00278105
0.00268952
0.00258521
0.00246839
0.00233928
0.00219788
0.00204419
0.00187792
0.00169864
0.00150578
0.00129856
0.0010763
0.000839351
0.000591529
0.000329159
0.000348207
3.43709e-05
3.43706e-05
3.43704e-05
3.43702e-05
3.43699e-05
3.43697e-05
3.43694e-05
3.43691e-05
3.43688e-05
3.43684e-05
3.43681e-05
3.43677e-05
3.43673e-05
3.43669e-05
3.43664e-05
3.4366e-05
3.43655e-05
3.43649e-05
3.43644e-05
3.43638e-05
3.43631e-05
3.43624e-05
3.43617e-05
3.4361e-05
3.43601e-05
3.43593e-05
3.43583e-05
3.43574e-05
3.43563e-05
3.43552e-05
3.4354e-05
3.43527e-05
3.43514e-05
3.43499e-05
3.43484e-05
3.43467e-05
3.4345e-05
3.43431e-05
3.43412e-05
3.43391e-05
3.43369e-05
3.43346e-05
3.43322e-05
3.43297e-05
3.43273e-05
3.4325e-05
3.43229e-05
3.43216e-05
3.43212e-05
0.00291482
0.00287063
0.0028119
0.00273922
0.00265308
0.00255387
0.00244193
0.00231738
0.00218036
0.00203074
0.00186829
0.00169259
0.00150298
0.0012986
0.0010787
0.00084337
0.000595605
0.000332056
0.000353103
3.43711e-05
3.43709e-05
3.43707e-05
3.43704e-05
3.43702e-05
3.43699e-05
3.43697e-05
3.43694e-05
3.43691e-05
3.43688e-05
3.43685e-05
3.43681e-05
3.43677e-05
3.43673e-05
3.43669e-05
3.43665e-05
3.4366e-05
3.43655e-05
3.4365e-05
3.43644e-05
3.43638e-05
3.43632e-05
3.43625e-05
3.43618e-05
3.4361e-05
3.43602e-05
3.43593e-05
3.43584e-05
3.43574e-05
3.43563e-05
3.43552e-05
3.4354e-05
3.43527e-05
3.43514e-05
3.43499e-05
3.43484e-05
3.43467e-05
3.4345e-05
3.43431e-05
3.43411e-05
3.4339e-05
3.43368e-05
3.43344e-05
3.4332e-05
3.43295e-05
3.43271e-05
3.43247e-05
3.43227e-05
3.43215e-05
3.43213e-05
0.00287549
0.00285317
0.00281535
0.00276269
0.0026958
0.00261516
0.0025212
0.00241421
0.00229441
0.00216185
0.00201643
0.00185795
0.00168595
0.0014997
0.00129838
0.00108101
0.000847208
0.000599675
0.000335105
0.000358156
3.43713e-05
3.43711e-05
3.43709e-05
3.43707e-05
3.43705e-05
3.43702e-05
3.437e-05
3.43697e-05
3.43694e-05
3.43691e-05
3.43688e-05
3.43685e-05
3.43681e-05
3.43678e-05
3.43674e-05
3.4367e-05
3.43665e-05
3.4366e-05
3.43655e-05
3.4365e-05
3.43644e-05
3.43638e-05
3.43632e-05
3.43625e-05
3.43618e-05
3.4361e-05
3.43602e-05
3.43593e-05
3.43584e-05
3.43574e-05
3.43564e-05
3.43552e-05
3.4354e-05
3.43528e-05
3.43514e-05
3.43499e-05
3.43484e-05
3.43467e-05
3.43449e-05
3.43431e-05
3.43411e-05
3.43389e-05
3.43367e-05
3.43343e-05
3.43319e-05
3.43293e-05
3.43268e-05
3.43245e-05
3.43225e-05
3.43216e-05
3.43214e-05
0.00280395
0.00280498
0.00278945
0.00275812
0.00271165
0.00265066
0.00257565
0.00248704
0.00238517
0.00227022
0.00214225
0.00200121
0.00184685
0.00167866
0.00149599
0.00129784
0.00108302
0.000850993
0.000603994
0.000338294
0.000363384
3.43715e-05
3.43713e-05
3.43711e-05
3.43709e-05
3.43707e-05
3.43705e-05
3.43703e-05
3.437e-05
3.43697e-05
3.43695e-05
3.43692e-05
3.43689e-05
3.43685e-05
3.43682e-05
3.43678e-05
3.43674e-05
3.4367e-05
3.43666e-05
3.43661e-05
3.43656e-05
3.4365e-05
3.43645e-05
3.43639e-05
3.43632e-05
3.43626e-05
3.43618e-05
3.43611e-05
3.43603e-05
3.43594e-05
3.43585e-05
3.43575e-05
3.43564e-05
3.43553e-05
3.43541e-05
3.43528e-05
3.43514e-05
3.43499e-05
3.43484e-05
3.43467e-05
3.43449e-05
3.4343e-05
3.4341e-05
3.43389e-05
3.43366e-05
3.43342e-05
3.43317e-05
3.43292e-05
3.43266e-05
3.43242e-05
3.43222e-05
3.43216e-05
3.43215e-05
0.00269799
0.00272391
0.00273214
0.00272352
0.00269879
0.00265863
0.00260367
0.00253442
0.00245131
0.00235467
0.0022447
0.0021215
0.00198499
0.00183487
0.00167071
0.00149174
0.00129684
0.00108481
0.000854842
0.000608393
0.000341651
0.000368802
3.43717e-05
3.43715e-05
3.43713e-05
3.43712e-05
3.4371e-05
3.43707e-05
3.43705e-05
3.43703e-05
3.437e-05
3.43698e-05
3.43695e-05
3.43692e-05
3.43689e-05
3.43686e-05
3.43682e-05
3.43678e-05
3.43675e-05
3.4367e-05
3.43666e-05
3.43661e-05
3.43656e-05
3.43651e-05
3.43645e-05
3.43639e-05
3.43633e-05
3.43626e-05
3.43619e-05
3.43611e-05
3.43603e-05
3.43594e-05
3.43585e-05
3.43575e-05
3.43564e-05
3.43553e-05
3.43541e-05
3.43528e-05
3.43514e-05
3.435e-05
3.43484e-05
3.43467e-05
3.43449e-05
3.4343e-05
3.43409e-05
3.43388e-05
3.43365e-05
3.43341e-05
3.43315e-05
3.43289e-05
3.43264e-05
3.43239e-05
3.43221e-05
3.43218e-05
3.43217e-05
0.00255535
0.00260774
0.00264126
0.00265682
0.00265521
0.0026372
0.00260348
0.00255467
0.00249132
0.00241384
0.00232259
0.00221777
0.0020995
0.00196766
0.001822
0.00166201
0.00148684
0.00129544
0.00108644
0.00085861
0.000612902
0.000345192
0.00037438
3.43719e-05
3.43717e-05
3.43715e-05
3.43714e-05
3.43712e-05
3.4371e-05
3.43708e-05
3.43705e-05
3.43703e-05
3.43701e-05
3.43698e-05
3.43695e-05
3.43692e-05
3.43689e-05
3.43686e-05
3.43683e-05
3.43679e-05
3.43675e-05
3.43671e-05
3.43666e-05
3.43662e-05
3.43657e-05
3.43651e-05
3.43646e-05
3.4364e-05
3.43633e-05
3.43627e-05
3.43619e-05
3.43612e-05
3.43604e-05
3.43595e-05
3.43585e-05
3.43576e-05
3.43565e-05
3.43554e-05
3.43541e-05
3.43528e-05
3.43515e-05
3.435e-05
3.43484e-05
3.43467e-05
3.43449e-05
3.4343e-05
3.43409e-05
3.43387e-05
3.43364e-05
3.43339e-05
3.43314e-05
3.43287e-05
3.43261e-05
3.43236e-05
3.4322e-05
3.4322e-05
3.43219e-05
0.00237386
0.00245424
0.0025146
0.00255584
0.00257881
0.00258434
0.00257317
0.00254602
0.0025035
0.00244618
0.0023745
0.0022888
0.00218932
0.00207612
0.00194915
0.00180811
0.00165243
0.00148132
0.00129365
0.00108779
0.000862337
0.000617539
0.000348963
0.000380271
3.4372e-05
3.43719e-05
3.43717e-05
3.43716e-05
3.43714e-05
3.43712e-05
3.4371e-05
3.43708e-05
3.43706e-05
3.43703e-05
3.43701e-05
3.43698e-05
3.43696e-05
3.43693e-05
3.4369e-05
3.43686e-05
3.43683e-05
3.43679e-05
3.43675e-05
3.43671e-05
3.43667e-05
3.43662e-05
3.43657e-05
3.43652e-05
3.43646e-05
3.4364e-05
3.43634e-05
3.43627e-05
3.4362e-05
3.43612e-05
3.43604e-05
3.43595e-05
3.43586e-05
3.43576e-05
3.43565e-05
3.43554e-05
3.43542e-05
3.43529e-05
3.43515e-05
3.435e-05
3.43484e-05
3.43467e-05
3.43449e-05
3.43429e-05
3.43408e-05
3.43386e-05
3.43363e-05
3.43338e-05
3.43312e-05
3.43285e-05
3.43258e-05
3.43233e-05
3.4322e-05
3.43223e-05
3.43221e-05
0.00215149
0.0022613
0.00234996
0.0024184
0.00246743
0.00249793
0.0025107
0.0025065
0.00248605
0.00244998
0.00239885
0.00233313
0.00225315
0.00215918
0.00205127
0.00192934
0.00179308
0.00164195
0.00147514
0.0012913
0.00108884
0.000865944
0.000622255
0.000352924
0.000386472
3.43722e-05
3.43721e-05
3.43719e-05
3.43718e-05
3.43716e-05
3.43714e-05
3.43712e-05
3.4371e-05
3.43708e-05
3.43706e-05
3.43704e-05
3.43701e-05
3.43699e-05
3.43696e-05
3.43693e-05
3.4369e-05
3.43687e-05
3.43683e-05
3.4368e-05
3.43676e-05
3.43672e-05
3.43667e-05
3.43663e-05
3.43658e-05
3.43652e-05
3.43647e-05
3.43641e-05
3.43634e-05
3.43628e-05
3.4362e-05
3.43613e-05
3.43605e-05
3.43596e-05
3.43586e-05
3.43576e-05
3.43566e-05
3.43554e-05
3.43542e-05
3.43529e-05
3.43515e-05
3.435e-05
3.43484e-05
3.43467e-05
3.43449e-05
3.43429e-05
3.43408e-05
3.43385e-05
3.43362e-05
3.43336e-05
3.4331e-05
3.43283e-05
3.43255e-05
3.43231e-05
3.43221e-05
3.43226e-05
3.43223e-05
0.00188656
0.00202699
0.00214532
0.00224236
0.0023189
0.00237582
0.00241394
0.00243407
0.00243698
0.00242337
0.00239391
0.00234915
0.00228956
0.0022155
0.00212723
0.00202479
0.0019081
0.00177685
0.00163052
0.00146811
0.00128838
0.0010895
0.000869413
0.000626976
0.000357178
0.000392923
3.43724e-05
3.43722e-05
3.43721e-05
3.43719e-05
3.43718e-05
3.43716e-05
3.43714e-05
3.43713e-05
3.43711e-05
3.43709e-05
3.43706e-05
3.43704e-05
3.43702e-05
3.43699e-05
3.43696e-05
3.43693e-05
3.4369e-05
3.43687e-05
3.43684e-05
3.4368e-05
3.43676e-05
3.43672e-05
3.43668e-05
3.43663e-05
3.43658e-05
3.43653e-05
3.43647e-05
3.43641e-05
3.43635e-05
3.43628e-05
3.43621e-05
3.43613e-05
3.43605e-05
3.43596e-05
3.43587e-05
3.43577e-05
3.43566e-05
3.43555e-05
3.43542e-05
3.43529e-05
3.43515e-05
3.435e-05
3.43484e-05
3.43467e-05
3.43448e-05
3.43429e-05
3.43407e-05
3.43385e-05
3.43361e-05
3.43335e-05
3.43308e-05
3.4328e-05
3.43252e-05
3.43229e-05
3.43223e-05
3.43229e-05
3.43225e-05
0.00157787
0.00174982
0.00189888
0.00202578
0.00213115
0.00221588
0.00228076
0.00232661
0.00235422
0.00236437
0.00235777
0.00233508
0.00229687
0.00224361
0.00217567
0.00209328
0.00199652
0.00188529
0.0017593
0.00161789
0.00146019
0.00128477
0.00108975
0.000872754
0.000632092
0.000361721
0.000399651
3.43725e-05
3.43724e-05
3.43722e-05
3.43721e-05
3.4372e-05
3.43718e-05
3.43716e-05
3.43715e-05
3.43713e-05
3.43711e-05
3.43709e-05
3.43707e-05
3.43704e-05
3.43702e-05
3.43699e-05
3.43697e-05
3.43694e-05
3.43691e-05
3.43688e-05
3.43684e-05
3.43681e-05
3.43677e-05
3.43673e-05
3.43668e-05
3.43664e-05
3.43659e-05
3.43653e-05
3.43648e-05
3.43642e-05
3.43635e-05
3.43629e-05
3.43621e-05
3.43614e-05
3.43606e-05
3.43597e-05
3.43587e-05
3.43577e-05
3.43567e-05
3.43555e-05
3.43543e-05
3.4353e-05
3.43516e-05
3.435e-05
3.43484e-05
3.43467e-05
3.43448e-05
3.43428e-05
3.43407e-05
3.43384e-05
3.43359e-05
3.43334e-05
3.43306e-05
3.43278e-05
3.43249e-05
3.43227e-05
3.43225e-05
3.43233e-05
3.43228e-05
0.00122474
0.00142882
0.00160936
0.00176702
0.00190235
0.00201613
0.00210909
0.002182
0.00223567
0.0022709
0.00228843
0.00228901
0.00227327
0.00224179
0.00219505
0.00213343
0.00205714
0.00196627
0.00186075
0.00174018
0.00160401
0.00145123
0.00128042
0.00108956
0.000876062
0.000637241
0.000366629
0.000406794
3.43726e-05
3.43725e-05
3.43724e-05
3.43723e-05
3.43721e-05
3.4372e-05
3.43718e-05
3.43717e-05
3.43715e-05
3.43713e-05
3.43711e-05
3.43709e-05
3.43707e-05
3.43705e-05
3.43702e-05
3.437e-05
3.43697e-05
3.43694e-05
3.43691e-05
3.43688e-05
3.43685e-05
3.43681e-05
3.43677e-05
3.43673e-05
3.43669e-05
3.43664e-05
3.43659e-05
3.43654e-05
3.43648e-05
3.43642e-05
3.43636e-05
3.43629e-05
3.43622e-05
3.43614e-05
3.43606e-05
3.43597e-05
3.43588e-05
3.43578e-05
3.43567e-05
3.43556e-05
3.43543e-05
3.4353e-05
3.43516e-05
3.43501e-05
3.43484e-05
3.43467e-05
3.43448e-05
3.43428e-05
3.43406e-05
3.43383e-05
3.43358e-05
3.43332e-05
3.43304e-05
3.43275e-05
3.43246e-05
3.43226e-05
3.43228e-05
3.43238e-05
3.43231e-05
0.000824693
0.00106329
0.00127597
0.00146501
0.00163107
0.00177489
0.00189704
0.00199824
0.00207926
0.00214086
0.00218382
0.00220891
0.00221682
0.00220822
0.00218367
0.00214365
0.00208855
0.00201859
0.00193385
0.00183423
0.00171939
0.00158869
0.00144114
0.00127525
0.00108891
0.000879072
0.000642475
0.000371964
0.000414499
3.43728e-05
3.43727e-05
3.43725e-05
3.43724e-05
3.43723e-05
3.43721e-05
3.4372e-05
3.43718e-05
3.43717e-05
3.43715e-05
3.43713e-05
3.43711e-05
3.43709e-05
3.43707e-05
3.43705e-05
3.43703e-05
3.437e-05
3.43697e-05
3.43695e-05
3.43692e-05
3.43688e-05
3.43685e-05
3.43681e-05
3.43678e-05
3.43673e-05
3.43669e-05
3.43665e-05
3.4366e-05
3.43654e-05
3.43649e-05
3.43643e-05
3.43637e-05
3.4363e-05
3.43623e-05
3.43615e-05
3.43607e-05
3.43598e-05
3.43589e-05
3.43578e-05
3.43568e-05
3.43556e-05
3.43544e-05
3.43531e-05
3.43516e-05
3.43501e-05
3.43485e-05
3.43467e-05
3.43448e-05
3.43428e-05
3.43406e-05
3.43382e-05
3.43357e-05
3.43331e-05
3.43302e-05
3.43272e-05
3.43243e-05
3.43225e-05
3.43231e-05
3.43242e-05
3.43235e-05
0.000388958
0.000648917
0.000897313
0.00111908
0.00131646
0.00149093
0.0016431
0.00177359
0.00188307
0.00197227
0.00204188
0.00209272
0.0021255
0.00214092
0.00213963
0.0021222
0.00208912
0.00204075
0.00197735
0.00189898
0.00180554
0.00169669
0.00157178
0.00142979
0.00126917
0.00108759
0.000881799
0.000647712
0.000377745
0.000422679
3.43729e-05
3.43728e-05
3.43727e-05
3.43726e-05
3.43724e-05
3.43723e-05
3.43722e-05
3.4372e-05
3.43719e-05
3.43717e-05
3.43715e-05
3.43714e-05
3.43712e-05
3.4371e-05
3.43708e-05
3.43705e-05
3.43703e-05
3.43701e-05
3.43698e-05
3.43695e-05
3.43692e-05
3.43689e-05
3.43685e-05
3.43682e-05
3.43678e-05
3.43674e-05
3.4367e-05
3.43665e-05
3.4366e-05
3.43655e-05
3.43649e-05
3.43643e-05
3.43637e-05
3.4363e-05
3.43623e-05
3.43616e-05
3.43607e-05
3.43599e-05
3.43589e-05
3.43579e-05
3.43568e-05
3.43557e-05
3.43544e-05
3.43531e-05
3.43517e-05
3.43501e-05
3.43485e-05
3.43467e-05
3.43448e-05
3.43427e-05
3.43405e-05
3.43382e-05
3.43356e-05
3.43329e-05
3.433e-05
3.4327e-05
3.4324e-05
3.43226e-05
3.43235e-05
3.43247e-05
3.43238e-05
8.23163e-05
0.000239137
0.00047348
0.000726006
0.000957649
0.00116356
0.00134628
0.00150673
0.00164551
0.0017633
0.00186069
0.00193844
0.00199726
0.00203788
0.00206097
0.00206717
0.00205706
0.00203113
0.00198973
0.00193312
0.00186138
0.00177441
0.00167186
0.00155308
0.001417
0.00126196
0.00108552
0.000884147
0.000653227
0.000384121
0.000431303
3.4373e-05
3.43729e-05
3.43728e-05
3.43727e-05
3.43726e-05
3.43725e-05
3.43723e-05
3.43722e-05
3.43721e-05
3.43719e-05
3.43717e-05
3.43716e-05
3.43714e-05
3.43712e-05
3.4371e-05
3.43708e-05
3.43706e-05
3.43703e-05
3.43701e-05
3.43698e-05
3.43695e-05
3.43692e-05
3.43689e-05
3.43686e-05
3.43682e-05
3.43679e-05
3.43674e-05
3.4367e-05
3.43666e-05
3.43661e-05
3.43655e-05
3.4365e-05
3.43644e-05
3.43638e-05
3.43631e-05
3.43624e-05
3.43616e-05
3.43608e-05
3.43599e-05
3.4359e-05
3.4358e-05
3.43569e-05
3.43557e-05
3.43545e-05
3.43531e-05
3.43517e-05
3.43502e-05
3.43485e-05
3.43467e-05
3.43448e-05
3.43427e-05
3.43405e-05
3.43381e-05
3.43355e-05
3.43327e-05
3.43298e-05
3.43267e-05
3.43238e-05
3.43227e-05
3.4324e-05
3.43253e-05
3.43242e-05
1.10726e-05
3.33088e-05
0.000126115
0.00031061
0.000551059
0.000790752
0.00100591
0.00119688
0.00136551
0.00151257
0.0016386
0.00174425
0.00183018
0.0018971
0.00194567
0.00197658
0.00199046
0.00198788
0.00196929
0.0019351
0.00188555
0.00182073
0.00174054
0.00164463
0.00153234
0.00140251
0.00125346
0.0010826
0.000886268
0.000658992
0.000391197
0.000440632
3.43731e-05
3.4373e-05
3.43729e-05
3.43728e-05
3.43727e-05
3.43726e-05
3.43725e-05
3.43724e-05
3.43722e-05
3.43721e-05
3.43719e-05
3.43718e-05
3.43716e-05
3.43714e-05
3.43712e-05
3.4371e-05
3.43708e-05