/*--------------------------------*- C++ -*----------------------------------*\
  =========                 |
  \\      /  F ield         | OpenFOAM: The Open Source CFD Toolbox
   \\    /   O peration     | Website:  https://openfoam.org
    \\  /    A nd           | Version:  7
     \\/     M anipulation  |
\*---------------------------------------------------------------------------*/
FoamFile
{
    version     2.0;
    format      ascii;
    class       volScalarField;
    location    "1600";
    object      p;
}
// * * * * * * * * * * * * * * * * * * * * * * * * * * * * * * * * * * * * * //

dimensions      [0 2 -2 0 0 0 0];

internalField   nonuniform List<scalar> 
23064
(
-7.15871
-7.1906
-7.46396
-7.19291
-7.49028
-7.76834
-7.41689
-7.48692
-7.78824
-8.07197
-7.70208
-7.72153
-7.77883
-8.08432
-8.37479
-8.0129
-8.01694
-8.02454
-8.06857
-8.37834
-8.67662
-8.37933
-8.33709
-8.33035
-8.32589
-8.35589
-8.67011
-8.97722
-8.80307
-8.71478
-8.65979
-8.64221
-8.62528
-8.64067
-8.95941
-9.27642
-9.27708
-9.15133
-9.04888
-8.98103
-8.95226
-8.92267
-8.92278
-9.24612
-9.57443
-9.80036
-9.63911
-9.49839
-9.38165
-9.30059
-9.2605
-9.21793
-9.202
-9.53
-9.8709
-10.3733
-10.1774
-10
-9.84412
-9.71284
-9.61835
-9.56664
-9.51077
-9.47818
-9.81088
-10.1657
-10.9954
-10.7666
-10.5534
-10.3598
-10.1884
-10.0423
-9.93406
-9.87049
-9.80123
-9.75112
-10.0884
-10.4588
-11.666
-11.406
-11.1589
-10.9282
-10.7181
-10.5311
-10.3699
-10.2477
-10.172
-10.0889
-10.0206
-10.3626
-10.7498
-12.3852
-12.0952
-11.8158
-11.5501
-11.3019
-11.075
-10.8721
-10.6956
-10.559
-10.4711
-10.3739
-10.2865
-10.633
-11.0391
-13.153
-12.8342
-12.5236
-12.2245
-11.9401
-11.674
-11.4302
-11.2112
-11.0192
-10.8679
-10.7673
-10.6558
-10.5486
-10.8995
-11.3259
-13.9699
-13.6231
-13.2824
-12.951
-12.6321
-12.3288
-12.0446
-11.7836
-11.5483
-11.3403
-11.174
-11.0606
-10.9346
-10.8068
-11.1618
-11.6104
-14.8363
-14.4622
-14.0924
-13.7297
-13.3774
-13.0384
-12.7159
-12.4135
-12.1351
-11.8831
-11.6591
-11.4773
-11.3509
-11.2101
-11.0607
-11.4196
-11.8924
-15.7528
-15.352
-14.9537
-14.5607
-14.1759
-13.8025
-13.4432
-13.1014
-12.7805
-12.4845
-12.2156
-11.9751
-11.7777
-11.6379
-11.4821
-11.3103
-11.6729
-12.1717
-16.7204
-16.2933
-15.8671
-15.4444
-15.028
-14.6209
-14.2261
-13.8464
-13.4851
-13.1454
-12.8315
-12.5454
-12.2883
-12.0749
-11.9215
-11.7503
-11.5554
-11.9211
-12.4482
-17.7401
-17.287
-16.8331
-16.3812
-15.9339
-15.4941
-15.0645
-14.6481
-14.2478
-13.8668
-13.5082
-13.1761
-12.8727
-12.5985
-12.3688
-12.2013
-12.0146
-11.7956
-12.1642
-12.7217
-18.813
-18.3342
-17.8529
-17.372
-16.8943
-16.4222
-15.9587
-15.5065
-15.0684
-14.6473
-14.2463
-13.8685
-13.5181
-13.1971
-12.9056
-12.6592
-12.4774
-12.2749
-12.0308
-12.4018
-12.9918
-19.9406
-19.436
-18.9275
-18.4179
-17.9098
-17.4061
-16.9092
-16.4218
-15.9467
-15.4867
-15.0446
-14.6235
-14.2263
-13.8573
-13.5183
-13.2094
-12.9458
-12.7495
-12.531
-12.2609
-12.6336
-13.2582
-21.1243
-20.5938
-20.0581
-19.5199
-18.9817
-18.4464
-17.9164
-17.3944
-16.883
-16.3849
-15.9029
-15.4397
-14.9981
-14.5814
-14.1935
-13.8365
-13.5096
-13.2286
-13.0174
-12.7826
-12.4857
-12.8594
-13.5213
-22.3656
-21.8093
-21.2462
-20.6793
-20.111
-19.5442
-18.9814
-18.4251
-17.8779
-17.3424
-16.8211
-16.3168
-15.8322
-15.3702
-14.9336
-14.5265
-14.1511
-13.8062
-13.5072
-13.2807
-13.0295
-12.7049
-13.0789
-13.7805
-23.6664
-23.0839
-22.4934
-21.8975
-21.2992
-20.7009
-20.1052
-19.5148
-18.932
-18.3594
-17.7996
-17.255
-16.7283
-16.2222
-15.7393
-15.2827
-14.8563
-14.4622
-14.0987
-13.7816
-13.5394
-13.2716
-12.9181
-13.2917
-14.0357
-25.0284
-24.4197
-23.8014
-23.1764
-22.5476
-21.9177
-21.2891
-20.6645
-20.0463
-19.4369
-18.8388
-18.2545
-17.6864
-17.1371
-16.6093
-16.1054
-15.6286
-15.1826
-14.7696
-14.3874
-14.0516
-13.7934
-13.5086
-13.1255
-13.4976
-14.2866
-26.4539
-25.8184
-25.1719
-24.5176
-23.8581
-23.1961
-22.5344
-21.8755
-21.2217
-20.5756
-19.9395
-19.3158
-18.7068
-18.1151
-17.5431
-16.9933
-16.4684
-15.971
-15.5052
-15.0729
-14.6717
-14.3168
-14.0422
-13.7405
-13.3266
-13.6962
-14.5328
-27.9448
-27.2822
-26.6072
-25.923
-25.2324
-24.5382
-23.8429
-23.1494
-22.4599
-21.7769
-21.1027
-20.4397
-19.7902
-19.1565
-18.541
-17.9461
-17.3742
-16.8279
-16.3098
-15.8239
-15.3722
-14.9515
-14.5772
-14.2859
-13.9669
-13.5214
-13.8873
-14.7743
-29.5035
-28.8133
-28.1093
-27.3947
-26.6725
-25.9455
-25.2164
-24.4878
-23.7622
-23.042
-22.3296
-21.6273
-20.9373
-20.2619
-19.6033
-18.9639
-18.3459
-17.7518
-17.1839
-16.6449
-16.1386
-15.6671
-15.2267
-14.8326
-14.5239
-14.1876
-13.7094
-14.0704
-15.0107
-31.1324
-30.4141
-29.6806
-28.935
-28.1807
-27.4202
-26.6567
-25.8926
-25.1304
-24.3726
-23.6217
-22.8798
-22.1492
-21.4321
-20.7306
-20.047
-19.3835
-18.7423
-18.1257
-17.5361
-16.9759
-16.449
-15.9575
-15.4972
-15.0827
-14.7564
-14.4023
-13.8906
-14.2453
-15.2416
-32.834
-32.087
-31.3233
-30.5463
-29.759
-28.9646
-28.1659
-27.3656
-26.5663
-25.7705
-24.9805
-24.1987
-23.4272
-22.6681
-21.9238
-21.1962
-20.4875
-19.7997
-19.1351
-18.496
-17.8844
-17.3028
-16.755
-16.2432
-15.7625
-15.3274
-14.9828
-14.6111
-14.0649
-14.4116
-15.4671
-598.628
-34.6111
-33.8347
-33.0401
-32.2308
-31.4101
-30.581
-29.7464
-28.9092
-28.072
-27.2374
-26.4078
-25.5855
-24.7726
-23.9715
-23.184
-22.4123
-21.6584
-20.9244
-20.2123
-19.5242
-18.8622
-18.2286
-17.6254
-17.0564
-16.524
-16.0227
-15.5663
-15.2032
-14.8136
-14.2319
-14.569
-15.6867
-598.631
-626.555
-36.4666
-35.6601
-34.8339
-33.9915
-33.1364
-32.2717
-31.4005
-30.5257
-29.6498
-28.7757
-27.9057
-27.0422
-26.1875
-25.3435
-24.5125
-23.6964
-22.8973
-22.1171
-21.3577
-20.6211
-19.9093
-19.2244
-18.5684
-17.9434
-17.353
-16.7997
-16.2775
-15.7993
-15.4171
-15.0094
-14.3913
-14.7171
-15.9006
-598.611
-626.553
-655.062
-38.4033
-37.5661
-36.7074
-35.8311
-34.9409
-34.0398
-33.1309
-32.2175
-31.3021
-30.3875
-29.4763
-28.5709
-27.6734
-26.786
-25.9109
-25.05
-24.2053
-23.3787
-22.572
-21.7871
-21.0259
-20.2902
-19.5823
-18.9037
-18.2567
-17.6446
-17.0701
-16.5266
-16.0264
-15.6245
-15.1986
-14.5432
-14.8556
-16.1077
-598.574
-626.527
-655.055
-684.099
-40.4248
-39.5557
-38.6637
-37.7526
-36.8262
-35.8876
-34.9403
-33.9871
-33.0313
-32.0754
-31.1219
-30.1736
-29.2326
-28.301
-27.381
-26.4747
-25.5839
-24.7104
-23.8562
-23.0229
-22.2124
-21.4265
-20.6669
-19.9356
-19.2344
-18.565
-17.9311
-17.335
-16.77
-16.2473
-15.8251
-15.3808
-14.6872
-14.9841
-16.3078
-598.533
-626.487
-655.024
-684.084
-713.828
-42.534
-41.6324
-40.7061
-39.7592
-38.7955
-37.8185
-36.8314
-35.8377
-34.8401
-33.8418
-32.8452
-31.8529
-30.8673
-29.8905
-28.9249
-27.9722
-27.0346
-26.1137
-25.2114
-24.3295
-23.4696
-22.6334
-21.8226
-21.039
-20.2842
-19.5602
-18.8683
-18.2121
-17.5942
-17.0073
-16.4615
-16.0186
-15.5558
-14.8232
-15.1022
-16.5006
-598.486
-626.439
-654.975
-684.049
-713.807
-744.169
-44.7345
-43.7994
-42.8378
-41.8541
-40.8521
-39.8353
-38.8075
-37.7719
-36.7317
-35.6897
-34.6487
-33.6113
-32.58
-31.557
-30.5446
-29.5448
-28.5593
-27.5903
-26.6394
-25.7083
-24.7986
-23.9119
-23.0499
-22.2142
-21.4063
-20.628
-19.8808
-19.1663
-18.4876
-17.8476
-17.2384
-16.6691
-16.2048
-15.7233
-14.9509
-15.2096
-16.6864
-598.433
-626.386
-654.922
-683.996
-713.763
-744.143
-775.29
-47.0299
-46.0603
-45.0624
-44.0407
-42.9992
-41.9417
-40.8719
-39.7932
-38.7089
-37.622
-36.5353
-35.4516
-34.3734
-33.3029
-32.2426
-31.1944
-30.1603
-29.1421
-28.1417
-27.1606
-26.2006
-25.2631
-24.3496
-23.4618
-22.601
-21.7688
-20.9667
-20.1963
-19.4588
-18.7574
-18.0949
-17.4632
-16.8698
-16.3835
-15.8833
-15.0702
-15.306
-16.8647
-598.376
-626.327
-654.861
-683.936
-713.705
-744.092
-775.254
-807.119
-49.4239
-48.419
-47.3836
-46.3227
-45.2406
-44.141
-43.028
-41.9049
-40.775
-39.6419
-38.5082
-37.3766
-36.2501
-35.131
-34.0213
-32.9236
-31.8396
-30.7712
-29.7203
-28.6884
-27.6772
-26.6882
-25.7228
-24.7826
-23.8687
-22.9828
-22.1261
-21.3001
-20.5063
-19.7456
-19.0212
-18.336
-17.6813
-17.0635
-16.5546
-16.0353
-15.181
-15.3909
-17.0345
-598.311
-626.262
-654.795
-683.871
-713.637
-744.027
-775.197
-807.078
-839.807
-51.9208
-50.8791
-49.8052
-48.7041
-47.58
-46.437
-45.2792
-44.1102
-42.9335
-41.7527
-40.5704
-39.3898
-38.2135
-37.0441
-35.8839
-34.7351
-33.5999
-32.4799
-31.3773
-30.2936
-29.2302
-28.1888
-27.1708
-26.1776
-25.2104
-24.2706
-23.3594
-22.4781
-21.6281
-20.8106
-20.0266
-19.2788
-18.5705
-17.8927
-17.2499
-16.7176
-16.1793
-15.283
-15.4638
-17.1954
-598.242
-626.191
-654.722
-683.796
-713.561
-743.953
-775.125
-807.014
-839.756
-873.413
-54.5244
-53.4449
-52.3314
-51.1886
-50.0211
-48.8334
-47.6293
-46.4131
-45.188
-43.9578
-42.7254
-41.4941
-40.2665
-39.0453
-37.8329
-36.6317
-35.4438
-34.271
-33.1153
-31.9783
-30.8617
-29.7669
-28.6954
-27.6484
-26.6272
-25.633
-24.6671
-23.7306
-22.8246
-21.9504
-21.1091
-20.3015
-19.5302
-18.7985
-18.097
-17.4289
-16.8724
-16.3151
-15.3761
-15.5245
-17.3477
-598.166
-626.113
-654.641
-683.716
-713.479
-743.871
-775.043
-806.934
-839.686
-873.355
-907.983
-57.2392
-56.1209
-54.9663
-53.7804
-52.5682
-51.3341
-50.0823
-48.8172
-47.5421
-46.2609
-44.977
-43.6931
-42.4125
-41.138
-39.8718
-38.6165
-37.3742
-36.1469
-34.9367
-33.7452
-32.5739
-31.4245
-30.2983
-29.1965
-28.1205
-27.0714
-26.0502
-25.0581
-24.0962
-23.1654
-22.2668
-21.4015
-20.5701
-19.775
-19.0196
-18.2942
-17.6001
-17.0189
-16.4421
-15.4601
-15.5728
-17.4907
-598.083
-626.028
-654.553
-683.626
-713.388
-743.78
-774.95
-806.844
-839.597
-873.272
-907.912
-943.554
-60.0696
-58.9113
-57.7142
-56.4839
-55.2254
-53.9435
-52.6425
-51.3266
-50
-48.6661
-47.3285
-45.9906
-44.6551
-43.3254
-42.0036
-40.6926
-39.3942
-38.111
-36.8445
-35.5968
-34.3695
-33.1639
-31.9817
-30.824
-29.692
-28.587
-27.5099
-26.4617
-25.4434
-24.456
-23.5003
-22.5773
-21.6878
-20.8323
-20.0131
-19.2337
-18.4841
-17.7636
-17.1568
-16.5605
-15.535
-15.6079
-17.6229
-597.993
-625.935
-654.457
-683.53
-713.289
-743.681
-774.85
-806.744
-839.499
-873.176
-907.823
-943.476
-980.335
-63.0207
-61.8207
-60.5798
-59.3037
-57.9975
-56.6659
-55.3139
-53.9458
-52.5656
-51.1773
-49.7843
-48.3902
-46.9984
-45.6113
-44.2323
-42.8634
-41.5073
-40.1659
-38.8416
-37.536
-36.2509
-34.9877
-33.748
-32.533
-31.3438
-30.1817
-29.0477
-27.9426
-26.8673
-25.8228
-24.8098
-23.8291
-22.8814
-21.9676
-21.088
-20.2444
-19.4406
-18.6664
-17.919
-17.2858
-16.6699
-15.6004
-15.6297
-17.746
-597.895
-625.834
-654.353
-683.424
-713.18
-743.572
-774.741
-806.635
-839.39
-873.068
-907.717
-943.377
-980.245
-1018.32
-66.0968
-64.854
-63.5678
-62.2442
-60.8887
-59.5061
-58.1012
-56.6789
-55.2435
-53.7987
-52.3486
-50.8964
-49.4459
-47.9998
-46.5612
-45.1329
-43.7168
-42.3156
-40.9313
-39.566
-38.2212
-36.8986
-35.5998
-34.3258
-33.078
-31.8576
-30.6653
-29.5023
-28.3692
-27.2668
-26.1961
-25.1574
-24.1516
-23.1792
-22.2409
-21.3368
-20.4686
-19.64
-18.8409
-18.0663
-17.4058
-16.7701
-15.6565
-15.6377
-17.8584
-597.787
-625.724
-654.239
-683.309
-713.063
-743.454
-774.619
-806.513
-839.269
-872.948
-907.599
-943.262
-980.134
-1018.22
-1057.62
-69.3036
-68.0163
-66.6835
-65.3108
-63.904
-62.4686
-61.0093
-59.5307
-58.038
-56.5347
-55.0252
-53.5132
-52.0019
-50.4946
-48.9946
-47.5041
-46.0264
-44.5632
-43.117
-41.6899
-40.2835
-38.8997
-37.5398
-36.2052
-34.8971
-33.6167
-32.3649
-31.1426
-29.9505
-28.7895
-27.6601
-26.563
-25.4986
-24.4676
-23.4704
-22.5075
-21.5787
-20.6856
-19.8319
-19.0076
-18.2051
-17.5166
-16.8609
-15.7029
-15.6317
-17.9586
-597.672
-625.605
-654.116
-683.185
-712.934
-743.324
-774.488
-806.384
-839.139
-872.817
-907.468
-943.133
-980.009
-1018.1
-1057.51
-1098.38
-72.6463
-71.3132
-69.9317
-68.5084
-67.0487
-65.5582
-64.0426
-62.5061
-60.9539
-59.3902
-57.8194
-56.2449
-54.6706
-53.1003
-51.5363
-49.9819
-48.4397
-46.9126
-45.4024
-43.9113
-42.4413
-40.9941
-39.5712
-38.1741
-36.8039
-35.4618
-34.1487
-32.8656
-31.6133
-30.3923
-29.2033
-28.0468
-26.9234
-25.8332
-24.7769
-23.7548
-22.767
-21.8135
-20.8952
-20.0161
-19.1662
-18.3354
-17.6179
-16.942
-15.7398
-15.6113
-18.0482
-597.545
-625.476
-653.981
-683.048
-712.795
-743.184
-774.345
-806.24
-838.994
-872.673
-907.324
-942.993
-979.869
-1017.96
-1057.38
-1098.26
-1140.82
-76.1304
-74.7496
-73.3184
-71.8423
-70.3278
-68.7808
-67.2063
-65.61
-63.9964
-62.3699
-60.7353
-59.0965
-57.457
-55.8208
-54.1909
-52.5701
-50.9617
-49.3677
-47.7913
-46.2341
-44.6981
-43.1853
-41.6973
-40.2355
-38.8012
-37.3956
-36.0194
-34.6738
-33.3595
-32.0772
-30.8272
-29.6104
-28.4268
-27.277
-26.1611
-25.0794
-24.0322
-23.0195
-22.0409
-21.0972
-20.1924
-19.3165
-18.4571
-17.7097
-17.0133
-15.767
-15.5759
-18.1263
-597.408
-625.334
-653.835
-682.9
-712.644
-743.032
-774.19
-806.085
-838.84
-872.517
-907.167
-942.836
-979.713
-1017.81
-1057.23
-1098.11
-1140.68
-1184.91
-79.7624
-78.3322
-76.8487
-75.3185
-73.7471
-72.1413
-70.5064
-68.8473
-67.1702
-65.479
-63.7783
-62.0727
-60.3657
-58.6612
-56.9625
-55.2732
-53.5956
-51.9332
-50.2877
-48.6619
-47.0577
-45.4771
-43.9216
-42.3929
-40.8922
-39.4208
-37.9797
-36.5697
-35.1917
-33.8463
-32.534
-31.2553
-30.0105
-28.7998
-27.6237
-26.4821
-25.3749
-24.3025
-23.2647
-22.2609
-21.2915
-20.3606
-19.4584
-18.5699
-17.7916
-17.0745
-15.7843
-15.5255
-18.1918
-597.258
-625.18
-653.676
-682.739
-712.479
-742.865
-774.022
-805.916
-838.67
-872.346
-906.997
-942.668
-979.545
-1017.64
-1057.06
-1097.95
-1140.52
-1184.75
-1230.96
-83.5479
-82.0669
-80.5294
-78.9424
-77.3125
-75.6453
-73.9477
-72.2244
-70.4811
-68.7225
-66.9536
-65.1784
-63.4012
-61.6263
-59.8565
-58.0957
-56.3468
-54.6126
-52.8959
-51.199
-49.524
-47.8731
-46.2477
-44.6497
-43.0804
-41.541
-40.0326
-38.5562
-37.1125
-35.7022
-34.3257
-32.9836
-31.6761
-30.4034
-29.1658
-27.9633
-26.7958
-25.6632
-24.5655
-23.5025
-22.4732
-21.4779
-20.5206
-19.5918
-18.6737
-17.8637
-17.1254
-15.7919
-15.4597
-18.2423
-597.095
-625.013
-653.505
-682.565
-712.3
-742.686
-773.839
-805.731
-838.485
-872.161
-906.811
-942.483
-979.359
-1017.45
-1056.88
-1097.77
-1140.34
-1184.58
-1230.78
-1279.09
-87.4936
-85.9596
-84.3661
-82.7207
-81.0293
-79.2994
-77.5362
-75.7464
-73.9346
-72.106
-70.2662
-68.4191
-66.5693
-64.7208
-62.8775
-61.0427
-59.2194
-57.4113
-55.6204
-53.8497
-52.1011
-50.3773
-48.6795
-47.0098
-45.3693
-43.7595
-42.1816
-40.6364
-39.1248
-37.6475
-36.2049
-34.7975
-33.4257
-32.0895
-30.7891
-29.5245
-28.2956
-27.1022
-25.9441
-24.821
-23.7326
-22.6777
-21.6562
-20.6722
-19.7165
-18.7685
-17.9255
-17.1659
-15.7898
-15.378
-18.2803
-596.92
-624.832
-653.317
-682.375
-712.106
-742.491
-773.641
-805.532
-838.285
-871.96
-906.608
-942.282
-979.158
-1017.25
-1056.68
-1097.57
-1140.14
-1184.39
-1230.59
-1278.9
-1329.6
-91.6072
-90.0181
-88.366
-86.6598
-84.9051
-83.1094
-81.2786
-79.4191
-77.5362
-75.6358
-73.7221
-71.8003
-69.8751
-67.9507
-66.0304
-64.1189
-62.2188
-60.3336
-58.4659
-56.6185
-54.7939
-52.9941
-51.2214
-49.4769
-47.7627
-46.08
-44.4298
-42.8136
-41.2318
-39.6852
-38.1744
-36.6997
-35.2616
-33.86
-32.4952
-31.1671
-29.8755
-28.6203
-27.4011
-26.2174
-25.0689
-23.9549
-22.8743
-21.8264
-20.8153
-19.8323
-18.854
-17.9771
-17.1957
-15.778
-15.2801
-18.3043
-596.73
-624.636
-653.115
-682.169
-711.896
-742.278
-773.425
-805.316
-838.067
-871.741
-906.389
-942.063
-978.937
-1017.03
-1056.46
-1097.35
-1139.93
-1184.17
-1230.38
-1278.68
-1329.38
-1382.66
-95.8957
-94.2482
-92.5362
-90.7659
-88.9459
-87.0823
-85.1814
-83.2495
-81.2928
-79.317
-77.3271
-75.3277
-73.3242
-71.3209
-69.3215
-67.3297
-65.35
-63.3847
-61.4372
-59.5103
-57.6066
-55.7283
-53.8772
-52.0556
-50.2649
-48.5063
-46.7815
-45.0914
-43.4367
-41.8185
-40.2371
-38.6929
-37.1864
-35.7174
-34.2865
-32.8932
-31.5374
-30.2189
-28.9374
-27.6923
-26.483
-25.3089
-24.1694
-23.0628
-21.9883
-20.9498
-19.9391
-18.9302
-18.0184
-17.2146
-15.7564
-15.1658
-18.3134
-596.524
-624.424
-652.896
-681.946
-711.667
-742.047
-773.192
-805.08
-837.83
-871.503
-906.15
-941.825
-978.699
-1016.8
-1056.22
-1097.12
-1139.69
-1183.94
-1230.15
-1278.45
-1329.14
-1382.41
-1438.64
-100.367
-98.6589
-96.8829
-95.0471
-93.1588
-91.2242
-89.2503
-87.2438
-85.2107
-83.1565
-81.0872
-79.0077
-76.9232
-74.8374
-72.7555
-70.6814
-68.6181
-66.5699
-64.5396
-62.5303
-60.5442
-58.5838
-56.652
-54.7498
-52.8796
-51.0428
-49.2403
-47.4735
-45.7434
-44.0509
-42.3962
-40.7801
-39.2028
-37.6645
-36.1651
-34.7047
-33.283
-31.8997
-30.5544
-29.2466
-27.9757
-26.7407
-25.541
-24.3758
-23.2431
-22.1418
-21.0755
-20.0369
-18.9969
-18.0492
-17.2225
-15.7253
-15.0348
-18.3062
-596.302
-624.194
-652.659
-681.705
-711.421
-741.798
-772.938
-804.826
-837.575
-871.246
-905.891
-941.567
-978.441
-1016.54
-1055.96
-1096.86
-1139.43
-1183.68
-1229.89
-1278.2
-1328.89
-1382.15
-1438.36
-1497.78
-105.028
-103.258
-101.415
-99.5109
-97.5512
-95.5429
-93.4928
-91.4086
-89.2964
-87.161
-85.0092
-82.8465
-80.6774
-78.5068
-76.3389
-74.1785
-72.0295
-69.8951
-67.7783
-65.6828
-63.6115
-61.5665
-59.5502
-57.565
-55.612
-53.6934
-51.8104
-49.9641
-48.1557
-46.3859
-44.6554
-42.9648
-41.3142
-39.7039
-38.1339
-36.6043
-35.1146
-33.6646
-32.2539
-30.8818
-29.5479
-28.251
-26.9904
-25.7651
-24.5739
-23.4151
-22.2867
-21.1924
-20.1254
-19.0542
-18.0694
-17.2192
-15.6846
-14.887
-18.2835
-596.064
-623.948
-652.403
-681.444
-711.154
-741.528
-772.663
-804.549
-837.298
-870.968
-905.61
-941.287
-978.159
-1016.25
-1055.68
-1096.58
-1139.15
-1183.4
-1229.61
-1277.92
-1328.61
-1381.88
-1438.08
-1497.47
-1560.54
-109.888
-108.052
-106.141
-104.165
-102.131
-100.046
-97.9167
-95.7515
-93.5564
-91.3374
-89.0998
-86.8503
-84.5934
-82.3346
-80.0777
-77.8281
-75.5892
-73.3654
-71.1592
-68.9747
-66.8142
-64.6811
-62.5772
-60.5051
-58.4664
-56.4629
-54.4962
-52.5674
-50.6775
-48.8278
-47.0184
-45.2503
-43.5237
-41.839
-40.1959
-38.5945
-37.0346
-35.5159
-34.0377
-32.5997
-31.201
-29.8408
-28.5182
-27.2319
-25.9809
-24.7638
-23.5785
-22.4229
-21.3002
-20.2046
-19.102
-18.079
-17.2045
-15.6345
-14.7222
-18.2442
-595.808
-623.681
-652.129
-681.164
-710.865
-741.235
-772.366
-804.251
-836.997
-870.665
-905.306
-940.983
-977.856
-1015.95
-1055.38
-1096.27
-1138.84
-1183.09
-1229.3
-1277.61
-1328.3
-1381.57
-1437.77
-1497.16
-1560.19
-1627.35
-114.957
-113.052
-111.069
-109.018
-106.906
-104.74
-102.529
-100.281
-97.9989
-95.6921
-93.366
-91.0265
-88.6785
-86.3275
-83.9784
-81.636
-79.3041
-76.9866
-74.6879
-72.4103
-70.158
-67.933
-65.7382
-63.5759
-61.4479
-59.3562
-57.3023
-55.2876
-53.3132
-51.3802
-49.489
-47.6406
-45.8352
-44.073
-42.3542
-40.6785
-39.0459
-37.456
-35.9083
-34.4022
-32.937
-31.5117
-30.1254
-28.777
-27.4651
-26.1883
-24.9452
-23.7334
-22.5504
-21.3991
-20.2745
-19.1401
-18.0779
-17.1782
-15.5754
-14.5403
-18.1885
-595.535
-623.396
-651.833
-680.861
-710.555
-740.92
-772.046
-803.928
-836.672
-870.337
-904.976
-940.654
-977.525
-1015.62
-1055.04
-1095.94
-1138.51
-1182.76
-1228.96
-1277.28
-1327.97
-1381.23
-1437.43
-1496.82
-1559.83
-1626.96
-1698.77
-120.244
-118.266
-116.208
-114.078
-111.885
-109.636
-107.339
-105.003
-102.632
-100.234
-97.8152
-95.3819
-92.9396
-90.4929
-88.0478
-85.6085
-83.1801
-80.7662
-78.3705
-75.9968
-73.6482
-71.3281
-69.0385
-66.7823
-64.5615
-62.3783
-60.2337
-58.1298
-56.0675
-54.0477
-52.0716
-50.1396
-48.2523
-46.4098
-44.6122
-42.8595
-41.1516
-39.488
-37.8683
-36.2918
-34.7579
-33.2655
-31.8138
-30.4015
-29.0273
-27.6898
-26.3872
-25.118
-23.8797
-22.669
-21.4888
-20.3349
-19.1687
-18.0662
-17.1402
-15.5074
-14.3412
-18.1147
-595.242
-623.092
-651.517
-680.536
-710.221
-740.582
-771.7
-803.578
-836.32
-869.983
-904.62
-940.297
-977.165
-1015.26
-1054.69
-1095.58
-1138.15
-1182.4
-1228.6
-1276.91
-1327.6
-1380.87
-1437.06
-1496.45
-1559.46
-1626.57
-1698.33
-1775.42
-125.759
-123.705
-121.567
-119.355
-117.078
-114.742
-112.356
-109.927
-107.463
-104.97
-102.456
-99.9241
-97.3834
-94.838
-92.2928
-89.7532
-87.224
-84.7095
-82.2135
-79.7396
-77.2915
-74.872
-72.4842
-70.1302
-67.8131
-65.534
-63.2955
-61.0986
-58.9448
-56.835
-54.7705
-52.7517
-50.779
-48.853
-46.9737
-45.141
-43.3548
-41.6148
-39.9204
-38.2712
-36.6661
-35.1044
-33.5852
-32.1071
-30.6688
-29.269
-27.9058
-26.5775
-25.2821
-24.0171
-22.7788
-21.5693
-20.3858
-19.1876
-18.0438
-17.0904
-15.4308
-14.1247
-18.0219
-594.934
-622.768
-651.179
-680.188
-709.863
-740.217
-771.327
-803.203
-835.94
-869.601
-904.233
-939.911
-976.777
-1014.87
-1054.3
-1095.19
-1137.75
-1182
-1228.21
-1276.51
-1327.2
-1380.46
-1436.66
-1496.04
-1559.05
-1626.15
-1697.88
-1774.92
-1858.09
-131.514
-129.379
-127.158
-124.859
-122.493
-120.065
-117.586
-115.062
-112.501
-109.909
-107.294
-104.662
-102.018
-99.3696
-96.7207
-94.0771
-91.4433
-88.8241
-86.2235
-83.6455
-81.0933
-78.571
-76.0807
-73.6256
-71.2076
-68.8295
-66.4929
-64.1994
-61.9504
-59.747
-57.5904
-55.4812
-53.42
-51.407
-49.4427
-47.5268
-45.6593
-43.8399
-42.0679
-40.343
-38.6643
-37.031
-35.4418
-33.8957
-32.3914
-30.9274
-29.5019
-28.1132
-26.759
-25.4375
-24.1457
-22.8795
-21.6406
-20.4273
-19.197
-18.0109
-17.0287
-15.3461
-13.8906
-17.9096
-594.61
-622.426
-650.82
-679.818
-709.481
-739.826
-770.928
-802.798
-835.531
-869.188
-903.818
-939.494
-976.357
-1014.45
-1053.87
-1094.77
-1137.32
-1181.58
-1227.78
-1276.08
-1326.76
-1380.03
-1436.21
-1495.59
-1558.6
-1625.69
-1697.42
-1774.42
-1857.52
-1947.51
-137.521
-135.3
-132.991
-130.601
-128.141
-125.619
-123.041
-120.418
-117.755
-115.06
-112.34
-109.602
-106.852
-104.096
-101.339
-98.587
-95.8449
-93.1168
-90.4075
-87.7208
-85.0613
-82.4312
-79.8349
-77.2742
-74.7518
-72.2702
-69.8318
-67.4376
-65.0896
-62.7886
-60.5364
-58.3331
-56.1794
-54.0761
-52.0233
-50.0209
-48.0687
-46.1667
-44.3143
-42.5108
-40.7556
-39.0478
-37.3862
-35.7697
-34.197
-32.6667
-31.1769
-29.7259
-28.3117
-26.9318
-25.584
-24.2654
-22.9713
-21.7027
-20.4591
-19.1968
-17.9674
-16.955
-15.2533
-13.639
-17.7789
-594.261
-622.065
-650.443
-679.425
-709.074
-739.409
-770.5
-802.364
-835.092
-868.744
-903.371
-939.044
-975.904
-1013.99
-1053.41
-1094.31
-1136.86
-1181.11
-1227.31
-1275.61
-1326.29
-1379.55
-1435.73
-1495.1
-1558.1
-1625.19
-1696.91
-1773.9
-1856.95
-1946.85
-2044.63
-143.79
-141.48
-139.077
-136.592
-134.034
-131.411
-128.73
-126.003
-123.234
-120.431
-117.603
-114.755
-111.894
-109.026
-106.156
-103.291
-100.436
-97.5952
-94.7727
-91.9734
-89.2012
-86.4602
-83.7527
-81.0824
-78.4513
-75.8624
-73.3176
-70.8189
-68.3675
-65.9652
-63.613
-61.3119
-59.0624
-56.8649
-54.72
-52.6273
-50.5873
-48.5992
-46.663
-44.7779
-42.9431
-41.1579
-39.4212
-37.7316
-36.0881
-34.489
-32.9327
-31.4173
-29.9409
-28.5012
-27.0956
-25.7216
-24.3761
-23.054
-21.7555
-20.4814
-19.1872
-17.9138
-16.8689
-15.1532
-13.3707
-17.6264
-593.878
-621.672
-650.04
-679.011
-708.644
-738.965
-770.045
-801.901
-834.622
-868.267
-902.889
-938.559
-975.413
-1013.5
-1052.92
-1093.82
-1136.36
-1180.61
-1226.8
-1275.11
-1325.78
-1379.03
-1435.2
-1494.57
-1557.56
-1624.64
-1696.34
-1773.33
-1856.37
-1946.2
-2043.86
-2151.99
-150.337
-147.931
-145.43
-142.843
-140.182
-137.453
-134.665
-131.828
-128.949
-126.034
-123.092
-120.129
-117.152
-114.167
-111.181
-108.199
-105.226
-102.267
-99.3269
-96.4106
-93.522
-90.6642
-87.8418
-85.0571
-82.3129
-79.612
-76.957
-74.349
-71.7903
-69.2825
-66.8263
-64.423
-62.0736
-59.7781
-57.5373
-55.3509
-53.2191
-51.1417
-49.1181
-47.148
-45.2305
-43.3648
-41.5498
-39.7844
-38.0672
-36.3967
-34.7714
-33.1893
-31.6485
-30.1468
-28.6816
-27.2504
-25.8502
-24.4778
-23.1276
-21.7991
-20.4942
-19.1681
-17.8499
-16.7706
-15.0465
-13.0856
-17.4533
-593.473
-621.247
-649.602
-678.566
-708.19
-738.5
-769.564
-801.408
-834.119
-867.756
-902.372
-938.04
-974.888
-1012.97
-1052.39
-1093.28
-1135.82
-1180.06
-1226.26
-1274.55
-1325.22
-1378.47
-1434.63
-1493.99
-1556.97
-1624.03
-1695.72
-1772.69
-1855.72
-1945.53
-2043.12
-2151.08
-2272.53
-157.175
-154.667
-152.061
-149.368
-146.598
-143.758
-140.858
-137.906
-134.91
-131.878
-128.817
-125.733
-122.636
-119.53
-116.422
-113.317
-110.221
-107.14
-104.077
-101.039
-98.0296
-95.0515
-92.1086
-89.2052
-86.3431
-83.5258
-80.7555
-78.0342
-75.3639
-72.7459
-70.1818
-67.6726
-65.2187
-62.821
-60.4802
-58.1961
-55.9689
-53.7982
-51.6838
-49.6251
-47.6215
-45.672
-43.7756
-41.931
-40.1372
-38.3926
-36.6955
-35.044
-33.4364
-31.8702
-30.3434
-28.853
-27.3961
-25.9698
-24.5704
-23.1922
-21.8336
-20.4976
-19.1398
-17.7762
-16.6599
-14.9336
-12.7835
-17.2587
-593.053
-620.802
-649.135
-678.084
-707.697
-738.001
-769.056
-800.889
-833.588
-867.214
-901.82
-937.481
-974.322
-1012.4
-1051.81
-1092.7
-1135.23
-1179.48
-1225.66
-1273.96
-1324.62
-1377.85
-1434.01
-1493.35
-1556.32
-1623.38
-1695.05
-1772
-1855
-1944.8
-2042.35
-2150.2
-2271.57
-2348.79
-164.318
-161.702
-158.986
-156.18
-153.294
-150.338
-147.319
-144.246
-141.129
-137.974
-134.788
-131.58
-128.356
-125.124
-121.888
-118.656
-115.432
-112.223
-109.033
-105.868
-102.732
-99.6284
-96.5609
-93.533
-90.5491
-87.6105
-84.7207
-81.8813
-79.0945
-76.362
-73.6852
-71.0651
-68.5028
-65.9989
-63.5538
-61.1681
-58.8411
-56.5736
-54.3644
-52.2135
-50.12
-48.0831
-46.1019
-44.1751
-42.3015
-40.4796
-38.7076
-36.984
-35.3068
-33.6737
-32.0826
-30.5306
-29.0151
-27.5327
-26.0803
-24.654
-23.2477
-21.859
-20.4916
-19.1024
-17.6931
-16.537
-14.815
-12.4654
-17.0415
-592.616
-620.34
-648.649
-677.576
-707.171
-737.462
-768.51
-800.338
-833.026
-866.639
-901.234
-936.887
-973.719
-1011.79
-1051.19
-1092.08
-1134.61
-1178.84
-1225.02
-1273.31
-1323.96
-1377.19
-1433.33
-1492.67
-1555.62
-1622.66
-1694.31
-1771.24
-1854.22
-1943.98
-2041.51
-2149.31
-2270.58
-2347.58
-2374.08
-171.782
-169.052
-166.219
-163.294
-160.286
-157.206
-154.062
-150.862
-147.616
-144.332
-141.017
-137.678
-134.322
-130.958
-127.589
-124.224
-120.867
-117.526
-114.203
-110.906
-107.638
-104.404
-101.206
-98.0501
-94.9379
-91.8736
-88.8587
-85.8968
-82.9888
-80.1371
-77.3427
-74.6076
-71.932
-69.3174
-66.764
-64.2718
-61.8414
-59.4724
-57.1646
-54.9174
-52.7304
-50.6024
-48.5327
-46.5202
-44.5633
-42.6608
-40.8111
-39.0122
-37.2625
-35.5596
-33.9014
-32.2853
-30.7084
-29.1679
-27.6602
-26.1817
-24.7285
-23.2943
-21.8753
-20.4764
-19.0561
-17.6009
-16.4016
-14.6917
-12.1319
-16.8027
-592.16
-619.859
-648.144
-677.049
-706.621
-736.894
-767.924
-799.744
-832.426
-866.031
-900.616
-936.258
-973.076
-1011.13
-1050.53
-1091.41
-1133.93
-1178.16
-1224.33
-1272.61
-1323.25
-1376.47
-1432.6
-1491.92
-1554.86
-1621.88
-1693.51
-1770.41
-1853.35
-1943.09
-2040.57
-2148.32
-2269.54
-2346.64
-2372.86
-2399.36
-179.585
-176.733
-173.775
-170.723
-167.587
-164.376
-161.099
-157.767
-154.387
-150.967
-147.515
-144.039
-140.546
-137.042
-133.536
-130.032
-126.536
-123.056
-119.596
-116.161
-112.756
-109.386
-106.053
-102.763
-99.518
-96.3222
-93.1776
-90.0874
-87.0534
-84.0772
-81.1609
-78.3053
-75.5123
-72.7822
-70.1155
-67.513
-64.9745
-62.5
-60.0892
-57.7418
-55.457
-53.2342
-51.0722
-48.9701
-46.9265
-44.94
-43.009
-41.1317
-39.3063
-37.5306
-35.8023
-34.1191
-32.4782
-30.8767
-29.3113
-27.7783
-26.2739
-24.794
-23.3319
-21.8828
-20.452
-19.0011
-17.5003
-16.2535
-14.5648
-11.7839
-16.5382
-591.687
-619.358
-647.617
-676.499
-706.049
-736.301
-767.311
-799.114
-831.783
-865.378
-899.956
-935.593
-972.399
-1010.44
-1049.83
-1090.7
-1133.2
-1177.42
-1223.59
-1271.86
-1322.48
-1375.69
-1431.81
-1491.11
-1554.04
-1621.03
-1692.63
-1769.5
-1852.41
-1942.11
-2039.54
-2147.22
-2268.38
-2345.52
-2371.91
-2398.18
-2425.28
-187.744
-184.762
-181.672
-178.485
-175.212
-171.863
-168.448
-164.975
-161.453
-157.89
-154.295
-150.675
-147.038
-143.391
-139.738
-136.09
-132.45
-128.826
-125.222
-121.644
-118.096
-114.583
-111.11
-107.68
-104.297
-100.964
-97.6846
-94.4612
-91.2952
-88.19
-85.1463
-82.1662
-79.2498
-76.3995
-73.6153
-70.8973
-68.2459
-65.6614
-63.1433
-60.6914
-58.3048
-55.9829
-53.7247
-51.5292
-49.395
-47.3208
-45.305
-43.3457
-41.4413
-39.5894
-37.7881
-36.0348
-34.3269
-32.6614
-31.0354
-29.4453
-27.8872
-26.3571
-24.8505
-23.3607
-21.8815
-20.4187
-18.9376
-17.3913
-16.0931
-14.4351
-11.4215
-16.2526
-591.195
-618.837
-647.068
-675.926
-705.453
-735.684
-766.672
-798.456
-831.106
-864.684
-899.25
-934.879
-971.678
-1009.71
-1049.09
-1089.94
-1132.43
-1176.64
-1222.79
-1271.04
-1321.66
-1374.85
-1430.95
-1490.24
-1553.14
-1620.11
-1691.68
-1768.52
-1851.39
-1941.04
-2038.41
-2146.02
-2267.11
-2344.26
-2370.8
-2397.26
-2424.1
-2451.15
-196.279
-193.158
-189.926
-186.597
-183.179
-179.684
-176.121
-172.499
-168.828
-165.116
-161.371
-157.6
-153.811
-150.012
-146.209
-142.409
-138.619
-134.844
-131.09
-127.362
-123.665
-120.005
-116.385
-112.81
-109.283
-105.808
-102.388
-99.0251
-95.7227
-92.4823
-89.3062
-86.1955
-83.1518
-80.1759
-77.2686
-74.4306
-71.6618
-68.9625
-66.3324
-63.7713
-61.2786
-58.8534
-56.4947
-54.2018
-51.9731
-49.8073
-47.7028
-45.6581
-43.671
-41.7396
-39.8618
-38.035
-36.2569
-34.5245
-32.8348
-31.1845
-29.5699
-27.9869
-26.4312
-24.8981
-23.3807
-21.8717
-20.3767
-18.8657
-17.2754
-15.9202
-14.3039
-11.0469
-15.9434
-590.683
-618.294
-646.498
-675.329
-704.831
-735.041
-766.007
-797.771
-830.401
-863.96
-898.507
-934.121
-970.906
-1008.93
-1048.3
-1089.14
-1131.61
-1175.8
-1221.94
-1270.18
-1320.78
-1373.95
-1430.03
-1489.29
-1552.17
-1619.11
-1690.65
-1767.45
-1850.28
-1939.87
-2037.18
-2144.71
-2265.7
-2342.88
-2369.55
-2396.16
-2423.16
-2450.02
-2477.67
-205.209
-201.94
-198.558
-195.076
-191.505
-187.855
-184.136
-180.358
-176.529
-172.659
-168.755
-164.826
-160.879
-156.921
-152.959
-149.002
-145.054
-141.121
-137.211
-133.327
-129.475
-125.66
-121.888
-118.161
-114.484
-110.862
-107.294
-103.787
-100.343
-96.962
-93.6479
-90.4016
-87.2244
-84.118
-81.0827
-78.1192
-75.228
-72.409
-69.6624
-66.9873
-64.3836
-61.8506
-59.3872
-56.9925
-54.6651
-52.4036
-50.2067
-48.0724
-45.999
-43.9845
-42.0266
-40.123
-38.2713
-36.4685
-34.7119
-32.9981
-31.3237
-29.685
-28.0773
-26.4962
-24.9369
-23.3921
-21.8535
-20.3263
-18.7859
-17.1529
-15.735
-14.1724
-10.6613
-15.6077
-590.151
-617.729
-645.904
-674.708
-704.184
-734.37
-765.313
-797.056
-829.666
-863.205
-897.732
-933.328
-970.093
-1008.1
-1047.45
-1088.29
-1130.74
-1174.92
-1221.03
-1269.25
-1319.83
-1372.98
-1429.03
-1488.27
-1551.12
-1618.03
-1689.53
-1766.28
-1849.06
-1938.59
-2035.83