/*--------------------------------*- C++ -*----------------------------------*\
  =========                 |
  \\      /  F ield         | OpenFOAM: The Open Source CFD Toolbox
   \\    /   O peration     | Website:  https://openfoam.org
    \\  /    A nd           | Version:  7
     \\/     M anipulation  |
\*---------------------------------------------------------------------------*/
FoamFile
{
    version     2.0;
    format      ascii;
    class       surfaceScalarField;
    location    "1600";
    object      phi;
}
// * * * * * * * * * * * * * * * * * * * * * * * * * * * * * * * * * * * * * //

dimensions      [0 3 -1 0 0 0 0];

internalField   nonuniform List<scalar> 
45818
(
0.0756485
0.146616
0.0724779
0.140222
0.0757456
0.149939
0.0694393
0.13411
0.0725685
0.143399
0.0758229
0.153254
0.0665307
0.128266
0.0695284
0.13715
0.0726409
0.146581
0.075882
0.156561
0.0637351
0.122699
0.0666149
0.131179
0.0696042
0.140187
0.0727117
0.149752
0.0759311
0.159865
0.0610642
0.117348
0.0638362
0.125478
0.0666942
0.134089
0.0696785
0.14322
0.0727693
0.152913
0.0759654
0.163166
0.0585094
0.112243
0.0611739
0.12001
0.063919
0.128253
0.066772
0.136996
0.0697346
0.146255
0.072802
0.156077
0.0759764
0.166476
0.0560642
0.10738
0.0585992
0.114817
0.0612368
0.122692
0.063982
0.131043
0.0668132
0.139917
0.0697624
0.149295
0.0728215
0.159232
0.0759726
0.169769
0.053719
0.102728
0.0561549
0.109825
0.0586842
0.11737
0.0613133
0.125361
0.0640366
0.13382
0.0668678
0.142812
0.0697987
0.152317
0.0728211
0.162383
0.0759589
0.17306
0.0514724
0.0982791
0.0538115
0.105071
0.0562416
0.112267
0.0587642
0.119919
0.0613799
0.128018
0.0640849
0.136603
0.0669027
0.145708
0.0697934
0.155345
0.0727975
0.165545
0.0759304
0.176328
0.0493248
0.0940308
0.0515658
0.100525
0.0538942
0.107419
0.0563108
0.114721
0.058821
0.122478
0.0614233
0.130679
0.0641148
0.139391
0.0669009
0.1486
0.0698
0.158342
0.0727957
0.168679
0.0758653
0.179597
0.0472662
0.0899731
0.0494114
0.0961852
0.0516516
0.102767
0.0539715
0.109758
0.0563775
0.117164
0.0588728
0.125028
0.0614617
0.133332
0.0641399
0.142152
0.0669076
0.151493
0.0697616
0.161377
0.072729
0.171816
0.0757937
0.182862
0.0452889
0.0860975
0.0473546
0.09203
0.0495004
0.0983365
0.0517222
0.105017
0.0540313
0.112104
0.0564275
0.119609
0.0589099
0.12758
0.0614669
0.136005
0.0641317
0.144927
0.066886
0.154368
0.0697351
0.164371
0.0726708
0.174938
0.0756989
0.186105
0.0434054
0.0823862
0.0453804
0.0880717
0.0474368
0.0940936
0.0495705
0.100488
0.0517879
0.10726
0.0540836
0.114448
0.0564641
0.122055
0.0589286
0.130119
0.0614907
0.138646
0.0641321
0.147681
0.0668681
0.157235
0.0696804
0.167361
0.0725845
0.178053
0.0755843
0.189354
0.041591
0.0788519
0.0434888
0.0842779
0.0454657
0.0900428
0.04751
0.096154
0.0496393
0.102637
0.0518433
0.109501
0.0541333
0.116779
0.0564976
0.124486
0.0589559
0.132653
0.0614812
0.141297
0.0641043
0.150445
0.0668035
0.160112
0.0696025
0.170343
0.0724916
0.181146
0.0754548
0.192581
0.0398619
0.0754631
0.0416811
0.0806595
0.043571
0.0861726
0.0455358
0.092017
0.0475806
0.0982127
0.0496929
0.104787
0.0518812
0.111753
0.0541578
0.119119
0.0565114
0.126931
0.0589365
0.135198
0.0614619
0.14394
0.0640532
0.153195
0.066739
0.162975
0.0695097
0.173325
0.0723573
0.184243
0.0753022
0.195794
0.0382003
0.0722374
0.0399425
0.0772018
0.0417601
0.0824704
0.0436505
0.0880579
0.0456046
0.093993
0.0476288
0.100277
0.0497367
0.106932
0.0519228
0.113988
0.054176
0.121454
0.0565163
0.129351
0.0589442
0.137716
0.0614327
0.14656
0.0640106
0.155924
0.0666632
0.165822
0.0693972
0.176285
0.072218
0.187327
0.0751381
0.198981
0.0366078
0.0691498
0.0382828
0.0738971
0.0400269
0.078935
0.0418365
0.0842844
0.0437112
0.0899513
0.0456609
0.0959609
0.0476857
0.102328
0.0497751
0.109079
0.0519443
0.116219
0.0541854
0.123785
0.056501
0.131794
0.0588916
0.140257
0.0613753
0.149195
0.0639299
0.158657
0.0665691
0.16865
0.0692798
0.179223
0.0720624
0.190403
0.0749192
0.202172
0.0350871
0.0661936
0.0366921
0.0707405
0.038364
0.07556
0.0400951
0.0806764
0.0418989
0.0860966
0.0437692
0.091843
0.045706
0.0979406
0.0477173
0.104386
0.0498011
0.111222
0.0519532
0.118452
0.0541823
0.126104
0.0564845
0.134201
0.0588612
0.142771
0.0612996
0.151826
0.0638443
0.161382
0.0664418
0.171488
0.0691243
0.182161
0.0718886
0.193434
0.0747122
0.205332
0.0336303
0.0633792
0.0351654
0.0677203
0.0367701
0.0723344
0.0384326
0.0772224
0.0401657
0.0824097
0.0419552
0.0879107
0.0438161
0.0937329
0.0457507
0.0999072
0.0477441
0.106443
0.0498145
0.113361
0.0519495
0.120684
0.0541653
0.128423
0.0564491
0.136613
0.0588075
0.145263
0.061236
0.154434
0.0637255
0.164098
0.0663047
0.174308
0.0689505
0.185099
0.0716766
0.196469
0.074472
0.208479
0.032229
0.0606864
0.0337041
0.0648405
0.0352439
0.0692466
0.0368442
0.0739228
0.0384987
0.0788895
0.0402187
0.0841461
0.0420102
0.0897166
0.0438604
0.0956232
0.0457757
0.101876
0.0477657
0.108491
0.0498167
0.115494
0.0519434
0.122906
0.0541308
0.130742
0.0563949
0.139026
0.0587255
0.147774
0.0611357
0.157024
0.0636019
0.166801
0.0661479
0.17711
0.0687738
0.188002
0.0714499
0.199491
0.0742071
0.211612
0.0308916
0.0581114
0.0323032
0.0620873
0.033783
0.0663014
0.0353098
0.070781
0.036902
0.0755194
0.0385599
0.0805483
0.0402742
0.0858822
0.0420513
0.0915257
0.0438922
0.0975067
0.0458004
0.103841
0.0477697
0.110538
0.0498087
0.117629
0.0519133
0.125124
0.0540924
0.133044
0.0563282
0.141423
0.0586431
0.150266
0.0610156
0.15961
0.063472
0.169477
0.0659812
0.179903
0.0685521
0.1909
0.071195
0.202504
0.0739057
0.214727
0.0296071
0.0556552
0.0309628
0.0594518
0.0323826
0.0634877
0.0338493
0.0677618
0.035378
0.072305
0.0369623
0.077117
0.0386058
0.0822167
0.0403134
0.08762
0.0420798
0.093338
0.0439114
0.0993958
0.0458089
0.105802
0.0477675
0.112579
0.0497881
0.119754
0.0518808
0.127335
0.0540302
0.135342
0.0562526
0.143813
0.0585329
0.152749
0.0608942
0.162188
0.0633054
0.172153
0.0657898
0.182665
0.0683374
0.193758
0.0709421
0.205467
0.0736062
0.217811
0.0283785
0.0533059
0.0296778
0.0569402
0.0310362
0.0607982
0.032448
0.0648891
0.033913
0.0692268
0.0354351
0.0738322
0.0370163
0.0787065
0.0386582
0.083872
0.0403537
0.0893461
0.0421108
0.0951386
0.0439266
0.101278
0.0458049
0.107764
0.0477465
0.114621
0.0497601
0.121875
0.0518257
0.12954
0.0539568
0.137638
0.0561596
0.146187
0.0584175
0.155226
0.0607277
0.164766
0.0631141
0.174828
0.0655668
0.185436
0.0680712
0.196629
0.0706293
0.208444
0.0732553
0.220876
0.0271998
0.0510605
0.0284488
0.0545349
0.0297567
0.0582197
0.0311084
0.0621377
0.0325085
0.0662936
0.0339719
0.0706899
0.0354909
0.0753576
0.0370592
0.0803055
0.0386839
0.0855418
0.0403729
0.0910841
0.0421206
0.0969446
0.0439321
0.103151
0.0457969
0.109714
0.0477279
0.116653
0.0497109
0.12399
0.0517605
0.131736
0.0538745
0.139923
0.0560414
0.148563
0.0582773
0.157676
0.0605683
0.167312
0.0629314
0.177464
0.0653324
0.188174
0.0677952
0.199463
0.0703335
0.211366
0.072903
0.223909
0.026073
0.0489145
0.0272716
0.0522376
0.0285212
0.0557704
0.0298166
0.0595116
0.0311666
0.0634796
0.0325714
0.0676942
0.0340218
0.0721591
0.0355328
0.076884
0.037098
0.0818913
0.0387211
0.0871935
0.0403944
0.0928102
0.0421328
0.0987439
0.0439223
0.105025
0.0457728
0.111669
0.0476804
0.118684
0.049655
0.126095
0.0516841
0.133926
0.0537735
0.142191
0.055917
0.150923
0.0581207
0.160124
0.0603991
0.169844
0.0626971
0.180099
0.0650699
0.1909
0.0674945
0.202302
0.0699629
0.214306
0.0724943
0.226943
0.0249912
0.0468659
0.0261415
0.0500447
0.0273382
0.0534207
0.0285816
0.0570054
0.0298766
0.0608016
0.0312214
0.0648297
0.0326167
0.0690992
0.0340705
0.0736214
0.0355685
0.0784135
0.0371257
0.0834868
0.0387345
0.0888534
0.0404034
0.0945396
0.0421211
0.100545
0.0439063
0.106892
0.0457448
0.113604
0.0476368
0.120702
0.0495845
0.128195
0.0515938
0.136106
0.0536549
0.144453
0.0557775
0.153266
0.0579515
0.162571
0.0601783
0.172363
0.0624664
0.182703
0.064801
0.193593
0.067179
0.205086
0.0696092
0.217191
0.0720891
0.22993
0.0239573
0.0449068
0.0250597
0.0479477
0.0262086
0.0511743
0.0274006
0.0546016
0.0286456
0.0582363
0.029934
0.062089
0.0312757
0.0661707
0.0326658
0.0705039
0.0341065
0.0750833
0.0356029
0.0799363
0.0371458
0.0850754
0.0387516
0.0905052
0.0404062
0.0962546
0.0421133
0.102338
0.0438764
0.10876
0.0456957
0.115546
0.0475707
0.122716
0.0494987
0.13029
0.0514811
0.13828
0.0535176
0.146713
0.0556105
0.155608
0.0577586
0.164991
0.0599477
0.174881
0.0621977
0.185306
0.0644857
0.196287
0.0668389
0.207856
0.0692175
0.220063
0.0716443
0.23289
0.0229653
0.0430353
0.024022
0.0459445
0.0251235
0.0490328
0.0262685
0.0523063
0.0274666
0.0557806
0.0286985
0.0594718
0.0299866
0.0633781
0.0313216
0.0675149
0.0327101
0.0719004
0.0341378
0.0765484
0.0356234
0.0814587
0.0371647
0.0866623
0.0387498
0.0921616
0.0403901
0.0979777
0.0420879
0.104127
0.0438354
0.110621
0.0456363
0.11748
0.0474893
0.124725
0.0494017
0.132369
0.0513595
0.140438
0.0533714
0.148952
0.0554361
0.15793
0.0575433
0.167395
0.0597108
0.177368
0.0619057
0.187886
0.064169
0.198956
0.0664572
0.210616
0.0688061
0.222901
0.0711631
0.235835
0.0220152
0.0412467
0.0230291
0.0440282
0.0240858
0.0469822
0.025185
0.0501163
0.0263302
0.0534427
0.0275121
0.0569671
0.0287551
0.0607033
0.0300351
0.0646646
0.0313599
0.0688651
0.0327339
0.0733042
0.0341636
0.0780082
0.0356391
0.0829844
0.0371696
0.0882425
0.0387468
0.0938049
0.0403764
0.0996892
0.0420535
0.105908
0.0437868
0.11247
0.0455671
0.119402
0.0474018
0.126725
0.049286
0.134443
0.0512205
0.142589
0.0532091
0.151179
0.0552378
0.160235
0.0573191
0.169787
0.0594414
0.179833
0.0616159
0.190439
0.0638191
0.201595
0.0660593
0.213363
0.0683383
0.225726
0.0706656
0.238738
0.0211046
0.0395371
0.0220777
0.0421981
0.0230906
0.0450234
0.0241454
0.0480218
0.0252422
0.0512043
0.0263826
0.0545722
0.0275678
0.0581544
0.0287941
0.0619443
0.0300688
0.0659557
0.0313956
0.0702034
0.032768
0.0746999
0.0341861
0.0794611
0.0356522
0.0845019
0.0371634
0.0898259
0.0387263
0.0954551
0.040343
0.1014
0.0420094
0.107686
0.0437194
0.114318
0.0454877
0.121316
0.0473019
0.128709
0.0491577
0.136505
0.051069
0.144729
0.053023
0.153394
0.0550258
0.162529
0.0570712
0.172157
0.0591516
0.182297
0.0612846
0.192974
0.0634446
0.204209
0.0656516
0.21605
0.0678775
0.228514
0.070125
0.241624
1.53247e-06
-9.98095e-05
0.0202324
0.037905
0.0211642
0.0404506
0.0221373
0.0431513
0.0231483
0.0460205
0.0242018
0.0490622
0.0252973
0.0522897
0.0264309
0.055709
0.0276122
0.0593363
0.0288368
0.0631763
0.0301099
0.0672414
0.0314236
0.0715478
0.0327794
0.0761066
0.0341896
0.0809237
0.0356463
0.086019
0.037151
0.0914012
0.0387032
0.0970949
0.0403028
0.103106
0.0419501
0.109455
0.0436458
0.11616
0.0453872
0.123231
0.047178
0.130689
0.0490206
0.138554
0.0508987
0.146853
0.0528218
0.155598
0.0547914
0.164809
0.0568009
0.174508
0.0588491
0.184732
0.0609335
0.195485
0.0630504
0.20681
0.0651959
0.218731
0.0673703
0.231269
0.0695781
0.244449
3.12622e-06
-0.000111867
1.52927e-06
-0.000101339
0.0193966
0.0363418
0.0202921
0.038777
0.021224
0.0413639
0.0221922
0.0441075
0.0232033
0.047019
0.0242539
0.0501056
0.025341
0.0533796
0.0264758
0.0568454
0.0276554
0.0605178
0.0288734
0.0644128
0.0301334
0.0685316
0.0314419
0.0728854
0.0327997
0.0774964
0.0341969
0.0823731
0.0356406
0.0875293
0.0371296
0.0929747
0.0386675
0.0987303
0.0402543
0.104802
0.0418846
0.111216
0.0435583
0.117989
0.0452828
0.125126
0.0470467
0.132663
0.0488561
0.140596
0.0507095
0.148966
0.0526058
0.157783
0.0545382
0.167071
0.0565069
0.17685
0.0585179
0.187148
0.0605494
0.197986
0.0626282
0.209378
0.0647255
0.221376
0.0668419
0.234005
0.0689749
0.247264
4.87602e-06
-0.000122762
3.15854e-06
-0.000113496
1.50253e-06
-0.000102842
0.0185967
0.0348512
0.0194531
0.0371808
0.0203482
0.0396529
0.0212786
0.0422775
0.0222478
0.0450629
0.0232555
0.0480174
0.0243017
0.0511449
0.0253886
0.0544668
0.0265181
0.0579827
0.0276909
0.0617002
0.0289022
0.0656439
0.030157
0.0698165
0.0314575
0.0742275
0.0327987
0.0788945
0.0341852
0.0838286
0.035621
0.089038
0.0370971
0.0945451
0.0386221
0.100363
0.0401869
0.1065
0.0418015
0.112973
0.0434583
0.119813
0.0451573
0.127016
0.046898
0.134621
0.0486805
0.142625
0.0505093
0.151062
0.0523697
0.159952
0.0542676
0.169311
0.0562004
0.179167
0.0581629
0.189535
0.060154
0.20046
0.0621713
0.211932
0.0642121
0.224006
0.0662721
0.236708
0.0683471
0.250046
6.7037e-06
-0.000132615
4.87313e-06
-0.000124476
3.143e-06
-0.000115136
1.57662e-06
-0.000104418
0.0178292
0.0334256
0.0186514
0.0356528
0.0195088
0.0380202
0.0204014
0.0405301
0.0213313
0.043194
0.0222986
0.0460198
0.0233029
0.0490161
0.0243483
0.0521852
0.0254313
0.0555536
0.0265577
0.059116
0.0277138
0.0628886
0.0289249
0.0668761
0.0301731
0.0711009
0.0314605
0.0755657
0.0327974
0.0802823
0.0341751
0.0852745
0.0355952
0.0905399
0.037062
0.0961052
0.038565
0.101984
0.0401155
0.108186
0.0417046
0.114727
0.0433422
0.121628
0.0450179
0.128896
0.0467354
0.136566
0.0484896
0.144645
0.0502804
0.153151
0.0521099
0.16211
0.0539732
0.171538
0.0558689
0.181461
0.0577919
0.191897
0.0597425
0.202889
0.0617047
0.21444
0.0636924
0.226586
0.0656993
0.239355
0.067703
0.252787
8.68944e-06
-0.00014226
6.7437e-06
-0.000134485
4.94321e-06
-0.000126276
3.18331e-06
-0.000116743
1.5178e-06
-0.000105936
0.0170942
0.0320619
0.0178837
0.0341934
0.0187053
0.0364563
0.0195617
0.03886
0.0204538
0.0414076
0.0213818
0.0441109
0.0223457
0.046977
0.0233472
0.0500173
0.0243822
0.0532343
0.0254685
0.0566427
0.026581
0.0602488
0.0277434
0.0640702
0.0289414
0.0681078
0.0301815
0.07238
0.0314624
0.0769008
0.0327877
0.0816697
0.0341546
0.0867151
0.0355582
0.0920437
0.0370043
0.0976659
0.0384994
0.103601
0.0400294
0.109861
0.0416029
0.116466
0.0432172
0.123429
0.0448661
0.130765
0.0465567
0.138499
0.0482864
0.146639
0.0500439
0.155217
0.0518403
0.164243
0.0536615
0.173745
0.0555113
0.183742
0.0573859
0.194253
0.0592877
0.205306
0.0612084
0.216924
0.0631298
0.229155
0.0650653
0.241993
0.067016
0.255481
1.08015e-05
-0.000152006
8.73596e-06
-0.000144252
6.78384e-06
-0.000136326
4.95222e-06
-0.000128045
3.17329e-06
-0.000118398
1.5605e-06
-0.000107497
0.0163906
0.0307587
0.0171464
0.0327992
0.0179353
0.0349633
0.0187564
0.0372615
0.0196133
0.0397005
0.020501
0.0422884
0.0214265
0.0450301
0.022388
0.0479362
0.0233866
0.0510129
0.0244278
0.054275
0.0254937
0.05773
0.0266095
0.0613827
0.0277638
0.0652477
0.0289516
0.0693377
0.0301837
0.0736587
0.031458
0.0782304
0.0327639
0.0830603
0.0341179
0.0881554
0.0355122
0.0935357
0.0369455
0.0992198
0.03842
0.10521
0.039933
0.111531
0.041486
0.118197
0.0430748
0.12522
0.0447017
0.13262
0.0463655
0.14042
0.0480557
0.148627
0.0497887
0.157269
0.0515393
0.166365
0.0533247
0.175932
0.0551387
0.185989
0.0569662
0.196575
0.0588096
0.207704
0.0606608
0.219393
0.0625475
0.231673
0.0644166
0.244592
0.066291
0.258136
1.30476e-05
-0.000162024
1.08567e-05
-0.000154127
8.78751e-06
-0.000146256
6.84217e-06
-0.000138216
4.91616e-06
-0.000129788
3.26932e-06
-0.000120107
1.57636e-06
-0.000109074
0.0157149
0.029514
0.0164411
0.0314641
0.0171978
0.0335367
0.0179837
0.0357361
0.0188058
0.0380691
0.0196586
0.0405428
0.0205478
0.0431671
0.0214709
0.0459472
0.0224301
0.0488927
0.0234248
0.0520159
0.0244542
0.0553145
0.0255249
0.0588147
0.026629
0.0625175
0.027773
0.0664263
0.0289528
0.0705686
0.0301747
0.074942
0.031436
0.0795583
0.0327404
0.0844378
0.0340787
0.0895889
0.0354551
0.0950261
0.0368728
0.100767
0.0383281
0.106815
0.0398219
0.113195
0.0413543
0.119918
0.0429149
0.127007
0.0445136
0.134472
0.0461492
0.142326
0.0478126
0.150604
0.0495061
0.159302
0.0512309
0.168459
0.0529732
0.178097
0.0547351
0.18822
0.0565155
0.198869
0.0583168
0.210049
0.0601204
0.22182
0.0619273
0.234162
0.0637334
0.24715
0.0655265
0.260763
1.54371e-05
-0.000172463
1.3114e-05
-0.000164281
1.08793e-05
-0.000156219
8.81654e-06
-0.00014823
6.86263e-06
-0.000140162
5.0257e-06
-0.000131544
3.22205e-06
-0.000121752
1.56565e-06
-0.000110639
0.0150692
0.0283223
0.0157647
0.0301904
0.0164887
0.0321732
0.0172449
0.0342755
0.0180327
0.0365092
0.0188513
0.0388764
0.0197041
0.0413865
0.0205894
0.0440486
0.0215106
0.0468666
0.0224623
0.0498551
0.0234552
0.0530149
0.0244794
0.05636
0.0255398
0.0599039
0.0266401
0.0636505
0.027776
0.067603
0.0289542
0.0717891
0.0301695
0.0762085
0.0314165
0.0808822
0.0327015
0.085815
0.0340247
0.0910193
0.0353905
0.0965084
0.0367939
0.102301
0.0382286
0.108408
0.0396982
0.114851
0.0412024
0.12163
0.0427475
0.128773
0.0443194
0.136302
0.0459218
0.144217
0.0475557
0.152554
0.0492098
0.161323
0.0508914
0.17054
0.0525966
0.180236
0.0543115
0.190424
0.0560461
0.201139
0.0577827
0.212386
0.0595356
0.224212
0.0612725
0.236623
0.0630207
0.249656
0.0647558
0.263339
1.7936e-05
-0.000183361
1.54739e-05
-0.000174823
1.31524e-05
-0.000166554
1.10081e-05
-0.00015841
8.89615e-06
-0.000150264
6.90566e-06
-0.000142042
5.00429e-06
-0.000133326
3.26745e-06
-0.000123454
1.63566e-06
-0.000112275
0.0144494
0.0271856
0.0151152
0.0289718
0.0158115
0.0308675
0.0165365
0.0328815
0.0172911
0.0350171
0.0180784
0.037282
0.0188955
0.0396851
0.0197464
0.0422295
0.0206277
0.0449316
0.0215455
0.0477835
0.0224984
0.050812
0.0234809
0.0540133
0.0244997
0.0574
0.0255584
0.0609855
0.0266506
0.0647758
0.0277764
0.0687808
0.0289444
0.0730143
0.0301403
0.0774847
0.0313807
0.0822031
0.0326542
0.0871855
0.0339667
0.092443
0.0353133
0.0979891
0.0366924
0.103837
0.0381116
0.109995
0.0395643
0.116489
0.0410444
0.123333
0.0425626
0.13053
0.0441077
0.138116
0.0456769
0.146096
0.0472727
0.154491
0.0488924
0.163322
0.0505333
0.172604
0.0521914
0.182356
0.0538619
0.192609
0.0555468
0.203375
0.0572327
0.214689
0.0589169
0.226567
0.0606065
0.239037
0.0622651
0.252147
0.0639189
0.265877
2.06418e-05
-0.000194867
1.8033e-05
-0.00018592
1.55739e-05
-0.000177245
1.32558e-05
-0.000168802
1.10226e-05
-0.000160537
8.95741e-06
-0.000152315
6.94536e-06
-0.000143983
5.13017e-06
-0.000135189
3.31346e-06
-0.000125132
1.58609e-06
-0.000113861
0.0138554
0.0260976
0.0144946
0.0278062
0.0151624
0.029621
0.0158576
0.0315464
0.016582
0.0335906
0.0173371
0.0357585
0.0181208
0.0380567
0.0189369
0.0404946
0.0197833
0.0430739
0.0206657
0.0458114
0.0215756
0.0487062
0.0225216
0.0517713
0.0234989
0.0550142
0.0245189
0.0584396
0.0255659
0.0620703
0.0266478
0.0659044
0.0277706
0.0699546
0.0289205
0.0742341
0.0301149
0.0787505
0.0313374
0.0835199
0.0326016
0.0885506
0.0338962
0.0938601
0.0352249
0.0994566
0.0365899
0.105359
0.0379834
0.111576
0.039412
0.118121
0.0408738
0.125022
0.0423552
0.132283
0.0438735
0.139919
0.0454133
0.147955
0.046976
0.156407
0.0485613
0.165294
0.0501578
0.174637
0.0517715
0.184446
0.0533936
0.194762
0.0550179
0.20559
0.0566491
0.216957
0.0582737
0.2289
0.0598843
0.241418
0.0614799
0.254586
0.0630658
0.268367
2.34766e-05
-0.000206945
2.07137e-05
-0.000197548
1.81551e-05
-0.000188502
1.5699e-05
-0.000179688
1.33371e-05
-0.000171116
1.1148e-05
-0.000162727
9.01988e-06
-0.00015439
7.09269e-06
-0.000145946
5.20895e-06
-0.000137084
3.3673e-06
-0.000126913
1.6496e-06
-0.000115511
0.0132859
0.0250579
0.0138995
0.0266927
0.0145396
0.028429
0.0152056
0.030273
0.0159014
0.0322271
0.0166247
0.034303
0.0173777
0.0365016
0.0181609
0.0388326
0.0189745
0.0413034
0.0198185
0.0439211
0.0206934
0.0466935
0.021603
0.0496249
0.0225436
0.0527265
0.0235221
0.056011
0.0245239
0.0594816
0.0255721
0.063146
0.0266474
0.0670276
0.0277549
0.0711202
0.0289019
0.0754471
0.0300783
0.0800096
0.0312942
0.0848273
0.0325341
0.0899127
0.0338159
0.0952691
0.035129
0.100918
0.0364684
0.106874
0.0378428
0.113145
0.0392481
0.119747
0.0406808
0.126696
0.0421404
0.134016
0.0436242
0.141708
0.0451273
0.149804
0.0466569
0.158312
0.0481978
0.167254
0.0497586
0.17665
0.0513203
0.18652
0.0528967
0.196883
0.054469
0.20777
0.0560369
0.219194
0.0575995
0.231185
0.0591429
0.243755
0.0606835
0.256968
0.0621699
0.270823
2.65428e-05
-0.000219779
2.36173e-05
-0.000209848
2.09067e-05
-0.000200299
1.826e-05
-0.000191063
1.57621e-05
-0.000182113
1.34874e-05
-0.000173455
1.11921e-05
-0.000164899
9.14775e-06
-0.000156445
7.15394e-06
-0.000147891
5.20532e-06
-0.000138922
3.37918e-06
-0.000128642
1.67363e-06
-0.000117184
0.0127418
0.0240622
0.0133298
0.0256275
0.0139427
0.0272895
0.0145817
0.0290529
0.0152492
0.0309252
0.0159438
0.0329079
0.0166665
0.0350142
0.017417
0.0372456
0.0181983
0.0396089
0.0190094
0.0421125
0.0198519
0.0447626
0.0207235
0.047573
0.0216276
0.0505409
0.0225644
0.0536841
0.0235311
0.0570037
0.0245341
0.0605196
0.0255656
0.0642278
0.0266343
0.0681482
0.0277338
0.0722882
0.0288656
0.0766598
0.0300305
0.0812734
0.0312257
0.0861358
0.0324591
0.0912695
0.0337203
0.0966778
0.0350155
0.10237
0.0363407
0.108376
0.0376946
0.114699
0.0390709
0.121357
0.0404804
0.128357
0.0419068
0.135733
0.0433552
0.14348
0.0448302
0.151631
0.0463191
0.16019
0.0478206
0.169192
0.049332
0.178639
0.0508481
0.188568
0.0523689
0.198983
0.0538915
0.209916
0.0554025
0.221391
0.0568969
0.233431
0.0583747
0.246064
0.0598211
0.259317
0.0612346
0.273229
2.98078e-05
-0.000233371
2.67116e-05
-0.000222873
2.37937e-05
-0.000212735
2.1041e-05
-0.00020308
1.83992e-05
-0.0001937
1.59863e-05
-0.000184612
1.3516e-05
-0.000175779
1.13924e-05
-0.000167144
9.28244e-06
-0.000158573
7.22259e-06
-0.000149908
5.28776e-06
-0.000140831
3.46666e-06
-0.000130435
1.70151e-06
-0.000118886
0.0122197
0.0231118
0.012782
0.02461
0.0133708
0.0261994
0.0139847
0.0278865
0.014624
0.0296782
0.0152899
0.0315791
0.0159829
0.0335916
0.0167041
0.0357271
0.017455
0.0379888
0.0182333
0.040385
0.0190434
0.042921
0.0198775
0.0456086
0.0207501
0.0484505
0.0216439
0.0514615
0.0225739
0.0546413
0.0235368
0.0580011
0.024528
0.0615572
0.0255529
0.0653092
0.02661
0.069272
0.0276993
0.0734545
0.0288217
0.0778686
0.0299736
0.0825254
0.0311638
0.0874311
0.032378
0.0926117
0.0336212
0.098072
0.0348945
0.103817
0.0361956
0.109875
0.037524
0.116245
0.0388834
0.122954
0.0402574
0.130006
0.0416585
0.13743
0.0430774
0.145233
0.0445144
0.153436
0.0459602
0.162051
0.0474224
0.171102
0.0488868
0.1806
0.0503599
0.190577
0.0518261
0.201048
0.0532845
0.212034
0.0547273
0.22356
0.0561607
0.235645
0.0575626
0.248322
0.0589425
0.261609
0.0602698
0.275572
3.32834e-05
-0.000247717
2.99611e-05
-0.000236621
2.69228e-05
-0.000226002
2.40085e-05
-0.000215703
2.11684e-05
-0.000205849
1.86574e-05
-0.000196371
1.60962e-05
-0.000187192
1.38406e-05
-0.000178227
1.15617e-05
-0.000169423
9.38471e-06
-0.000160735
7.33678e-06
-0.000151957
5.40443e-06
-0.000142769
3.5278e-06
-0.000132261
1.69246e-06
-0.000120578
0.0117183
0.0222031
0.0122592
0.0236347
0.0128229
0.025158
0.0134105
0.0267736
0.0140242
0.0284863
0.0146634
0.0303046
0.0153303
0.0322317
0.0160212
0.0342745
0.0167413
0.0364408
0.0174872
0.0387348
0.0182635
0.0411649
0.0190656
0.0437328
0.0199038
0.0464549
0.0207611
0.0493333
0.0216625
0.0523729
0.0225837
0.0555944
0.0235398
0.0589894
0.0245258
0.0625843
0.025539
0.0663802
0.0265909
0.0703804
0.0276672
0.074609
0.028773
0.0790692
0.0299171
0.0837722
0.0310829
0.0887262
0.0322778
0.0939552
0.0335069
0.0994596
0.0347587
0.105253
0.0360429
0.111356
0.0373472
0.117782
0.0386698
0.124542
0.040017
0.131647
0.04139
0.139117
0.0427736
0.146974
0.0441711
0.155225
0.0455826
0.16389
0.0469955
0.172993
0.048417
0.182543
0.0498355
0.192568
0.0512487
0.203084
0.0526476
0.214113
0.0540321
0.225689
0.0553937
0.237814
0.0567225
0.250542
0.0580069
0.263872
0.0592707
0.277872
3.68932e-05
-0.000262963
3.34739e-05
-0.00025123
3.02105e-05
-0.000239908
2.71282e-05
-0.000229122
2.42245e-05
-0.000218759
2.15123e-05
-0.000208704
1.87594e-05
-0.000199034
1.63181e-05
-0.00018967
1.39567e-05
-0.000180622
1.16556e-05
-0.000171694
9.53498e-06
-0.000162933
7.48821e-06
-0.000154041
5.45937e-06
-0.0001447
3.55822e-06
-0.000134127
1.81149e-06
-0.00012239
0.0112401
0.0213323
0.0117567
0.0227055
0.0122968
0.0241607
0.0128624
0.0257061
0.0134509
0.0273468
0.014064
0.0290857
0.0147021
0.0309328
0.0153647
0.0328882
0.0160571
0.0349587
0.0167742
0.0371538
0.0175196
0.0394787
0.0182919
0.0419387
0.0190911
0.0445456
0.0199219
0.0472941
0.0207852
0.0502106
0.0216683
0.0532883
0.0225857
0.0565485
0.0235315
0.0599837
0.0245109
0.0636124
0.0255189
0.0674522
0.0265527
0.0714949
0.0276174
0.0757646
0.0287168
0.0802695
0.0298378
0.0850172
0.0309894
0.0900146
0.0321779
0.0952841
0.0333827
0.100836
0.0346127
0.106684
0.0358691
0.112834
0.0371465
0.119305
0.0384487
0.12611
0.0397692
0.133268
0.0411068
0.140784
0.0424546
0.14869
0.0438155
0.156992
0.0451791
0.165707
0.0465512
0.174859
0.0479221
0.184456
0.0492864
0.19453
0.0506415
0.20509
0.0519834
0.216162
0.0533048
0.227778
0.0545869
0.239949
0.0558462
0.252703
0.0570591
0.266083
0.0582238
0.2801
4.08294e-05
-0.000279177
3.72076e-05
-0.000266697
3.37679e-05
-0.000254788
3.05577e-05
-0.000243338
2.73889e-05
-0.000232286
2.45163e-05
-0.000221763
2.16594e-05
-0.000211604
1.91194e-05
-0.000201835
1.66202e-05
-0.000192333
1.41401e-05
-0.000183107
1.18931e-05
-0.000174052
9.68001e-06
-0.000165125
7.58541e-06
-0.000156167
5.57332e-06
-0.000146715
3.71304e-06
-0.000136028
1.80632e-06
-0.000124196
0.0107796
0.020501
0.0112752
0.0218138
0.0117937
0.0232086
0.0123357
0.0246875
0.012899
0.026258
0.0134879
0.0279229
0.0141009
0.0296869
0.0147383
0.0315592
0.015402
0.0335433
0.0160893
0.0356437
0.0168038
0.0378696
0.0175462
0.0402244
0.018314
0.0427158
0.0191118
0.0453557
0.0199371
0.0481422
0.0207851
0.0510938
0.0216708
0.0542031
0.02258
0.0575
0.0235205
0.060974
0.0244897
0.0646416
0.0254861
0.0685189
0.0265083
0.0726041
0.0275665
0.0769148
0.0286479
0.0814595
0.0297561
0.0862505
0.0308962
0.0912963
0.032054
0.0966129
0.0332397
0.102209
0.0344518
0.108101
0.0356878
0.114293
0.0369384
0.120815
0.0382115
0.127668
0.0395003
0.134875
0.0407984
0.14244
0.042116
0.15039
0.0434325
0.158738
0.0447618
0.167496
0.046086
0.176695
0.047405
0.186338
0.0487188
0.196453
0.050017
0.207057
0.0512885
0.218178
0.0525417
0.229823
0.0537606
0.242035
0.0549355
0.254827
0.0560627
0.268244
0.0571134
0.282284
4.49645e-05
-0.000296374
4.1191e-05
-0.000283161
3.75596e-05
-0.000270488
3.4115e-05
-0.000258345
3.07713e-05
-0.00024672
2.77792e-05
-0.000235549
2.47131e-05
-0.000224817
2.2019e-05
-0.000214504
1.93268e-05
-0.000204542
1.68056e-05
-0.000194998
1.44251e-05
-0.000185639
1.21322e-05
-0.000176504
9.8707e-06
-0.000167411
7.74342e-06
-0.000158337
5.76992e-06
-0.000148772
3.70009e-06
-0.000137922
1.80734e-06
-0.000126003
0.0103379
0.0197063
0.0108135
0.0209627
0.011311
0.0222966
0.0118304
0.023714
0.0123716
0.0252148
0.0129359
0.02681
0.0135247
0.0284991
0.0141349
0.0302904
0.0147718
0.0321894
0.0154328
0.0341998
0.0161191
0.0363284
0.0168331
0.0385827
0.017572
0.0409663
0.0183389
0.0434887
0.0191312
0.0461616
0.0199476
0.0489797
0.0207952
0.0519694
0.0216692
0.0551139
0.0225745
0.058446
0.0235048
0.0619589
0.0244623
0.0656654
0.025447
0.0695801
0.0264627
0.0737079
0.0275043
0.0780584
0.0285728
0.0826428
0.0296695
0.0874772
0.0307803
0.09257
0.0319253
0.0979272
0.0330969
0.103564
0.0342835
0.109505
0.0354876
0.115744
0.0367141
0.122312
0.0379605
0.129208
0.0392125
0.13646
0.040479
0.144077
0.0417536
0.152069
0.0430372
0.160463
0.0443171
0.169265
0.0455908
0.178509
0.046862
0.188194
0.0481189
0.198351
0.0493516
0.208994
0.05057
0.22015
0.0517501
0.231833
0.0528947
0.244076
0.0539915
0.256898
0.0550343
0.270323
0.0560188
0.284395
4.94114e-05
-0.000314684
4.54288e-05
-0.000300612
4.15993e-05
-0.0002872
3.79625e-05
-0.000274336
3.44359e-05
-0.00026201
3.12674e-05
-0.000250208
2.80333e-05
-0.000238869
2.5177e-05
-0.000227974
2.23821e-05
-0.000217559
1.96645e-05
-0.0002074
1.70951e-05
-0.000197668
1.46683e-05
-0.000188175
1.22808e-05
-0.000178914
1.00788e-05
-0.000169746
7.9413e-06
-0.000160508
5.80443e-06
-0.000150876
3.78091e-06
-0.000139896
1.89525e-06
-0.000127898
0.00991744
0.0189446
0.0103718
0.0201479
0.0108488
0.0214249
0.0113471
0.0227798
0.0118667
0.0242189
0.0124078
0.0257429
0.0129719
0.0273628
0.0135574
0.0290765
0.0141702
0.030892
0.0148039
0.0328183
0.0154634
0.0348554
0.0161476
0.0370139
0.0168556
0.0392991
0.01759
0.0417152
0.0183494
0.0442705
0.0191393
0.0469699
0.0199553
0.0498196
0.0207991
0.0528395
0.0216642
0.0560242
0.0225592
0.0593916
0.0234763
0.0629449
0.0244286
0.0666838
0.0254068
0.070636
0.0264059
0.0748063
0.0274346
0.0791966
0.0284851
0.0838272
0.0295589
0.0886986
0.0306655
0.0938298
0.0317864
0.0992377
0.0329301
0.104917
0.0340926
0.1109
0.0352776
0.117181
0.0364788
0.123794
0.037687
0.130733
0.0389124
0.138027
0.0401436
0.145687
0.0413801
0.153726
0.0426144
0.162166
0.0438452
0.171011
0.045081
0.18029
0.0462953
0.190018
0.0474931
0.20021
0.0486678
0.210896
0.0498144
0.222086
0.0509228
0.233805
0.0519893
0.246078
0.0530054
0.258927
0.0539626
0.27238
0.0548789
0.286457
5.41279e-05
-0.000333984
4.98802e-05
-0.000319136
4.58464e-05
-0.000304859
4.20116e-05
-0.000291249
3.83474e-05
-0.000278247
3.49049e-05
-0.000265647
3.15859e-05
-0.000253761
2.85596e-05
-0.000242251
2.56045e-05
-0.000231197
2.26829e-05
-0.000220578
2.0015e-05
-0.00021032
1.74469e-05
-0.000200447
1.49255e-05
-0.000190819
1.25939e-05
-0.00018143
1.03324e-05
-0.000172137
8.07807e-06
-0.000162782
5.94415e-06
-0.000153039
3.96411e-06
-0.000141965
1.95199e-06
-0.00012985
0.00951039
0.018218
0.00994855
0.0193678
0.0104048
0.0205919
0.0108831
0.0218889
0.0113812
0.0232654
0.0119007
0.024726
0.0124416
0.0262732
0.0130056
0.0279147
0.013591
0.0296557
0.0141995
0.0314964
0.0148332
0.0334484
0.0154896
0.0355134
0.0161708
0.0376988
0.0168778
0.0400113
0.0176062
0.0424584
0.0183666
0.0450432
0.0191446
0.0477807
0.0199517
0.050667
0.0207851
0.0537185
0.02165
0.0569335
0.0225333
0.0603347
0.0234517
0.0639218
0.0243823
0.0677083
0.0253503
0.0716916
0.0263378
0.0759031
0.0273486
0.0803331
0.0283876
0.0849985
0.0294522
0.089912
0.0305323
0.0950838
0.031634
0.100534
0.0327508
0.106259
0.0338993
0.112279
0.0350488
0.11861
0.0362196
0.125262
0.0373975
0.132248
0.0385875
0.139583
0.0397793
0.147288
0.040978
0.155362
0.0421707
0.16384
0.0433623
0.17273
0.0445376
0.182048
0.0456964
0.191815
0.0468388
0.202038
0.047953
0.212757
0.0490317
0.223977
0.0500684
0.235726
0.0510569
0.248026
0.0519887
0.260901
0.052833
0.274426
0.0536373
0.28848
5.90684e-05
-0.000354505
5.4658e-05
-0.000338762
5.04166e-05