/*--------------------------------*- C++ -*----------------------------------*\
  =========                 |
  \\      /  F ield         | OpenFOAM: The Open Source CFD Toolbox
   \\    /   O peration     | Website:  https://openfoam.org
    \\  /    A nd           | Version:  7
     \\/     M anipulation  |
\*---------------------------------------------------------------------------*/
FoamFile
{
    version     2.0;
    format      ascii;
    class       volVectorField;
    location    "1600";
    object      U;
}
// * * * * * * * * * * * * * * * * * * * * * * * * * * * * * * * * * * * * * //

dimensions      [0 1 -1 0 0 0 0];

internalField   nonuniform List<vector> 
23064
(
(49.734 13.3373 7.504e-17)
(49.7394 13.3635 8.55105e-18)
(49.7346 13.3371 0)
(49.7439 13.3893 -9.02938e-17)
(49.7402 13.3632 3.36032e-18)
(49.7351 13.3369 9.8547e-18)
(49.7503 13.4155 -8.66641e-17)
(49.7449 13.3888 8.6243e-17)
(49.7411 13.3628 -9.53994e-17)
(49.7358 13.3367 -4.89039e-18)
(49.7576 13.4426 -3.07909e-18)
(49.7518 13.4147 4.34448e-17)
(49.746 13.3882 -9.181e-17)
(49.742 13.3624 5.51042e-18)
(49.7364 13.3365 -5.28995e-18)
(49.7652 13.4705 0)
(49.7594 13.4416 -4.92676e-17)
(49.7532 13.4139 -9.29023e-17)
(49.7471 13.3875 9.0472e-17)
(49.7429 13.3619 5.63387e-18)
(49.7371 13.3363 0)
(49.7733 13.4993 -3.82138e-18)
(49.7674 13.4693 -3.57374e-18)
(49.7612 13.4406 5.16444e-17)
(49.7546 13.413 1.92332e-16)
(49.7481 13.3869 9.55502e-17)
(49.7438 13.3614 -5.73977e-18)
(49.7378 13.336 8.95731e-17)
(49.7819 13.5292 -1.31e-16)
(49.7759 13.498 7.64617e-18)
(49.7696 13.4681 0)
(49.763 13.4395 -1.12974e-16)
(49.7561 13.4121 -9.31061e-17)
(49.7492 13.3862 -1.8557e-16)
(49.7447 13.3609 0)
(49.7386 13.3357 -1.85119e-16)
(49.7909 13.5602 -1.34979e-16)
(49.7849 13.5277 6.1585e-17)
(49.7785 13.4966 0)
(49.7718 13.4668 -5.58723e-17)
(49.7649 13.4383 1.0123e-16)
(49.7575 13.4111 6.58516e-18)
(49.7504 13.3854 1.95097e-16)
(49.7457 13.3604 5.9764e-18)
(49.7393 13.3354 -8.53391e-18)
(49.8003 13.5923 -4.83825e-18)
(49.7944 13.5585 7.70178e-17)
(49.788 13.5261 -6.96884e-17)
(49.7811 13.4951 -6.07918e-17)
(49.774 13.4654 5.86019e-17)
(49.7667 13.4371 -6.88021e-18)
(49.759 13.4101 0)
(49.7515 13.3846 -1.9219e-16)
(49.7467 13.3598 1.04616e-16)
(49.7401 13.3351 6.91712e-17)
(49.8101 13.6257 0)
(49.8043 13.5905 -8.77009e-17)
(49.798 13.5567 8.14644e-17)
(49.7911 13.5244 1.35502e-16)
(49.7838 13.4935 1.25927e-16)
(49.7762 13.464 -1.23586e-16)
(49.7686 13.4358 0)
(49.7605 13.409 -6.59346e-18)
(49.7526 13.3838 -2.92269e-18)
(49.7477 13.3592 -8.48843e-17)
(49.741 13.3347 9.58027e-17)
(49.8201 13.6605 -4.77305e-17)
(49.8146 13.6238 0)
(49.8083 13.5886 1.60907e-16)
(49.8015 13.5549 -7.54945e-17)
(49.7941 13.5226 -6.57266e-17)
(49.7864 13.4918 -6.5218e-17)
(49.7785 13.4625 2.39765e-16)
(49.7704 13.4345 1.25377e-16)
(49.762 13.4079 0)
(49.7538 13.3829 1.01018e-16)
(49.7487 13.3586 0)
(49.7419 13.3343 -9.45594e-17)
(49.8305 13.6968 0)
(49.8251 13.6584 -5.05731e-17)
(49.8191 13.6217 0)
(49.8123 13.5866 -8.3207e-17)
(49.805 13.5529 8.4673e-17)
(49.7972 13.5208 7.38156e-17)
(49.7891 13.4901 8.11726e-17)
(49.7807 13.4609 -3.89345e-18)
(49.7723 13.4331 -1.1641e-16)
(49.7635 13.4067 -1.12301e-16)
(49.7549 13.382 6.61513e-18)
(49.7497 13.3579 1.0296e-16)
(49.7428 13.3338 -1.11711e-17)
(49.8411 13.7345 -5.70028e-17)
(49.836 13.6945 3.54752e-18)
(49.8302 13.6562 1.56196e-16)
(49.8236 13.6195 8.90207e-17)
(49.8164 13.5844 -9.29612e-17)
(49.8086 13.5509 -7.85071e-17)
(49.8004 13.5188 -7.25634e-17)
(49.7917 13.4883 8.06225e-17)
(49.783 13.4592 -1.18047e-16)
(49.7742 13.4316 -7.65017e-18)
(49.7651 13.4055 1.03963e-16)
(49.7561 13.381 1.0002e-16)
(49.7508 13.3572 -1.14542e-16)
(49.7438 13.3334 1.12894e-17)
(49.8519 13.7738 2.49881e-19)
(49.8472 13.7321 5.62123e-17)
(49.8416 13.6922 -6.04776e-17)
(49.8352 13.6539 -9.86352e-17)
(49.8282 13.6173 3.10478e-18)
(49.8204 13.5822 1.75706e-16)
(49.8122 13.5488 2.60714e-19)
(49.8035 13.5168 -1.4018e-17)
(49.7944 13.4864 -1.55105e-16)
(49.7852 13.4575 1.39979e-16)
(49.7761 13.4301 0)
(49.7666 13.4042 -2.59229e-19)
(49.7573 13.38 -9.20395e-17)
(49.7518 13.3564 1.29883e-17)
(49.7448 13.3328 0)
(49.863 13.8149 -4.4664e-18)
(49.8587 13.7714 0)
(49.8534 13.7296 6.72063e-17)
(49.8472 13.6897 1.17797e-16)
(49.8403 13.6514 -6.77562e-18)
(49.8327 13.6149 -9.53785e-17)
(49.8245 13.5799 -9.34497e-17)
(49.8158 13.5465 -2.63694e-19)
(49.8066 13.5147 8.68917e-17)
(49.7971 13.4845 -1.43853e-16)
(49.7875 13.4557 -1.30302e-16)
(49.778 13.4285 7.59073e-18)
(49.7682 13.4028 1.24422e-16)
(49.7585 13.379 -1.22911e-16)
(49.7529 13.3556 2.13714e-16)
(49.7458 13.3323 2.16573e-16)
(49.8744 13.8577 0)
(49.8704 13.8123 0)
(49.8654 13.7687 -4.18465e-18)
(49.8595 13.727 -6.63357e-17)
(49.8529 13.6871 -5.01753e-17)
(49.8454 13.6489 0)
(49.8373 13.6123 -1.06388e-16)
(49.8286 13.5775 5.53874e-18)
(49.8193 13.5442 -5.38753e-18)
(49.8097 13.5125 -7.65367e-17)
(49.7998 13.4824 2.78711e-16)
(49.7898 13.4538 -1.35762e-16)
(49.7799 13.4268 -1.34615e-16)
(49.7697 13.4014 -1.1566e-16)
(49.7597 13.3778 2.18645e-16)
(49.754 13.3547 -2.11289e-16)
(49.7469 13.3317 -2.0268e-16)
(49.8859 13.9024 -1.36421e-16)
(49.8823 13.855 -7.91209e-17)
(49.8777 13.8095 0)
(49.8722 13.766 8.77774e-18)
(49.8657 13.7243 0)
(49.8585 13.6843 1.20155e-16)
(49.8505 13.6462 6.62273e-18)
(49.8419 13.6097 1.05113e-16)
(49.8326 13.5749 1.15585e-17)
(49.8229 13.5418 8.63618e-17)
(49.8129 13.5102 9.62968e-18)
(49.8025 13.4803 -1.44102e-16)
(49.7921 13.4519 1.341e-16)
(49.7819 13.425 1.25408e-16)
(49.7713 13.3999 -1.19931e-16)
(49.7609 13.3767 -1.23405e-16)
(49.7552 13.3538 0)
(49.748 13.331 2.22727e-16)
(49.8977 13.949 4.60331e-17)
(49.8945 13.8995 8.4954e-17)
(49.8903 13.852 1.69112e-16)
(49.8851 13.8066 -4.71808e-18)
(49.879 13.763 0)
(49.872 13.7214 -4.21709e-18)
(49.8642 13.6815 -1.18462e-16)
(49.8556 13.6434 -6.72864e-18)
(49.8465 13.607 -6.19481e-18)
(49.8367 13.5723 6.02014e-18)
(49.8266 13.5392 -1.72834e-16)
(49.816 13.5078 -1.02449e-17)
(49.8052 13.478 -9.47722e-18)
(49.7944 13.4498 -8.79186e-18)
(49.7838 13.4232 1.30052e-16)
(49.7729 13.3984 1.33284e-16)
(49.7621 13.3755 -9.85906e-17)
(49.7563 13.3529 -1.37789e-17)
(49.7492 13.3303 -2.20505e-16)
(49.9096 13.9977 5.79537e-17)
(49.907 13.946 3.28744e-18)
(49.9032 13.8965 0)
(49.8983 13.849 -7.90991e-17)
(49.8925 13.8035 0)
(49.8858 13.76 9.0708e-18)
(49.8782 13.7183 -1.34935e-16)
(49.8698 13.6785 -7.86268e-18)
(49.8608 13.6404 1.13777e-16)
(49.8511 13.6041 1.04949e-16)
(49.8408 13.5695 9.6279e-17)
(49.8302 13.5366 9.71768e-17)
(49.8192 13.5053 9.89791e-18)
(49.8079 13.4757 -1.42572e-16)
(49.7967 13.4477 1.32012e-16)
(49.7857 13.4213 -2.68389e-16)
(49.7745 13.3967 -1.48776e-17)
(49.7633 13.3742 2.2549e-16)
(49.7575 13.3519 1.39273e-17)
(49.7504 13.3295 0)
(49.9218 14.0485 -6.248e-17)
(49.9196 13.9945 5.39581e-17)
(49.9163 13.9428 -3.34227e-18)
(49.9118 13.8932 9.09034e-17)
(49.9064 13.8458 5.63037e-18)
(49.8999 13.8003 -4.87354e-18)
(49.8926 13.7568 7.46197e-17)
(49.8844 13.7151 1.41274e-16)
(49.8755 13.6754 7.97782e-18)
(49.8659 13.6374 -1.192e-16)
(49.8557 13.6012 -1.03248e-16)
(49.8449 13.5667 -1.01247e-16)
(49.8338 13.5338 0)
(49.8223 13.5027 -1.76512e-16)
(49.8106 13.4733 1.59264e-16)
(49.799 13.4455 -1.39655e-16)
(49.7877 13.4193 1.38439e-16)
(49.7761 13.395 0)
(49.7646 13.3728 -1.27201e-16)
(49.7587 13.3508 -2.244e-16)
(49.7517 13.3287 -2.41647e-16)
(49.9342 14.1015 0)
(49.9325 14.0452 -2.00212e-18)
(49.9296 13.9912 -5.3018e-17)
(49.9256 13.9394 0)
(49.9205 13.8899 -1.99315e-16)
(49.9144 13.8424 0)
(49.9074 13.7969 0)
(49.8994 13.7534 -7.35861e-17)
(49.8907 13.7118 4.87483e-19)
(49.8812 13.6721 0)
(49.871 13.6342 -1.1691e-16)
(49.8603 13.5981 6.46243e-18)
(49.8491 13.5637 -9.87922e-17)
(49.8374 13.531 1.09801e-17)
(49.8255 13.5 -3.92637e-18)
(49.8134 13.4708 1.9236e-17)
(49.8013 13.4432 -1.52807e-16)
(49.7896 13.4173 0)
(49.7777 13.3933 -6.08742e-19)
(49.7658 13.3714 1.46605e-17)
(49.7599 13.3496 -3.78398e-18)
(49.753 13.3278 4.32869e-16)
(49.9468 14.1569 0)
(49.9456 14.0981 -4.45299e-18)
(49.9433 14.0417 1.3111e-16)
(49.9397 13.9877 1.18395e-16)
(49.935 13.9359 1.08605e-16)
(49.9292 13.8863 9.67417e-17)
(49.9225 13.8388 0)
(49.9148 13.7934 0)
(49.9063 13.7499 -1.62651e-16)
(49.897 13.7084 0)
(49.8869 13.6687 0)
(49.8762 13.6309 1.22945e-16)
(49.8649 13.5948 0)
(49.8532 13.5606 9.7591e-17)
(49.841 13.528 1.95835e-16)
(49.8286 13.4972 -1.41078e-17)
(49.8161 13.4681 1.56986e-16)
(49.8036 13.4408 -3.05537e-18)
(49.7916 13.4151 1.64792e-17)
(49.7793 13.3914 -1.53094e-17)
(49.7671 13.3699 1.45448e-17)
(49.7611 13.3485 2.23982e-16)
(49.7543 13.3268 -2.29795e-16)
(49.9596 14.2147 -8.44499e-17)
(49.959 14.1533 4.64817e-18)
(49.9571 14.0945 6.25125e-17)
(49.954 14.0381 -6.76754e-17)
(49.9498 13.984 -1.1664e-16)
(49.9444 13.9322 -1.0703e-16)
(49.938 13.8826 0)
(49.9306 13.8351 -5.88001e-18)
(49.9223 13.7896 0)
(49.9132 13.7462 1.51396e-16)
(49.9032 13.7047 9.05531e-18)
(49.8926 13.6651 1.22788e-16)
(49.8814 13.6274 0)
(49.8695 13.5915 0)
(49.8573 13.5573 7.61066e-17)
(49.8447 13.5249 -3.56417e-16)
(49.8318 13.4943 1.6795e-16)
(49.8188 13.4654 1.33971e-17)
(49.8059 13.4383 1.4397e-16)
(49.7935 13.4129 1.54141e-16)
(49.781 13.3895 -1.27236e-16)
(49.7684 13.3684 0)
(49.7623 13.3472 1.44606e-17)
(49.7557 13.3258 1.20756e-17)
(49.9726 14.275 9.03344e-17)
(49.9726 14.211 8.31277e-17)
(49.9713 14.1496 9.71697e-18)
(49.9687 14.0906 6.45393e-18)
(49.9648 14.0342 -7.0603e-17)
(49.9599 13.9801 -7.73271e-18)
(49.9538 13.9283 -1.11648e-16)
(49.9467 13.8786 -9.61846e-17)
(49.9387 13.8312 -9.3759e-17)
(49.9298 13.7858 0)
(49.92 13.7424 -1.56852e-16)
(49.9095 13.701 0)
(49.8983 13.6615 -1.2901e-16)
(49.8865 13.6238 0)
(49.8742 13.588 6.33969e-18)
(49.8614 13.554 -3.16863e-16)
(49.8483 13.5217 3.72312e-16)
(49.835 13.4913 1.62988e-16)
(49.8215 13.4626 -1.67055e-16)
(49.8083 13.4357 -1.80359e-17)
(49.7955 13.4106 -1.35472e-16)
(49.7826 13.3875 2.38038e-16)
(49.7696 13.3668 1.5019e-17)
(49.7636 13.3459 0)
(49.7572 13.3246 0)
(49.9858 14.3381 -3.25925e-18)
(49.9865 14.2712 2.99962e-18)
(49.9857 14.2071 -1.07312e-17)
(49.9836 14.1456 0)
(49.9802 14.0866 -6.68754e-17)
(49.9757 14.0301 6.922e-17)
(49.97 13.976 -1.23403e-16)
(49.9632 13.9241 1.10091e-16)
(49.9555 13.8745 1.00926e-16)
(49.9468 13.8271 1.87432e-16)
(49.9373 13.7817 8.75611e-17)
(49.9269 13.7384 3.14668e-16)
(49.9158 13.6971 0)
(49.904 13.6576 0)
(49.8917 13.6201 1.30013e-16)
(49.8788 13.5844 -1.26831e-16)
(49.8655 13.5505 2.0222e-16)
(49.8519 13.5184 -1.86131e-16)
(49.8381 13.4881 -3.36197e-16)
(49.8242 13.4597 -1.61678e-16)
(49.8106 13.433 -1.89482e-17)
(49.7975 13.4082 3.45133e-17)
(49.7842 13.3854 1.32155e-16)
(49.7709 13.3651 0)
(49.7648 13.3445 0)
(49.7587 13.3234 0)
(49.9992 14.4038 3.40124e-18)
(50.0005 14.3341 -3.13046e-18)
(50.0004 14.2671 5.75775e-18)
(49.9988 14.2029 0)
(49.9959 14.1413 0)
(49.9918 14.0823 -6.98712e-17)
(49.9865 14.0258 0)
(49.9801 13.9717 1.13732e-16)
(49.9727 13.9198 0)
(49.9643 13.8703 0)
(49.9549 13.8228 -9.91202e-17)
(49.9448 13.7775 -9.70199e-17)
(49.9338 13.7343 -3.18421e-16)
(49.9221 13.693 0)
(49.9097 13.6536 -8.60014e-18)
(49.8968 13.6162 -1.06256e-16)
(49.8834 13.5806 2.24951e-16)
(49.8696 13.5469 0)
(49.8555 13.515 -1.92025e-16)
(49.8413 13.4849 3.50189e-16)
(49.827 13.4567 1.90138e-16)
(49.8129 13.4303 7.58087e-19)
(49.7994 13.4056 -1.5737e-16)
(49.7859 13.3832 -2.56104e-16)
(49.7722 13.3634 1.52269e-17)
(49.7661 13.343 0)
(49.7603 13.3222 0)
(50.0129 14.4725 5.85876e-17)
(50.0149 14.3997 -3.64758e-18)
(50.0153 14.3298 0)
(50.0143 14.2628 -9.1176e-17)
(50.012 14.1985 0)
(50.0083 14.1369 0)
(50.0034 14.0778 7.32665e-17)
(49.9974 14.0213 8.28739e-18)
(49.9903 13.9672 0)
(49.9822 13.9153 0)
(49.9731 13.8658 -1.19254e-16)
(49.9631 13.8184 1.16813e-17)
(49.9523 13.7732 1.77934e-16)
(49.9407 13.73 6.59571e-18)
(49.9284 13.6888 8.97834e-18)
(49.9155 13.6495 0)
(49.902 13.6122 1.25236e-16)
(49.888 13.5767 -1.12438e-16)
(49.8737 13.5432 0)
(49.8591 13.5114 1.89989e-16)
(49.8444 13.4815 -1.97158e-16)
(49.8297 13.4535 -1.94906e-16)
(49.8152 13.4274 0)
(49.8014 13.403 -2.02307e-17)
(49.7875 13.3809 -1.5898e-17)
(49.7735 13.3615 0)
(49.7674 13.3415 2.49187e-16)
(49.7619 13.3208 0)
(50.0268 14.5441 8.49342e-18)
(50.0295 14.4682 -1.21202e-16)
(50.0306 14.3952 -1.20454e-16)
(50.0302 14.3253 1.00909e-16)
(50.0283 14.2582 9.58935e-17)
(50.0252 14.1938 0)
(50.0207 14.1322 -5.27521e-18)
(50.0151 14.0731 0)
(50.0083 14.0166 0)
(50.0005 13.9624 8.13455e-18)
(49.9916 13.9107 1.44972e-17)
(49.9819 13.8611 -2.56555e-18)
(49.9712 13.8138 1.25e-17)
(49.9598 13.7686 -1.86558e-16)
(49.9476 13.7255 1.60942e-16)
(49.9347 13.6844 1.41141e-16)
(49.9212 13.6452 -1.38044e-16)
(49.9071 13.608 -1.3993e-16)
(49.8927 13.5727 1.01213e-16)
(49.8778 13.5393 1.3536e-17)
(49.8628 13.5077 2.42598e-17)
(49.8476 13.478 -1.69077e-16)
(49.8324 13.4503 1.73437e-16)
(49.8175 13.4244 -1.53997e-16)
(49.8034 13.4003 2.64383e-16)
(49.7892 13.3785 0)
(49.7748 13.3596 -1.51152e-17)
(49.7687 13.3398 -2.32757e-16)
(49.7636 13.3193 -2.31146e-16)
(50.041 14.6189 -8.03879e-17)
(50.0444 14.5396 6.54438e-17)
(50.0462 14.4635 6.63222e-17)
(50.0463 14.3905 -3.32521e-18)
(50.0451 14.3205 -1.12635e-16)
(50.0424 14.2533 0)
(50.0384 14.1889 9.71624e-17)
(50.0331 14.1273 5.33969e-18)
(50.0267 14.0682 0)
(50.0192 14.0116 -8.49111e-18)
(50.0106 13.9575 -1.60069e-17)
(50.0011 13.9058 1.18501e-16)
(49.9907 13.8563 9.29135e-17)
(49.9794 13.809 0)
(49.9673 13.7639 1.93301e-16)
(49.9544 13.7208 2.05996e-17)
(49.941 13.6798 -1.48996e-16)
(49.9269 13.6408 1.53296e-16)
(49.9123 13.6037 1.26838e-16)
(49.8973 13.5686 9.03355e-17)
(49.8819 13.5353 -2.66389e-17)
(49.8664 13.5039 0)
(49.8507 13.4744 1.67224e-16)
(49.8351 13.4469 -9.4443e-19)
(49.8198 13.4213 1.70606e-16)
(49.8053 13.3975 2.21089e-18)
(49.7909 13.376 2.8229e-16)
(49.7761 13.3576 2.42971e-16)
(49.77 13.3381 -1.46101e-17)
(49.7653 13.3177 2.5727e-16)
(50.0554 14.697 -5.27968e-18)
(50.0596 14.6143 1.51283e-16)
(50.062 14.5348 -7.32703e-17)
(50.0628 14.4586 -1.30303e-16)
(50.0621 14.3855 2.35932e-16)
(50.06 14.3154 6.98359e-18)
(50.0564 14.2482 0)
(50.0516 14.1838 -9.59367e-17)
(50.0456 14.1221 5.40247e-18)
(50.0384 14.063 0)
(50.0301 14.0065 -1.34244e-16)
(50.0208 13.9524 -8.31848e-18)
(50.0106 13.9007 -1.16992e-16)
(49.9995 13.8512 1.09608e-16)
(49.9875 13.804 -1.2073e-17)
(49.9748 13.759 -1.90636e-16)
(49.9613 13.716 0)
(49.9472 13.6751 1.635e-16)
(49.9326 13.6362 1.69671e-17)
(49.9174 13.5993 -2.39636e-16)
(49.9019 13.5643 -2.17394e-16)
(49.886 13.5312 1.37832e-17)
(49.87 13.5 1.98899e-16)
(49.8538 13.4707 2.21609e-17)
(49.8378 13.4434 1.46979e-16)
(49.8221 13.418 1.55368e-16)
(49.8073 13.3946 -1.41332e-16)
(49.7925 13.3735 -2.80171e-16)
(49.7774 13.3555 -2.25754e-16)
(49.7713 13.3363 -1.56804e-17)
(49.7671 13.316 2.34126e-16)
(32.8836 -3.01144 0)
(50.07 14.7784 9.15921e-17)
(50.075 14.6921 5.07897e-18)
(50.0782 14.6093 -1.48936e-16)
(50.0797 14.5297 6.71734e-17)
(50.0796 14.4534 2.68207e-16)
(50.0779 14.3802 -1.25326e-16)
(50.0749 14.3101 -1.18439e-16)
(50.0705 14.2428 0)
(50.0649 14.1784 -1.15941e-17)
(50.058 14.1167 -1.71947e-16)
(50.0501 14.0576 0)
(50.041 14.0011 1.49654e-16)
(50.031 13.947 -1.40566e-16)
(50.0201 13.8954 1.13273e-16)
(50.0083 13.846 1.65194e-17)
(49.9956 13.7989 1.28953e-17)
(49.9822 13.7539 1.85325e-16)
(49.9682 13.711 -2.10118e-17)
(49.9535 13.6703 1.30001e-17)
(49.9383 13.6315 -1.60069e-16)
(49.9226 13.5947 2.57523e-16)
(49.9065 13.5598 -1.43875e-17)
(49.8901 13.5269 0)
(49.8735 13.4959 3.48432e-18)
(49.857 13.4668 1.06158e-17)
(49.8405 13.4398 -1.66859e-16)
(49.8244 13.4147 -3.29415e-16)
(49.8092 13.3915 -2.9071e-16)
(49.7942 13.3708 -1.70139e-17)
(49.7787 13.3533 -1.531e-17)
(49.7726 13.3344 2.38158e-16)
(49.769 13.3142 -2.07766e-16)
(35.3905 -3.22335 0)
(33.3924 -2.98678 1.66383e-15)
(50.0849 14.8634 -1.00958e-16)
(50.0907 14.7734 -5.88478e-18)
(50.0947 14.6869 0)
(50.0969 14.6039 8.14685e-17)
(50.0974 14.5243 1.95508e-18)
(50.0963 14.4479 -2.63481e-16)
(50.0938 14.3747 1.37818e-16)
(50.0899 14.3045 1.02643e-16)
(50.0846 14.2372 6.21552e-18)
(50.0781 14.1727 9.47781e-17)
(50.0705 14.111 1.80701e-16)
(50.0617 14.052 0)
(50.052 13.9955 -1.37022e-16)
(50.0412 13.9415 2.72014e-16)
(50.0295 13.8899 -1.342e-16)
(50.017 13.8406 -2.34608e-16)
(50.0038 13.7935 -2.04482e-16)
(49.9897 13.7486 -1.71951e-16)
(49.975 13.7059 5.85367e-19)
(49.9598 13.6652 2.19332e-17)
(49.9439 13.6266 1.40493e-16)
(49.9277 13.5899 -1.28672e-16)
(49.911 13.5552 0)
(49.8941 13.5225 0)
(49.8771 13.4917 -3.88356e-16)
(49.8601 13.4629 0)
(49.8431 13.436 0)
(49.8266 13.4112 1.6892e-17)
(49.8112 13.3884 1.38012e-17)
(49.7959 13.368 -1.71049e-17)
(49.78 13.351 -2.4561e-16)
(49.774 13.3324 -2.36411e-16)
(49.7709 13.3123 2.45221e-17)
(37.2751 -3.38156 0)
(35.9093 -3.19577 -1.05618e-20)
(33.9 -2.95802 4.79979e-21)
(50.1001 14.952 6.05336e-17)
(50.1068 14.8581 6.42571e-18)
(50.1115 14.768 0)
(50.1144 14.6814 0)
(50.1156 14.5983 5.06139e-18)
(50.1151 14.5186 -7.15274e-17)
(50.1131 14.4421 -2.01378e-17)
(50.1096 14.3688 -1.13457e-16)
(50.1048 14.2986 0)
(50.0987 14.2313 -9.78045e-17)
(50.0914 14.1668 -3.19523e-18)
(50.0829 14.1051 0)
(50.0734 14.0461 1.71001e-16)
(50.0629 13.9897 -3.24391e-18)
(50.0514 13.9357 -1.3184e-16)
(50.039 13.8842 -1.23301e-16)
(50.0258 13.8349 1.1046e-16)
(50.0119 13.788 2.02148e-16)
(49.9972 13.7432 1.6532e-16)
(49.9819 13.7006 -1.72595e-16)
(49.966 13.66 -1.54865e-16)
(49.9496 13.6215 -1.84038e-17)
(49.9328 13.585 0)
(49.9156 13.5505 0)
(49.8982 13.5179 0)
(49.8807 13.4873 2.00152e-16)
(49.8632 13.4587 0)
(49.8458 13.4322 0)
(49.8289 13.4077 1.79151e-17)
(49.8131 13.3851 1.40506e-17)
(49.7975 13.365 0)
(49.7814 13.3486 4.90105e-16)
(49.7753 13.3304 2.95958e-17)
(49.7728 13.3102 2.45048e-17)
(38.6512 -3.49312 0)
(37.8103 -3.3516 -3.51977e-16)
(36.4293 -3.16379 4.92384e-16)
(34.4119 -2.92514 -1.75933e-15)
(50.1155 15.0445 5.70971e-17)
(50.1231 14.9466 -1.15535e-16)
(50.1287 14.8525 2.04009e-16)
(50.1323 14.7622 -9.53394e-17)
(50.1342 14.6755 -9.30706e-17)
(50.1343 14.5923 0)
(50.1329 14.5125 8.93662e-18)
(50.1299 14.436 1.33107e-16)
(50.1255 14.3626 1.25332e-16)
(50.1198 14.2924 -6.92219e-18)
(50.1128 14.2251 9.66923e-17)
(50.1047 14.1607 -9.45051e-17)
(50.0954 14.099 -1.067e-17)
(50.0851 14.04 -3.10749e-16)
(50.0738 13.9836 1.45411e-16)
(50.0616 13.9297 0)
(50.0485 13.8782 1.37701e-16)
(50.0346 13.8291 -1.44947e-17)
(50.02 13.7822 2.58043e-17)
(50.0047 13.7376 -3.76995e-16)
(49.9887 13.6951 1.70767e-16)
(49.9722 13.6546 1.92073e-17)
(49.9552 13.6163 1.85571e-17)
(49.9379 13.5799 -2.66433e-16)
(49.9202 13.5456 1.55415e-17)
(49.9022 13.5132 2.37671e-16)
(49.8842 13.4828 -2.04872e-16)
(49.8663 13.4545 0)
(49.8485 13.4282 -1.93807e-16)
(49.8311 13.404 3.16021e-16)
(49.815 13.3817 -3.64431e-18)
(49.7992 13.362 -1.72697e-17)
(49.7827 13.3461 -2.75442e-16)
(49.7766 13.3282 -2.9658e-17)
(49.7748 13.308 -2.86059e-17)
(39.7943 -3.58162 0)
(39.1993 -3.46142 0)
(38.3475 -3.31735 3.63099e-16)
(36.9542 -3.12742 1.84855e-20)
(34.9255 -2.88679 0)
(50.1311 15.1409 2.25856e-18)
(50.1397 15.0388 1.75826e-18)
(50.1462 14.9407 1.14015e-16)
(50.1506 14.8465 -1.0187e-16)
(50.1532 14.7561 8.77944e-17)
(50.154 14.6693 8.64941e-17)
(50.1531 14.586 0)
(50.1507 14.5061 0)
(50.1467 14.4296 -1.46676e-16)
(50.1414 14.3562 -2.50215e-16)
(50.1348 14.2859 0)
(50.127 14.2186 -1.13286e-16)
(50.1179 14.1542 1.24142e-17)
(50.1079 14.0926 1.68102e-16)
(50.0968 14.0337 1.60309e-16)
(50.0847 13.9773 0)
(50.0717 13.9235 1.20657e-16)
(50.0579 13.8721 1.51269e-17)
(50.0434 13.8231 -2.28774e-16)
(50.0281 13.7763 0)
(50.0121 13.7318 3.80236e-16)
(49.9955 13.6894 -1.11832e-17)
(49.9784 13.6491 -3.98189e-17)
(49.9609 13.6109 -1.28022e-16)
(49.9429 13.5747 -3.65182e-18)
(49.9247 13.5405 -1.48556e-17)
(49.9062 13.5084 -2.21445e-16)
(49.8877 13.4782 2.16244e-16)
(49.8693 13.4501 1.89247e-16)
(49.8511 13.424 -2.45064e-17)
(49.8334 13.4001 2.03557e-18)
(49.8169 13.3782 3.10299e-16)
(49.8009 13.3589 -1.73436e-17)
(49.784 13.3434 6.27082e-17)
(49.7779 13.3259 3.10181e-17)
(49.7769 13.3056 2.40435e-16)
(40.809 -3.6573 0)
(40.3543 -3.54875 0)
(39.7495 -3.42542 -5.4891e-16)
(38.8876 -3.27765 3.74215e-16)
(37.4776 -3.0859 0)
(35.442 -2.84375 -1.85416e-15)
(50.1471 15.2414 -1.43775e-16)
(50.1567 15.135 6.98588e-17)
(50.1641 15.0327 -1.88976e-16)
(50.1693 14.9345 0)
(50.1727 14.8401 -3.36396e-19)
(50.1741 14.7496 0)
(50.1738 14.6627 0)
(50.1719 14.5793 0)
(50.1685 14.4994 -1.42553e-16)
(50.1636 14.4228 -3.26983e-18)
(50.1573 14.3494 1.1679e-16)
(50.1498 14.2792 7.06362e-18)
(50.1411 14.2119 9.21915e-17)
(50.1312 14.1475 -1.97042e-16)
(50.1203 14.0859 -1.7667e-16)
(50.1084 14.0271 -1.65234e-16)
(50.0956 13.9708 0)
(50.0819 13.9171 -1.26805e-16)
(50.0674 13.8658 -1.41815e-16)
(50.0521 13.8168 4.73234e-16)
(50.0361 13.7702 2.11613e-16)
(50.0195 13.7258 1.51986e-17)
(50.0023 13.6835 2.13444e-17)
(49.9846 13.6434 -1.95212e-17)
(49.9665 13.6053 1.27471e-16)
(49.948 13.5693 5.36367e-16)
(49.9292 13.5353 -2.47425e-16)
(49.9102 13.5034 -1.3711e-17)
(49.8912 13.4734 0)
(49.8724 13.4455 4.99994e-17)
(49.8537 13.4198 1.72455e-16)
(49.8356 13.3961 -1.7912e-16)
(49.8188 13.3745 1.80996e-17)
(49.8025 13.3556 2.40945e-16)
(49.7853 13.3407 -2.47803e-16)
(49.7793 13.3235 0)
(49.779 13.3031 -5.33525e-16)
(41.7494 -3.72506 0)
(41.3809 -3.62343 0)
(40.9169 -3.51127 1.94637e-20)
(40.3029 -3.38381 -2.83085e-16)
(39.4298 -3.23345 0)
(38.0089 -3.03909 5.34804e-16)
(35.9632 -2.79612 0)
(50.1633 15.3462 -8.48911e-17)
(50.174 15.2353 1.41478e-16)
(50.1823 15.1287 0)
(50.1885 15.0263 1.22732e-16)
(50.1926 14.9279 -3.66228e-19)
(50.1947 14.8334 0)
(50.1951 14.7427 9.85937e-17)
(50.1937 14.6557 0)
(50.1907 14.5723 0)
(50.1863 14.4924 3.0276e-16)
(50.1804 14.4158 2.86535e-16)
(50.1732 14.3424 8.19841e-18)
(50.1648 14.2721 7.52157e-18)
(50.1552 14.2049 1.08478e-16)
(50.1445 14.1406 1.94603e-16)
(50.1327 14.079 -1.70451e-16)
(50.1201 14.0202 1.6329e-16)
(50.1065 13.964 -9.19364e-18)
(50.092 13.9104 -1.2173e-16)
(50.0768 13.8592 1.26033e-16)
(50.0608 13.8104 -2.2897e-16)
(50.0442 13.7638 3.86651e-18)
(50.0269 13.7196 -1.91489e-16)
(50.0091 13.6775 -1.13611e-17)
(49.9908 13.6375 2.07722e-17)
(49.9721 13.5996 -1.48895e-16)
(49.953 13.5638 -2.67977e-16)
(49.9337 13.53 -3.82775e-18)
(49.9142 13.4982 0)
(49.8947 13.4685 -2.53099e-17)
(49.8754 13.4409 -1.88878e-16)
(49.8563 13.4153 4.37211e-17)
(49.8378 13.392 1.40794e-16)
(49.8207 13.3707 3.17001e-16)
(49.8042 13.3521 -2.72252e-16)
(49.7866 13.3378 2.46238e-16)
(49.7806 13.321 6.0967e-17)
(49.7812 13.3004 2.6882e-16)
(42.6469 -3.78772 1.45791e-16)
(42.3335 -3.69039 0)
(41.9558 -3.58484 1.92749e-16)
(41.4828 -3.46818 4.63248e-16)
(40.8597 -3.33739 0)
(39.9773 -3.18339 -3.96352e-16)
(38.5432 -2.98713 5.48874e-16)
(36.4883 -2.7423 0)
(50.1798 15.4555 -1.72875e-16)
(50.1916 15.3399 -2.29157e-18)
(50.2009 15.2288 -7.28634e-17)
(50.208 15.122 -4.37771e-18)
(50.2129 15.0193 1.35239e-16)
(50.2158 14.9208 0)
(50.2168 14.8262 -6.8618e-18)
(50.216 14.7355 -2.03109e-16)
(50.2136 14.6484 0)
(50.2096 14.565 -1.06858e-17)
(50.2041 14.485 -1.51105e-16)
(50.1973 14.4084 -2.89251e-16)
(50.1891 14.335 -1.29772e-16)
(50.1798 14.2648 -1.19378e-16)
(50.1693 14.1976 -3.39883e-16)
(50.1577 14.1333 -2.48382e-17)
(50.1452 14.0719 -3.66864e-18)
(50.1317 14.0131 1.57303e-16)
(50.1173 13.9571 -1.72259e-16)
(50.1021 13.9035 1.21002e-16)
(50.0862 13.8524 0)
(50.0695 13.8037 0)
(50.0522 13.7573 -2.111e-16)
(50.0343 13.7132 2.4378e-17)
(50.0159 13.6712 -2.01167e-16)
(49.997 13.6314 0)
(49.9776 13.5937 1.47547e-16)
(49.958 13.558 -2.91637e-16)
(49.9382 13.5244 2.46984e-16)
(49.9182 13.4929 0)
(49.8982 13.4634 0)
(49.8784 13.436 -4.78952e-17)
(49.8589 13.4108 2.1444e-17)
(49.84 13.3878 -3.62619e-16)
(49.8226 13.3668 -1.60002e-17)
(49.8058 13.3486 -2.58191e-16)
(49.788 13.3348 -2.79421e-16)
(49.7819 13.3183 -3.12742e-17)
(49.7835 13.2975 2.14571e-16)
(43.5209 -3.84693 -1.51004e-20)
(43.2435 -3.7523 0)
(42.921 -3.65084 0)
(42.5345 -3.54056 -1.99325e-16)
(42.053 -3.42031 0)
(41.4213 -3.28485 3.00494e-16)
(40.5294 -3.12799 -8.14947e-16)
(39.0819 -2.92866 0)
(37.0217 -2.68357 0)
(50.1966 15.5694 -2.53487e-19)
(50.2095 15.4489 8.63275e-17)
(50.2199 15.3331 7.9844e-17)
(50.2279 15.2218 8.03676e-17)
(50.2337 15.1148 0)
(50.2374 15.012 -1.25673e-16)
(50.2391 14.9133 7.15582e-18)
(50.2389 14.8186 6.58827e-18)
(50.237 14.7278 9.82066e-17)
(50.2335 14.6407 1.11464e-17)
(50.2284 14.5572 -1.07873e-17)
(50.2219 14.4773 -9.90941e-18)
(50.2141 14.4007 1.40553e-16)
(50.205 14.3273 1.28543e-16)
(50.1947 14.2572 1.32413e-16)
(50.1834 14.19 8.83328e-18)
(50.1709 14.1258 0)
(50.1576 14.0644 3.77593e-16)
(50.1433 14.0058 -1.66098e-16)
(50.1281 13.9498 1.5202e-16)
(50.1122 13.8964 0)
(50.0955 13.8454 -2.59081e-16)
(50.0782 13.7969 1.50978e-17)
(50.0602 13.7506 -2.68697e-17)
(50.0417 13.7066 0)
(50.0226 13.6648 3.58556e-16)
(50.0031 13.6251 -2.10748e-17)
(49.9832 13.5876 -1.32692e-16)
(49.963 13.5521 2.71813e-16)
(49.9426 13.5188 -2.36187e-16)
(49.9221 13.4874 0)
(49.9016 13.4582 -1.85586e-16)
(49.8814 13.431 0)
(49.8615 13.4061 -1.06987e-18)
(49.8422 13.3834 -1.23783e-16)
(49.8245 13.3627 -3.15452e-16)
(49.8075 13.3449 2.74045e-16)
(49.7893 13.3317 4.95396e-16)
(49.7832 13.3156 6.11078e-17)
(49.7858 13.2945 2.21475e-18)
(44.3841 -3.90383 -1.56458e-20)
(44.1303 -3.81089 0)
(43.844 -3.71198 0)
(43.5129 -3.60559 1.77837e-16)
(43.1182 -3.4913 0)
(42.6285 -3.36591 0)
(41.9881 -3.22704 3.07484e-20)
(41.0866 -3.06613 1.25202e-20)
(39.6283 -2.86558 0)
(37.5569 -2.6173 3.343e-20)
(50.2136 15.688 5.41851e-17)
(50.2278 15.5626 -3.41548e-18)
(50.2393 15.4419 5.68651e-18)
(50.2483 15.3258 -5.25557e-18)
(50.255 15.2143 -7.46636e-17)
(50.2595 15.1071 0)
(50.2619 15.0042 8.25648e-18)
(50.2624 14.9054 0)
(50.261 14.8107 0)
(50.258 14.7198 6.44232e-18)
(50.2534 14.6327 1.97881e-16)
(50.2473 14.5492 -1.61085e-16)
(50.2397 14.4692 -1.6686e-16)
(50.2309 14.3926 0)
(50.2209 14.3193 0)
(50.2097 14.2492 -1.36804e-16)
(50.1974 14.1822 2.32145e-16)
(50.1841 14.118 1.29625e-17)
(50.1699 14.0568 3.52836e-18)
(50.1548 13.9982 1.7061e-16)
(50.1389 13.9424 0)
(50.1223 13.889 1.81902e-17)
(50.1049 13.8382 2.5731e-16)
(50.0868 13.7898 -2.24129e-16)
(50.0682 13.7437 0)
(50.049 13.6998 0)
(50.0293 13.6582 -1.8033e-16)
(50.0092 13.6187 0)
(49.9887 13.5814 1.49651e-16)
(49.968 13.5461 -1.67963e-17)
(49.947 13.5129 2.50276e-16)
(49.926 13.4818 0)
(49.9051 13.4528 2.09635e-16)
(49.8844 13.4259 1.93193e-16)
(49.864 13.4012 -4.43556e-17)
(49.8443 13.3788 3.43988e-16)
(49.8263 13.3585 0)
(49.8091 13.341 -3.52599e-17)
(49.7906 13.3284 -2.78191e-16)
(49.7845 13.3127 0)
(49.7881 13.2912 -2.42971e-16)
(45.2455 -3.95913 -1.64077e-20)
(45.0068 -3.8672 0)
(44.7443 -3.76984 0)
(44.4496 -3.66578 -2.01888e-20)
(44.1104 -3.55513 0)
(43.7075 -3.43554 0)
(43.2096 -3.30628 2.53993e-16)
(42.5608 -3.16264 0)
(41.6506 -2.99864 4.2973e-16)
(40.1771 -2.79569 1.18234e-15)
(38.1004 -2.54628 0)
(50.231 15.8116 0)
(50.2464 15.681 6.40623e-18)
(50.2591 15.5553 -2.0008e-16)
(50.2692 15.4343 5.47807e-18)
(50.2768 15.3181 0)
(50.2821 15.2063 -7.74696e-17)
(50.2853 15.099 -8.60865e-18)
(50.2865 14.996 8.34081e-18)
(50.2857 14.8971 0)
(50.2832 14.8023 -1.37886e-17)
(50.279 14.7114 0)
(50.2733 14.6242 -3.72412e-16)
(50.2661 14.5408 1.69195e-16)
(50.2575 14.4608 1.65435e-16)
(50.2477 14.3843 0)
(50.2367 14.3111 2.45927e-17)
(50.2246 14.241 -1.71578e-17)
(50.2115 14.174 1.96311e-16)
(50.1973 14.11 0)
(50.1823 14.0488 1.54191e-17)
(50.1664 13.9904 -1.57805e-16)
(50.1497 13.9347 1.0535e-18)
(50.1323 13.8815 -1.73564e-17)
(50.1142 13.8308 0)
(50.0954 13.7825 2.36211e-16)
(50.0761 13.7365 0)
(50.0563 13.6929 -2.01878e-16)
(50.0359 13.6514 0)
(50.0152 13.6121 -1.67339e-16)
(49.9942 13.5749 -3.05747e-16)
(49.9729 13.5399 0)
(49.9514 13.5069 -1.6297e-17)
(49.9299 13.476 -2.33342e-16)
(49.9085 13.4472 -1.87512e-16)
(49.8873 13.4206 -1.69373e-16)
(49.8665 13.3962 -2.17241e-17)
(49.8465 13.3741 -3.48401e-16)
(49.8281 13.3541 3.38349e-16)
(49.8107 13.337 0)
(49.7919 13.325 2.48514e-16)
(49.7857 13.3096 2.97282e-17)
(49.7905 13.2878 -2.3964e-17)
(46.1113 -4.0133 -1.72934e-20)
(45.8819 -3.92191 0)
(45.6347 -3.82547 0)
(45.364 -3.7228 -3.04976e-16)
(45.0613 -3.61433 0)
(44.7141 -3.49813 0)
(44.3032 -3.37429 0)
(43.7972 -3.23966 0)
(43.1406 -3.09238 -3.64303e-20)
(42.221 -2.92479 -8.81845e-16)
(40.7385 -2.71939 0)
(38.6524 -2.46773 -2.13732e-15)
(50.2486 15.9404 6.10262e-17)
(50.2654 15.8044 3.67763e-18)
(50.2793 15.6734 0)
(50.2905 15.5474 1.96468e-16)
(50.2991 15.4262 9.77679e-17)
(50.3053 15.3098 -5.37384e-18)
(50.3093 15.1979 7.63408e-17)
(50.3111 15.0904 1.44682e-16)
(50.311 14.9873 8.42229e-18)
(50.309 14.8884 1.37364e-16)
(50.3053 14.7935 1.12422e-16)
(50.3 14.7026 0)
(50.2932 14.6155 3.75651e-16)
(50.2849 14.532 -2.15908e-17)
(50.2753 14.4521 1.59946e-16)
(50.2645 14.3756 1.47162e-16)
(50.2525 14.3024 0)
(50.2395 14.2325 3.82214e-16)
(50.2254 14.1656 -2.21526e-16)
(50.2105 14.1017 -1.24777e-17)
(50.1946 14.0406 -1.97193e-16)
(50.1779 13.9823 -2.09005e-17)
(50.1604 13.9267 0)
(50.1423 13.8737 -1.26274e-16)
(50.1234 13.8231 0)
(50.104 13.775 0)
(50.084 13.7292 2.66954e-17)
(50.0635 13.6857 2.26656e-17)
(50.0426 13.6444 2.35333e-17)
(50.0213 13.6053 1.65941e-16)
(49.9996 13.5683 -4.31369e-18)
(49.9778 13.5335 1.70028e-17)
(49.9558 13.5007 1.63926e-17)
(49.9337 13.4701 4.66226e-16)
(49.9118 13.4415 2.39318e-16)
(49.8902 13.4151 0)
(49.869 13.391 2.18066e-17)
(49.8486 13.3693 3.25553e-16)
(49.8299 13.3496 -2.99857e-16)
(49.8124 13.3328 2.77972e-16)
(49.7932 13.3215 -2.78275e-16)
(49.787 13.3065 2.67401e-16)
(49.793 13.2841 0)
(46.9865 -4.06672 -1.84859e-20)
(46.7619 -3.97557 1.25011e-16)
(46.5241 -3.87951 0)
(46.2691 -3.77761 1.44948e-16)
(45.9905 -3.67039 0)
(45.6799 -3.5562 -1.74875e-16)
(45.325 -3.43543 0)
(44.9062 -3.30591 0)
(44.3927 -3.16718 -2.69216e-16)
(43.7284 -3.01533 3.91469e-20)
(42.8011 -2.84368 0)
(41.3055 -2.63587 5.80142e-20)
(39.2134 -2.38278 -1.09267e-15)
(50.2664 16.0745 -4.33663e-18)
(50.2847 15.9329 -3.83158e-18)
(50.2999 15.7965 0)
(50.3122 15.6653 0)
(50.3219 15.539 -1.04118e-16)
(50.3291 15.4176 -8.49844e-17)
(50.3339 15.301 -8.57199e-17)