/*--------------------------------*- C++ -*----------------------------------*\
  =========                 |
  \\      /  F ield         | OpenFOAM: The Open Source CFD Toolbox
   \\    /   O peration     | Website:  https://openfoam.org
    \\  /    A nd           | Version:  7
     \\/     M anipulation  |
\*---------------------------------------------------------------------------*/
FoamFile
{
    version     2.0;
    format      ascii;
    class       volScalarField;
    location    "1600";
    object      yPlus;
}
// * * * * * * * * * * * * * * * * * * * * * * * * * * * * * * * * * * * * * //

dimensions      [0 0 0 0 0 0 0];

internalField   uniform 0;

boundaryField
{
    inlet-l
    {
        type            calculated;
        value           nonuniform 0();
    }
    airfoil-l1
    {
        type            calculated;
        value           nonuniform 0();
    }
    empty-1
    {
        type            empty;
    }
    empty-2
    {
        type            empty;
    }
    wall-l1
    {
        type            calculated;
        value           nonuniform 0();
    }
    airfoil-l2
    {
        type            calculated;
        value           nonuniform 0();
    }
    empty-3
    {
        type            empty;
    }
    empty-4
    {
        type            empty;
    }
    wall-l2
    {
        type            calculated;
        value           nonuniform 0();
    }
    outlet-l
    {
        type            calculated;
        value           nonuniform 0();
    }
    empty-5
    {
        type            empty;
    }
    empty-6
    {
        type            empty;
    }
    outlet-h
    {
        type            calculated;
        value           nonuniform 0();
    }
    wall-h2
    {
        type            calculated;
        value           nonuniform 0();
    }
    empty-7
    {
        type            empty;
    }
    empty-8
    {
        type            empty;
    }
    airfoil-h2
    {
        type            calculated;
        value           nonuniform List<scalar> 
33
(
31.1283
30.7575
30.426
30.116
29.815
29.5273
29.2582
29.0007
28.7499
28.5055
28.2716
28.0479
27.8275
27.6127
27.403
27.1978
26.999
26.8037
26.6061
26.4136
26.2262
26.0379
25.8514
25.6684
25.4854
25.3014
25.1201
24.9374
24.7571
24.5745
24.391
24.2098
24.0247
)
;
    }
    wall-h1
    {
        type            calculated;
        value           nonuniform List<scalar> 
33
(
143.968
143.997
143.943
143.906
143.884
143.865
143.842
143.819
143.796
143.775
143.754
143.736
143.715
143.701
143.683
143.667
143.647
143.637
143.618
143.606
143.589
143.579
143.567
143.55
143.546
143.531
143.525
143.514
143.501
143.499
143.485
143.482
143.474
)
;
    }
    empty-9
    {
        type            empty;
    }
    empty-10
    {
        type            empty;
    }
    inlet-h
    {
        type            calculated;
        value           uniform 0;
    }
    airfoil-h1
    {
        type            calculated;
        value           nonuniform List<scalar> 
91
(
26.5845
26.3253
26.0947
25.903
25.738
25.589
25.4547
25.3424
25.2598
25.1975
25.1397
25.1122
25.1013
25.0931
25.0911
25.099
25.1198
25.1495
25.1891
25.2286
25.2821
25.3442
25.4163
25.4904
25.5686
25.6513
25.7423
25.8342
25.9369
26.0387
26.1459
26.2519
26.3594
26.4801
26.5978
26.7126
26.8336
26.9549
27.0775
27.2064
27.3346
27.4618
27.5854
27.7126
27.8421
27.9711
28.0946
28.2245
28.3509
28.4781
28.6108
28.7342
28.8528
28.9821
29.1046
29.22
29.3369
29.4597
29.5774
29.6912
29.8004
29.9103
30.0211
30.1183
30.2209
30.3211
30.4158
30.5054
30.5949
30.6805
30.7675
30.8437
30.9157
30.9865
31.061
31.123
31.1813
31.2286
31.277
31.3179
31.3536
31.3873
31.4125
31.4314
31.4437
31.4551
31.4485
31.4381
31.4228
31.3956
31.3586
)
;
    }
    empty-11
    {
        type            empty;
    }
    empty-12
    {
        type            empty;
    }
    procBoundary3to0
    {
        type            processor;
        value           uniform 0;
    }
    procBoundary3to2
    {
        type            processor;
        value           uniform 0;
    }
}


// ************************************************************************* //
