/*--------------------------------*- C++ -*----------------------------------*\
  =========                 |
  \\      /  F ield         | OpenFOAM: The Open Source CFD Toolbox
   \\    /   O peration     | Website:  https://openfoam.org
    \\  /    A nd           | Version:  7
     \\/     M anipulation  |
\*---------------------------------------------------------------------------*/
FoamFile
{
    version     2.0;
    format      ascii;
    class       volScalarField;
    location    "1400";
    object      nut;
}
// * * * * * * * * * * * * * * * * * * * * * * * * * * * * * * * * * * * * * //

dimensions      [0 2 -1 0 0 0 0];

internalField   nonuniform List<scalar> 
23052
(
5.20708e-06
5.20677e-06
5.20786e-06
5.20674e-06
5.20791e-06
5.20891e-06
5.2068e-06
5.20784e-06
5.20864e-06
5.20892e-06
5.20684e-06
5.20778e-06
5.20844e-06
5.20867e-06
5.20836e-06
5.20792e-06
5.20684e-06
5.20768e-06
5.20823e-06
5.20841e-06
5.20814e-06
5.2078e-06
5.20805e-06
5.20905e-06
5.20681e-06
5.20756e-06
5.20803e-06
5.20817e-06
5.20795e-06
5.20774e-06
5.20812e-06
5.20912e-06
5.21052e-06
5.20677e-06
5.20744e-06
5.20784e-06
5.20796e-06
5.20778e-06
5.2077e-06
5.20822e-06
5.20927e-06
5.21058e-06
5.21202e-06
5.20673e-06
5.20732e-06
5.20767e-06
5.20777e-06
5.20765e-06
5.20771e-06
5.20835e-06
5.20942e-06
5.21071e-06
5.21206e-06
5.21343e-06
5.20669e-06
5.20721e-06
5.20752e-06
5.20761e-06
5.20755e-06
5.20777e-06
5.20849e-06
5.20958e-06
5.21083e-06
5.21214e-06
5.21345e-06
5.21474e-06
5.20665e-06
5.20711e-06
5.20738e-06
5.20748e-06
5.2075e-06
5.20786e-06
5.20865e-06
5.20974e-06
5.21097e-06
5.21223e-06
5.2135e-06
5.21475e-06
5.21598e-06
5.20662e-06
5.20703e-06
5.20727e-06
5.20738e-06
5.20749e-06
5.20798e-06
5.20883e-06
5.20991e-06
5.2111e-06
5.21232e-06
5.21355e-06
5.21477e-06
5.21598e-06
5.21715e-06
5.20661e-06
5.20697e-06
5.20718e-06
5.20731e-06
5.20754e-06
5.20812e-06
5.209e-06
5.21007e-06
5.21123e-06
5.21241e-06
5.21361e-06
5.2148e-06
5.21598e-06
5.21714e-06
5.21826e-06
5.20662e-06
5.20693e-06
5.20713e-06
5.20729e-06
5.20763e-06
5.20829e-06
5.20919e-06
5.21023e-06
5.21136e-06
5.21251e-06
5.21367e-06
5.21484e-06
5.21599e-06
5.21713e-06
5.21824e-06
5.2193e-06
5.20665e-06
5.20691e-06
5.2071e-06
5.20732e-06
5.20776e-06
5.20846e-06
5.20937e-06
5.21039e-06
5.21148e-06
5.2126e-06
5.21374e-06
5.21488e-06
5.21601e-06
5.21712e-06
5.21821e-06
5.21927e-06
5.22027e-06
5.20669e-06
5.20691e-06
5.20711e-06
5.20739e-06
5.20791e-06
5.20865e-06
5.20955e-06
5.21055e-06
5.21161e-06
5.2127e-06
5.21381e-06
5.21492e-06
5.21603e-06
5.21712e-06
5.21819e-06
5.21923e-06
5.22024e-06
5.22119e-06
5.20673e-06
5.20693e-06
5.20716e-06
5.20752e-06
5.20808e-06
5.20883e-06
5.20972e-06
5.2107e-06
5.21173e-06
5.2128e-06
5.21388e-06
5.21497e-06
5.21605e-06
5.21712e-06
5.21817e-06
5.2192e-06
5.22019e-06
5.22115e-06
5.22205e-06
5.20677e-06
5.20697e-06
5.20724e-06
5.20766e-06
5.20825e-06
5.20901e-06
5.20988e-06
5.21084e-06
5.21185e-06
5.21289e-06
5.21395e-06
5.21502e-06
5.21608e-06
5.21713e-06
5.21816e-06
5.21917e-06
5.22015e-06
5.22109e-06
5.22201e-06
5.22286e-06
5.20679e-06
5.20703e-06
5.20736e-06
5.20781e-06
5.20842e-06
5.20918e-06
5.21004e-06
5.21098e-06
5.21197e-06
5.21299e-06
5.21403e-06
5.21508e-06
5.21612e-06
5.21715e-06
5.21816e-06
5.21915e-06
5.22011e-06
5.22104e-06
5.22194e-06
5.22282e-06
5.22362e-06
5.20682e-06
5.20712e-06
5.20748e-06
5.20796e-06
5.20858e-06
5.20934e-06
5.21019e-06
5.21111e-06
5.21208e-06
5.21309e-06
5.21411e-06
5.21513e-06
5.21615e-06
5.21717e-06
5.21816e-06
5.21913e-06
5.22008e-06
5.22099e-06
5.22188e-06
5.22275e-06
5.22358e-06
5.22434e-06
5.20685e-06
5.2072e-06
5.2076e-06
5.2081e-06
5.20874e-06
5.20949e-06
5.21033e-06
5.21124e-06
5.2122e-06
5.21318e-06
5.21419e-06
5.21519e-06
5.2162e-06
5.21719e-06
5.21816e-06
5.21912e-06
5.22005e-06
5.22095e-06
5.22183e-06
5.22268e-06
5.2235e-06
5.22429e-06
5.22501e-06
5.20687e-06
5.20727e-06
5.20771e-06
5.20824e-06
5.20888e-06
5.20964e-06
5.21047e-06
5.21137e-06
5.21231e-06
5.21328e-06
5.21426e-06
5.21525e-06
5.21624e-06
5.21721e-06
5.21817e-06
5.21911e-06
5.22003e-06
5.22092e-06
5.22179e-06
5.22262e-06
5.22343e-06
5.22422e-06
5.22497e-06
5.22565e-06
5.20689e-06
5.20734e-06
5.20781e-06
5.20836e-06
5.20902e-06
5.20978e-06
5.21061e-06
5.2115e-06
5.21242e-06
5.21338e-06
5.21434e-06
5.21532e-06
5.21629e-06
5.21724e-06
5.21819e-06
5.21911e-06
5.22001e-06
5.22089e-06
5.22175e-06
5.22257e-06
5.22337e-06
5.22414e-06
5.22489e-06
5.2256e-06
5.22624e-06
5.20691e-06
5.20741e-06
5.20791e-06
5.20848e-06
5.20915e-06
5.20991e-06
5.21074e-06
5.21162e-06
5.21253e-06
5.21347e-06
5.21442e-06
5.21538e-06
5.21633e-06
5.21728e-06
5.2182e-06
5.21911e-06
5.22e-06
5.22087e-06
5.22171e-06
5.22253e-06
5.22332e-06
5.22408e-06
5.22481e-06
5.22552e-06
5.22619e-06
5.2268e-06
5.20693e-06
5.20747e-06
5.208e-06
5.2086e-06
5.20928e-06
5.21004e-06
5.21086e-06
5.21173e-06
5.21264e-06
5.21357e-06
5.2145e-06
5.21545e-06
5.21638e-06
5.21731e-06
5.21822e-06
5.21912e-06
5.22e-06
5.22085e-06
5.22168e-06
5.22248e-06
5.22326e-06
5.22402e-06
5.22474e-06
5.22544e-06
5.22611e-06
5.22675e-06
5.22732e-06
5.20695e-06
5.20752e-06
5.20809e-06
5.20871e-06
5.2094e-06
5.21016e-06
5.21098e-06
5.21185e-06
5.21274e-06
5.21366e-06
5.21458e-06
5.21551e-06
5.21643e-06
5.21735e-06
5.21825e-06
5.21913e-06
5.21999e-06
5.22083e-06
5.22165e-06
5.22245e-06
5.22322e-06
5.22396e-06
5.22468e-06
5.22537e-06
5.22603e-06
5.22666e-06
5.22727e-06
5.22782e-06
5.20696e-06
5.20757e-06
5.20817e-06
5.20881e-06
5.20951e-06
5.21028e-06
5.2111e-06
5.21196e-06
5.21285e-06
5.21375e-06
5.21466e-06
5.21558e-06
5.21649e-06
5.21739e-06
5.21827e-06
5.21914e-06
5.21999e-06
5.22082e-06
5.22163e-06
5.22242e-06
5.22318e-06
5.22391e-06
5.22462e-06
5.2253e-06
5.22595e-06
5.22658e-06
5.22719e-06
5.22777e-06
5.22828e-06
5.20698e-06
5.20762e-06
5.20824e-06
5.2089e-06
5.20962e-06
5.21039e-06
5.21121e-06
5.21207e-06
5.21295e-06
5.21384e-06
5.21474e-06
5.21564e-06
5.21654e-06
5.21743e-06
5.2183e-06
5.21916e-06
5.22e-06
5.22082e-06
5.22162e-06
5.22239e-06
5.22314e-06
5.22386e-06
5.22456e-06
5.22524e-06
5.22588e-06
5.22651e-06
5.22711e-06
5.22768e-06
5.22823e-06
5.22872e-06
5.20699e-06
5.20767e-06
5.20832e-06
5.209e-06
5.20972e-06
5.2105e-06
5.21132e-06
5.21217e-06
5.21304e-06
5.21393e-06
5.21482e-06
5.21571e-06
5.21659e-06
5.21747e-06
5.21833e-06
5.21918e-06
5.22001e-06
5.22081e-06
5.2216e-06
5.22237e-06
5.22311e-06
5.22382e-06
5.22451e-06
5.22518e-06
5.22582e-06
5.22644e-06
5.22703e-06
5.2276e-06
5.22814e-06
5.22867e-06
5.22913e-06
5.20701e-06
5.20771e-06
5.20839e-06
5.20908e-06
5.20982e-06
5.2106e-06
5.21142e-06
5.21227e-06
5.21314e-06
5.21402e-06
5.2149e-06
5.21578e-06
5.21665e-06
5.21751e-06
5.21836e-06
5.2192e-06
5.22002e-06
5.22081e-06
5.22159e-06
5.22235e-06
5.22308e-06
5.22379e-06
5.22447e-06
5.22513e-06
5.22576e-06
5.22637e-06
5.22696e-06
5.22752e-06
5.22806e-06
5.22858e-06
5.22908e-06
5.22951e-06
5.20702e-06
5.20775e-06
5.20845e-06
5.20916e-06
5.20991e-06
5.2107e-06
5.21153e-06
5.21237e-06
5.21323e-06
5.2141e-06
5.21497e-06
5.21584e-06
5.2167e-06
5.21756e-06
5.2184e-06
5.21922e-06
5.22003e-06
5.22082e-06
5.22159e-06
5.22233e-06
5.22306e-06
5.22375e-06
5.22443e-06
5.22508e-06
5.22571e-06
5.22631e-06
5.22689e-06
5.22745e-06
5.22799e-06
5.2285e-06
5.22899e-06
5.22946e-06
5.22987e-06
5.20703e-06
5.20779e-06
5.20851e-06
5.20924e-06
5.21e-06
5.2108e-06
5.21162e-06
5.21247e-06
5.21332e-06
5.21418e-06
5.21505e-06
5.21591e-06
5.21676e-06
5.2176e-06
5.21843e-06
5.21925e-06
5.22005e-06
5.22082e-06
5.22158e-06
5.22232e-06
5.22303e-06
5.22373e-06
5.22439e-06
5.22504e-06
5.22566e-06
5.22626e-06
5.22683e-06
5.22739e-06
5.22792e-06
5.22843e-06
5.22891e-06
5.22938e-06
5.22983e-06
5.23022e-06
5.20704e-06
5.20783e-06
5.20857e-06
5.20932e-06
5.21009e-06
5.21089e-06
5.21172e-06
5.21256e-06
5.21341e-06
5.21427e-06
5.21512e-06
5.21597e-06
5.21681e-06
5.21765e-06
5.21847e-06
5.21927e-06
5.22006e-06
5.22083e-06
5.22158e-06
5.22231e-06
5.22302e-06
5.2237e-06
5.22436e-06
5.225e-06
5.22561e-06
5.22621e-06
5.22678e-06
5.22732e-06
5.22785e-06
5.22836e-06
5.22884e-06
5.2293e-06
5.22975e-06
5.23017e-06
5.23054e-06
5.20705e-06
5.20786e-06
5.20862e-06
5.20939e-06
5.21017e-06
5.21098e-06
5.21181e-06
5.21265e-06
5.21349e-06
5.21434e-06
5.21519e-06
5.21604e-06
5.21687e-06
5.21769e-06
5.21851e-06
5.2193e-06
5.22008e-06
5.22085e-06
5.22159e-06
5.22231e-06
5.223e-06
5.22368e-06
5.22433e-06
5.22496e-06
5.22557e-06
5.22616e-06
5.22672e-06
5.22727e-06
5.22779e-06
5.22829e-06
5.22877e-06
5.22923e-06
5.22967e-06
5.23009e-06
5.23049e-06
5.23084e-06
5.20706e-06
5.20789e-06
5.20868e-06
5.20946e-06
5.21025e-06
5.21106e-06
5.21189e-06
5.21273e-06
5.21358e-06
5.21442e-06
5.21526e-06
5.2161e-06
5.21693e-06
5.21774e-06
5.21855e-06
5.21933e-06
5.22011e-06
5.22086e-06
5.22159e-06
5.2223e-06
5.22299e-06
5.22366e-06
5.22431e-06
5.22493e-06
5.22553e-06
5.22611e-06
5.22667e-06
5.22721e-06
5.22773e-06
5.22823e-06
5.2287e-06
5.22916e-06
5.2296e-06
5.23001e-06
5.23041e-06
5.2308e-06
5.23113e-06
5.20707e-06
5.20792e-06
5.20872e-06
5.20952e-06
5.21033e-06
5.21115e-06
5.21198e-06
5.21282e-06
5.21366e-06
5.2145e-06
5.21533e-06
5.21616e-06
5.21698e-06
5.21779e-06
5.21859e-06
5.21937e-06
5.22013e-06
5.22087e-06
5.2216e-06
5.2223e-06
5.22298e-06
5.22364e-06
5.22428e-06
5.2249e-06
5.2255e-06
5.22607e-06
5.22663e-06
5.22716e-06
5.22768e-06
5.22817e-06
5.22864e-06
5.22909e-06
5.22953e-06
5.22994e-06
5.23034e-06
5.23072e-06
5.23108e-06
5.23139e-06
5.20707e-06
5.20795e-06
5.20877e-06
5.20958e-06
5.2104e-06
5.21122e-06
5.21206e-06
5.2129e-06
5.21374e-06
5.21457e-06
5.2154e-06
5.21623e-06
5.21704e-06
5.21784e-06
5.21863e-06
5.2194e-06
5.22016e-06
5.22089e-06
5.22161e-06
5.2223e-06
5.22298e-06
5.22363e-06
5.22426e-06
5.22488e-06
5.22547e-06
5.22604e-06
5.22659e-06
5.22712e-06
5.22762e-06
5.22811e-06
5.22858e-06
5.22903e-06
5.22946e-06
5.22988e-06
5.23027e-06
5.23065e-06
5.23101e-06
5.23135e-06
5.23165e-06
5.20708e-06
5.20798e-06
5.20882e-06
5.20964e-06
5.21047e-06
5.2113e-06
5.21214e-06
5.21297e-06
5.21381e-06
5.21464e-06
5.21547e-06
5.21629e-06
5.2171e-06
5.21789e-06
5.21867e-06
5.21944e-06
5.22018e-06
5.22091e-06
5.22162e-06
5.22231e-06
5.22298e-06
5.22362e-06
5.22425e-06
5.22485e-06
5.22544e-06
5.22601e-06
5.22655e-06
5.22707e-06
5.22758e-06
5.22806e-06
5.22853e-06
5.22897e-06
5.2294e-06
5.22981e-06
5.2302e-06
5.23058e-06
5.23094e-06
5.23128e-06
5.2316e-06
5.23188e-06
5.20709e-06
5.208e-06
5.20886e-06
5.2097e-06
5.21053e-06
5.21137e-06
5.21221e-06
5.21305e-06
5.21389e-06
5.21472e-06
5.21554e-06
5.21635e-06
5.21715e-06
5.21794e-06
5.21871e-06
5.21947e-06
5.22021e-06
5.22093e-06
5.22163e-06
5.22231e-06
5.22297e-06
5.22362e-06
5.22424e-06
5.22484e-06
5.22542e-06
5.22598e-06
5.22651e-06
5.22703e-06
5.22753e-06
5.22801e-06
5.22848e-06
5.22892e-06
5.22934e-06
5.22975e-06
5.23014e-06
5.23051e-06
5.23087e-06
5.23121e-06
5.23153e-06
5.23184e-06
5.2321e-06
5.20709e-06
5.20803e-06
5.2089e-06
5.20975e-06
5.2106e-06
5.21144e-06
5.21228e-06
5.21312e-06
5.21396e-06
5.21479e-06
5.21561e-06
5.21641e-06
5.21721e-06
5.21799e-06
5.21876e-06
5.21951e-06
5.22024e-06
5.22095e-06
5.22165e-06
5.22232e-06
5.22298e-06
5.22361e-06
5.22423e-06
5.22482e-06
5.22539e-06
5.22595e-06
5.22648e-06
5.227e-06
5.22749e-06
5.22797e-06
5.22843e-06
5.22887e-06
5.22929e-06
5.22969e-06
5.23008e-06
5.23045e-06
5.23081e-06
5.23114e-06
5.23146e-06
5.23177e-06
5.23206e-06
5.23231e-06
5.2071e-06
5.20805e-06
5.20894e-06
5.2098e-06
5.21066e-06
5.21151e-06
5.21235e-06
5.21319e-06
5.21403e-06
5.21486e-06
5.21567e-06
5.21648e-06
5.21727e-06
5.21804e-06
5.2188e-06
5.21954e-06
5.22027e-06
5.22098e-06
5.22166e-06
5.22233e-06
5.22298e-06
5.22361e-06
5.22422e-06
5.22481e-06
5.22538e-06
5.22592e-06
5.22645e-06
5.22696e-06
5.22746e-06
5.22793e-06
5.22838e-06
5.22882e-06
5.22924e-06
5.22964e-06
5.23003e-06
5.23039e-06
5.23075e-06
5.23108e-06
5.2314e-06
5.2317e-06
5.23199e-06
5.23227e-06
5.2325e-06
5.20711e-06
5.20807e-06
5.20898e-06
5.20985e-06
5.21071e-06
5.21157e-06
5.21242e-06
5.21326e-06
5.2141e-06
5.21492e-06
5.21574e-06
5.21654e-06
5.21732e-06
5.21809e-06
5.21885e-06
5.21958e-06
5.2203e-06
5.221e-06
5.22168e-06
5.22234e-06
5.22299e-06
5.22361e-06
5.22421e-06
5.2248e-06
5.22536e-06
5.2259e-06
5.22643e-06
5.22693e-06
5.22742e-06
5.22789e-06
5.22834e-06
5.22877e-06
5.22919e-06
5.22959e-06
5.22997e-06
5.23034e-06
5.23069e-06
5.23102e-06
5.23134e-06
5.23164e-06
5.23193e-06
5.23221e-06
5.23247e-06
5.23269e-06
5.20711e-06
5.20809e-06
5.20901e-06
5.2099e-06
5.21077e-06
5.21163e-06
5.21249e-06
5.21333e-06
5.21417e-06
5.21499e-06
5.2158e-06
5.2166e-06
5.21738e-06
5.21814e-06
5.21889e-06
5.21962e-06
5.22033e-06
5.22103e-06
5.2217e-06
5.22236e-06
5.22299e-06
5.22361e-06
5.22421e-06
5.22479e-06
5.22535e-06
5.22589e-06
5.22641e-06
5.22691e-06
5.22739e-06
5.22785e-06
5.2283e-06
5.22873e-06
5.22915e-06
5.22954e-06
5.22992e-06
5.23028e-06
5.23063e-06
5.23096e-06
5.23128e-06
5.23158e-06
5.23187e-06
5.23214e-06
5.2324e-06
5.23265e-06
5.23286e-06
5.20712e-06
5.20811e-06
5.20904e-06
5.20994e-06
5.21082e-06
5.21169e-06
5.21255e-06
5.2134e-06
5.21423e-06
5.21506e-06
5.21586e-06
5.21666e-06
5.21743e-06
5.21819e-06
5.21893e-06
5.21966e-06
5.22036e-06
5.22105e-06
5.22172e-06
5.22237e-06
5.223e-06
5.22362e-06
5.22421e-06
5.22478e-06
5.22534e-06
5.22587e-06
5.22638e-06
5.22688e-06
5.22736e-06
5.22782e-06
5.22827e-06
5.22869e-06
5.2291e-06
5.2295e-06
5.22987e-06
5.23024e-06
5.23058e-06
5.23091e-06
5.23122e-06
5.23152e-06
5.23181e-06
5.23208e-06
5.23234e-06
5.23259e-06
5.23283e-06
5.23303e-06
5.20712e-06
5.20813e-06
5.20908e-06
5.20999e-06
5.21088e-06
5.21175e-06
5.21261e-06
5.21346e-06
5.2143e-06
5.21512e-06
5.21593e-06
5.21671e-06
5.21749e-06
5.21824e-06
5.21898e-06
5.2197e-06
5.2204e-06
5.22108e-06
5.22174e-06
5.22239e-06
5.22302e-06
5.22362e-06
5.22421e-06
5.22478e-06
5.22533e-06
5.22586e-06
5.22637e-06
5.22686e-06
5.22733e-06
5.22779e-06
5.22823e-06
5.22866e-06
5.22906e-06
5.22946e-06
5.22983e-06
5.23019e-06
5.23053e-06
5.23086e-06
5.23117e-06
5.23147e-06
5.23175e-06
5.23203e-06
5.23228e-06
5.23253e-06
5.23277e-06
5.23299e-06
5.23318e-06
5.20713e-06
5.20815e-06
5.20911e-06
5.21003e-06
5.21093e-06
5.21181e-06
5.21268e-06
5.21353e-06
5.21436e-06
5.21518e-06
5.21599e-06
5.21677e-06
5.21754e-06
5.21829e-06
5.21902e-06
5.21974e-06
5.22043e-06
5.22111e-06
5.22177e-06
5.22241e-06
5.22303e-06
5.22363e-06
5.22421e-06
5.22478e-06
5.22532e-06
5.22584e-06
5.22635e-06
5.22684e-06
5.22731e-06
5.22777e-06
5.2282e-06
5.22862e-06
5.22903e-06
5.22942e-06
5.22979e-06
5.23014e-06
5.23048e-06
5.23081e-06
5.23112e-06
5.23142e-06
5.2317e-06
5.23197e-06
5.23223e-06
5.23248e-06
5.23271e-06
5.23294e-06
5.23315e-06
5.23333e-06
5.20713e-06
5.20817e-06
5.20914e-06
5.21007e-06
5.21098e-06
5.21186e-06
5.21273e-06
5.21359e-06
5.21442e-06
5.21524e-06
5.21604e-06
5.21683e-06
5.21759e-06
5.21834e-06
5.21907e-06
5.21978e-06
5.22047e-06
5.22114e-06
5.22179e-06
5.22243e-06
5.22304e-06
5.22364e-06
5.22422e-06
5.22478e-06
5.22532e-06
5.22584e-06
5.22634e-06
5.22682e-06
5.22729e-06
5.22774e-06
5.22818e-06
5.22859e-06
5.22899e-06
5.22938e-06
5.22975e-06
5.2301e-06
5.23044e-06
5.23076e-06
5.23107e-06
5.23137e-06
5.23165e-06
5.23192e-06
5.23218e-06
5.23242e-06
5.23266e-06
5.23288e-06
5.23309e-06
5.23329e-06
5.23346e-06
5.20714e-06
5.20819e-06
5.20917e-06
5.21011e-06
5.21102e-06
5.21192e-06
5.21279e-06
5.21365e-06
5.21448e-06
5.2153e-06
5.2161e-06
5.21688e-06
5.21764e-06
5.21839e-06
5.21911e-06
5.21982e-06
5.2205e-06
5.22117e-06
5.22182e-06
5.22245e-06
5.22306e-06
5.22365e-06
5.22422e-06
5.22478e-06
5.22531e-06
5.22583e-06
5.22633e-06
5.22681e-06
5.22727e-06
5.22772e-06
5.22815e-06
5.22856e-06
5.22896e-06
5.22934e-06
5.22971e-06
5.23006e-06
5.2304e-06
5.23072e-06
5.23103e-06
5.23132e-06
5.2316e-06
5.23187e-06
5.23213e-06
5.23237e-06
5.2326e-06
5.23283e-06
5.23304e-06
5.23324e-06
5.23343e-06
5.23359e-06
5.20714e-06
5.2082e-06
5.20919e-06
5.21015e-06
5.21107e-06
5.21197e-06
5.21285e-06
5.2137e-06
5.21454e-06
5.21536e-06
5.21616e-06
5.21694e-06
5.2177e-06
5.21843e-06
5.21916e-06
5.21986e-06
5.22054e-06
5.2212e-06
5.22185e-06
5.22247e-06
5.22308e-06
5.22366e-06
5.22423e-06
5.22478e-06
5.22531e-06
5.22582e-06
5.22632e-06
5.2268e-06
5.22726e-06
5.2277e-06
5.22813e-06
5.22854e-06
5.22893e-06
5.22931e-06
5.22968e-06
5.23003e-06
5.23036e-06
5.23068e-06
5.23098e-06
5.23128e-06
5.23155e-06
5.23182e-06
5.23208e-06
5.23232e-06
5.23255e-06
5.23278e-06
5.23299e-06
5.23319e-06
5.23338e-06
5.23356e-06
5.23371e-06
5.20714e-06
5.20822e-06
5.20922e-06
5.21018e-06
5.21111e-06
5.21202e-06
5.2129e-06
5.21376e-06
5.2146e-06
5.21542e-06
5.21621e-06
5.21699e-06
5.21775e-06
5.21848e-06
5.2192e-06
5.2199e-06
5.22058e-06
5.22123e-06
5.22187e-06
5.22249e-06
5.2231e-06
5.22368e-06
5.22424e-06
5.22479e-06
5.22531e-06
5.22582e-06
5.22631e-06
5.22679e-06
5.22724e-06
5.22768e-06
5.22811e-06
5.22852e-06
5.22891e-06
5.22928e-06
5.22964e-06
5.22999e-06
5.23032e-06
5.23064e-06
5.23094e-06
5.23123e-06
5.23151e-06
5.23178e-06
5.23203e-06
5.23227e-06
5.23251e-06
5.23273e-06
5.23294e-06
5.23314e-06
5.23333e-06
5.23351e-06
5.23368e-06
5.23382e-06
5.20715e-06
5.20823e-06
5.20925e-06
5.21022e-06
5.21116e-06
5.21207e-06
5.21295e-06
5.21381e-06
5.21465e-06
5.21547e-06
5.21627e-06
5.21704e-06
5.2178e-06
5.21853e-06
5.21925e-06
5.21994e-06
5.22061e-06
5.22127e-06
5.2219e-06
5.22252e-06
5.22312e-06
5.22369e-06
5.22425e-06
5.22479e-06
5.22532e-06
5.22582e-06
5.22631e-06
5.22678e-06
5.22723e-06
5.22767e-06
5.22809e-06
5.22849e-06
5.22888e-06
5.22926e-06
5.22961e-06
5.22996e-06
5.23029e-06
5.2306e-06
5.2309e-06
5.23119e-06
5.23147e-06
5.23173e-06
5.23199e-06
5.23223e-06
5.23246e-06
5.23268e-06
5.23289e-06
5.23309e-06
5.23328e-06
5.23346e-06
5.23363e-06
5.23379e-06
5.23393e-06
5.20715e-06
5.20825e-06
5.20927e-06
5.21025e-06
5.2112e-06
5.21211e-06
5.213e-06
5.21387e-06
5.21471e-06
5.21553e-06
5.21632e-06
5.2171e-06
5.21785e-06
5.21858e-06
5.21929e-06
5.21998e-06
5.22065e-06
5.2213e-06
5.22193e-06
5.22254e-06
5.22314e-06
5.22371e-06
5.22426e-06
5.2248e-06
5.22532e-06
5.22582e-06
5.2263e-06
5.22677e-06
5.22722e-06
5.22766e-06
5.22807e-06
5.22847e-06
5.22886e-06
5.22923e-06
5.22959e-06
5.22993e-06
5.23025e-06
5.23057e-06
5.23087e-06
5.23116e-06
5.23143e-06
5.23169e-06
5.23195e-06
5.23219e-06
5.23242e-06
5.23264e-06
5.23285e-06
5.23305e-06
5.23324e-06
5.23342e-06
5.23359e-06
5.23375e-06
5.2339e-06
5.23402e-06
5.20716e-06
5.20826e-06
5.2093e-06
5.21028e-06
5.21124e-06
5.21216e-06
5.21305e-06
5.21392e-06
5.21476e-06
5.21558e-06
5.21638e-06
5.21715e-06
5.2179e-06
5.21863e-06
5.21934e-06
5.22002e-06
5.22069e-06
5.22133e-06
5.22196e-06
5.22257e-06
5.22316e-06
5.22373e-06
5.22428e-06
5.22481e-06
5.22533e-06
5.22582e-06
5.2263e-06
5.22677e-06
5.22721e-06
5.22764e-06
5.22806e-06
5.22846e-06
5.22884e-06
5.22921e-06
5.22956e-06
5.2299e-06
5.23022e-06
5.23054e-06
5.23083e-06
5.23112e-06
5.23139e-06
5.23166e-06
5.23191e-06
5.23215e-06
5.23238e-06
5.2326e-06
5.2328e-06
5.233e-06
5.23319e-06
5.23337e-06
5.23354e-06
5.2337e-06
5.23385e-06
5.23399e-06
5.23411e-06
5.20716e-06
5.20827e-06
5.20932e-06
5.21032e-06
5.21127e-06
5.2122e-06
5.2131e-06
5.21397e-06
5.21481e-06
5.21563e-06
5.21643e-06
5.2172e-06
5.21795e-06
5.21868e-06
5.21938e-06
5.22006e-06
5.22073e-06
5.22137e-06
5.22199e-06
5.22259e-06
5.22318e-06
5.22375e-06
5.22429e-06
5.22482e-06
5.22533e-06
5.22583e-06
5.2263e-06
5.22676e-06
5.22721e-06
5.22763e-06
5.22805e-06
5.22844e-06
5.22882e-06
5.22919e-06
5.22954e-06
5.22987e-06
5.2302e-06
5.2305e-06
5.2308e-06
5.23109e-06
5.23136e-06
5.23162e-06
5.23187e-06
5.23211e-06
5.23234e-06
5.23256e-06
5.23276e-06
5.23296e-06
5.23315e-06
5.23333e-06
5.2335e-06
5.23366e-06
5.23381e-06
5.23395e-06
5.23409e-06
5.2342e-06
5.20716e-06
5.20829e-06
5.20934e-06
5.21035e-06
5.21131e-06
5.21225e-06
5.21315e-06
5.21402e-06
5.21487e-06
5.21569e-06
5.21648e-06
5.21725e-06
5.218e-06
5.21872e-06
5.21942e-06
5.2201e-06
5.22076e-06
5.2214e-06
5.22202e-06
5.22262e-06
5.2232e-06
5.22377e-06
5.22431e-06
5.22483e-06
5.22534e-06
5.22583e-06
5.22631e-06
5.22676e-06
5.2272e-06
5.22763e-06
5.22803e-06
5.22843e-06
5.2288e-06
5.22917e-06
5.22951e-06
5.22985e-06
5.23017e-06
5.23048e-06
5.23077e-06
5.23105e-06
5.23133e-06
5.23159e-06
5.23184e-06
5.23207e-06
5.2323e-06
5.23252e-06
5.23273e-06
5.23292e-06
5.23311e-06
5.23329e-06
5.23346e-06
5.23362e-06
5.23377e-06
5.23391e-06
5.23405e-06
5.23417e-06
5.23428e-06
5.20717e-06
5.2083e-06
5.20936e-06
5.21038e-06
5.21135e-06
5.21229e-06
5.21319e-06
5.21407e-06
5.21492e-06
5.21574e-06
5.21653e-06
5.2173e-06
5.21805e-06
5.21877e-06
5.21947e-06
5.22015e-06
5.2208e-06
5.22144e-06
5.22205e-06
5.22265e-06
5.22323e-06
5.22379e-06
5.22433e-06
5.22485e-06
5.22535e-06
5.22584e-06
5.22631e-06
5.22676e-06
5.2272e-06
5.22762e-06
5.22803e-06
5.22841e-06
5.22879e-06
5.22915e-06
5.22949e-06
5.22983e-06
5.23014e-06
5.23045e-06
5.23074e-06
5.23103e-06
5.2313e-06
5.23155e-06
5.2318e-06
5.23204e-06
5.23227e-06
5.23248e-06
5.23269e-06
5.23288e-06
5.23307e-06
5.23325e-06
5.23342e-06
5.23358e-06
5.23373e-06
5.23387e-06
5.234e-06
5.23413e-06
5.23425e-06
5.23435e-06
5.20717e-06
5.20831e-06
5.20939e-06
5.21041e-06
5.21139e-06
5.21233e-06
5.21324e-06
5.21412e-06
5.21497e-06
5.21579e-06
5.21658e-06
5.21735e-06
5.21809e-06
5.21881e-06
5.21951e-06
5.22019e-06
5.22084e-06
5.22147e-06
5.22209e-06
5.22268e-06
5.22325e-06
5.22381e-06
5.22435e-06
5.22486e-06
5.22537e-06
5.22585e-06
5.22632e-06
5.22677e-06
5.2272e-06
5.22762e-06
5.22802e-06
5.2284e-06
5.22878e-06
5.22913e-06
5.22948e-06
5.22981e-06
5.23012e-06
5.23043e-06
5.23072e-06
5.231e-06
5.23127e-06
5.23152e-06
5.23177e-06
5.23201e-06
5.23223e-06
5.23245e-06
5.23265e-06
5.23285e-06
5.23303e-06
5.23321e-06
5.23338e-06
5.23354e-06
5.23369e-06
5.23383e-06
5.23396e-06
5.23409e-06
5.23421e-06
5.23432e-06
5.23442e-06
5.20717e-06
5.20833e-06
5.20941e-06
5.21044e-06
5.21142e-06
5.21237e-06
5.21328e-06
5.21416e-06
5.21501e-06
5.21584e-06
5.21663e-06
5.2174e-06
5.21814e-06
5.21886e-06
5.21955e-06
5.22023e-06
5.22088e-06
5.22151e-06
5.22212e-06
5.22271e-06
5.22328e-06
5.22383e-06
5.22437e-06
5.22488e-06
5.22538e-06
5.22586e-06
5.22632e-06
5.22677e-06
5.2272e-06
5.22761e-06
5.22801e-06
5.22839e-06
5.22876e-06
5.22912e-06
5.22946e-06
5.22979e-06
5.2301e-06
5.2304e-06
5.23069e-06
5.23097e-06
5.23124e-06
5.2315e-06
5.23174e-06
5.23198e-06
5.2322e-06
5.23241e-06
5.23262e-06
5.23281e-06
5.233e-06
5.23317e-06
5.23334e-06
5.2335e-06
5.23365e-06
5.23379e-06
5.23393e-06
5.23405e-06
5.23417e-06
5.23429e-06
5.23439e-06
5.23448e-06
5.20718e-06
5.20834e-06
5.20943e-06
5.21046e-06
5.21145e-06
5.21241e-06
5.21333e-06
5.21421e-06
5.21506e-06
5.21588e-06
5.21668e-06
5.21745e-06
5.21819e-06
5.21891e-06
5.2196e-06
5.22027e-06
5.22092e-06
5.22154e-06
5.22215e-06
5.22274e-06
5.22331e-06
5.22386e-06
5.22439e-06
5.2249e-06
5.22539e-06
5.22587e-06
5.22633e-06
5.22677e-06
5.2272e-06
5.22761e-06
5.22801e-06
5.22839e-06
5.22875e-06
5.22911e-06
5.22944e-06
5.22977e-06
5.23008e-06
5.23038e-06
5.23067e-06
5.23095e-06
5.23121e-06
5.23147e-06
5.23171e-06
5.23195e-06
5.23217e-06
5.23238e-06
5.23259e-06
5.23278e-06
5.23297e-06
5.23314e-06
5.23331e-06
5.23346e-06
5.23361e-06
5.23376e-06
5.23389e-06
5.23402e-06
5.23414e-06
5.23425e-06
5.23436e-06
5.23446e-06
5.23454e-06
5.20718e-06
5.20835e-06
5.20944e-06
5.21049e-06
5.21149e-06
5.21245e-06
5.21337e-06
5.21425e-06
5.21511e-06
5.21593e-06
5.21673e-06
5.21749e-06
5.21823e-06
5.21895e-06
5.21964e-06
5.22031e-06
5.22096e-06
5.22158e-06
5.22219e-06
5.22277e-06
5.22333e-06
5.22388e-06
5.22441e-06
5.22492e-06
5.22541e-06
5.22588e-06
5.22634e-06
5.22678e-06
5.2272e-06
5.22761e-06
5.228e-06
5.22838e-06
5.22874e-06
5.22909e-06
5.22943e-06
5.22975e-06
5.23007e-06
5.23036e-06
5.23065e-06
5.23093e-06
5.23119e-06
5.23145e-06
5.23169e-06
5.23192e-06
5.23214e-06
5.23235e-06
5.23256e-06
5.23275e-06
5.23293e-06
5.23311e-06
5.23327e-06
5.23343e-06
5.23358e-06
5.23372e-06
5.23386e-06
5.23398e-06
5.2341e-06
5.23422e-06
5.23432e-06
5.23443e-06
5.23452e-06
5.23459e-06
5.20718e-06
5.20836e-06
5.20946e-06
5.21051e-06
5.21152e-06
5.21248e-06
5.21341e-06
5.2143e-06
5.21515e-06
5.21598e-06
5.21677e-06
5.21754e-06
5.21828e-06
5.219e-06
5.21969e-06
5.22035e-06
5.221e-06
5.22162e-06
5.22222e-06
5.2228e-06
5.22336e-06
5.22391e-06
5.22443e-06
5.22493e-06
5.22542e-06
5.22589e-06
5.22635e-06
5.22678e-06
5.22721e-06
5.22761e-06
5.228e-06
5.22838e-06
5.22874e-06
5.22909e-06
5.22942e-06
5.22974e-06
5.23005e-06
5.23035e-06
5.23063e-06
5.23091e-06
5.23117e-06
5.23142e-06
5.23166e-06
5.23189e-06
5.23212e-06
5.23233e-06
5.23253e-06
5.23272e-06
5.2329e-06
5.23308e-06
5.23324e-06
5.2334e-06
5.23355e-06
5.23369e-06
5.23382e-06
5.23395e-06
5.23407e-06
5.23418e-06
5.23429e-06
5.23439e-06
5.23449e-06
5.23457e-06
5.23464e-06
5.20718e-06
5.20837e-06
5.20948e-06
5.21054e-06
5.21155e-06
5.21252e-06
5.21345e-06
5.21434e-06
5.2152e-06
5.21602e-06
5.21682e-06
5.21759e-06
5.21833e-06
5.21904e-06
5.21973e-06
5.22039e-06
5.22104e-06
5.22166e-06
5.22226e-06
5.22283e-06
5.22339e-06
5.22393e-06
5.22445e-06
5.22495e-06
5.22544e-06
5.22591e-06
5.22636e-06
5.22679e-06
5.22721e-06
5.22761e-06
5.228e-06
5.22837e-06
5.22873e-06
5.22908e-06
5.22941e-06
5.22973e-06
5.23004e-06
5.23033e-06
5.23062e-06
5.23089e-06
5.23115e-06
5.2314e-06
5.23164e-06
5.23187e-06
5.23209e-06
5.2323e-06
5.2325e-06
5.23269e-06
5.23287e-06
5.23305e-06
5.23321e-06
5.23337e-06
5.23351e-06
5.23366e-06
5.23379e-06
5.23392e-06
5.23404e-06
5.23415e-06
5.23426e-06
5.23436e-06
5.23445e-06
5.23454e-06
5.23462e-06
5.23469e-06
5.20719e-06
5.20838e-06
5.2095e-06
5.21057e-06
5.21158e-06
5.21256e-06
5.21349e-06
5.21438e-06
5.21524e-06
5.21607e-06
5.21687e-06
5.21763e-06
5.21837e-06
5.21909e-06
5.21977e-06
5.22044e-06
5.22108e-06
5.22169e-06
5.22229e-06
5.22287e-06
5.22342e-06
5.22396e-06
5.22447e-06
5.22497e-06
5.22546e-06
5.22592e-06
5.22637e-06
5.2268e-06
5.22721e-06
5.22761e-06
5.228e-06
5.22837e-06
5.22873e-06
5.22907e-06
5.2294e-06
5.22972e-06
5.23003e-06
5.23032e-06
5.2306e-06
5.23087e-06
5.23113e-06
5.23138e-06
5.23162e-06
5.23185e-06
5.23207e-06
5.23228e-06
5.23247e-06
5.23266e-06
5.23285e-06
5.23302e-06
5.23318e-06
5.23334e-06
5.23348e-06
5.23363e-06
5.23376e-06
5.23389e-06
5.23401e-06
5.23412e-06
5.23423e-06
5.23433e-06
5.23442e-06
5.23451e-06
5.2346e-06
5.23467e-06
5.23473e-06
5.20719e-06
5.20839e-06
5.20952e-06
5.21059e-06
5.21161e-06
5.21259e-06
5.21353e-06
5.21443e-06
5.21529e-06
5.21612e-06
5.21691e-06
5.21768e-06
5.21842e-06
5.21913e-06
5.21982e-06
5.22048e-06
5.22112e-06
5.22173e-06
5.22232e-06
5.2229e-06
5.22345e-06
5.22398e-06
5.2245e-06
5.22499e-06
5.22547e-06
5.22593e-06
5.22638e-06
5.22681e-06
5.22722e-06
5.22762e-06
5.228e-06
5.22837e-06
5.22873e-06
5.22907e-06
5.2294e-06
5.22971e-06
5.23002e-06
5.23031e-06
5.23059e-06
5.23086e-06
5.23112e-06
5.23136e-06
5.2316e-06
5.23183e-06
5.23204e-06
5.23225e-06
5.23245e-06
5.23264e-06
5.23282e-06
5.23299e-06
5.23315e-06
5.23331e-06
5.23346e-06
5.2336e-06
5.23373e-06
5.23386e-06
5.23398e-06
5.23409e-06
5.2342e-06
5.2343e-06
5.23439e-06
5.23448e-06
5.23456e-06
5.23465e-06
5.23471e-06
5.23477e-06
5.20719e-06
5.2084e-06
5.20954e-06
5.21061e-06
5.21164e-06
5.21262e-06
5.21356e-06
5.21447e-06
5.21533e-06
5.21616e-06
5.21696e-06
5.21773e-06
5.21846e-06
5.21917e-06
5.21986e-06
5.22052e-06
5.22116e-06
5.22177e-06
5.22236e-06
5.22293e-06
5.22348e-06
5.22401e-06
5.22452e-06
5.22502e-06
5.22549e-06
5.22595e-06
5.22639e-06
5.22682e-06
5.22723e-06
5.22762e-06
5.22801e-06
5.22837e-06
5.22872e-06
5.22906e-06
5.22939e-06
5.2297e-06
5.23001e-06
5.2303e-06
5.23058e-06
5.23084e-06
5.2311e-06
5.23135e-06
5.23158e-06
5.23181e-06
5.23202e-06
5.23223e-06
5.23243e-06
5.23261e-06
5.23279e-06
5.23296e-06
5.23313e-06
5.23328e-06
5.23343e-06
5.23357e-06
5.2337e-06
5.23383e-06
5.23395e-06
5.23406e-06
5.23417e-06
5.23427e-06
5.23436e-06
5.23445e-06
5.23454e-06
5.23461e-06
5.23469e-06
5.23475e-06
5.2348e-06
5.2072e-06
5.20841e-06
5.20955e-06
5.21064e-06
5.21167e-06
5.21266e-06
5.2136e-06
5.21451e-06
5.21537e-06
5.2162e-06
5.217e-06
5.21777e-06
5.21851e-06
5.21922e-06
5.2199e-06
5.22056e-06
5.22119e-06
5.2218e-06
5.22239e-06
5.22296e-06
5.22351e-06
5.22404e-06
5.22455e-06
5.22504e-06
5.22551e-06
5.22597e-06
5.22641e-06
5.22683e-06
5.22724e-06
5.22763e-06
5.22801e-06
5.22837e-06
5.22872e-06
5.22906e-06
5.22939e-06
5.2297e-06
5.23e-06
5.23029e-06
5.23056e-06
5.23083e-06
5.23109e-06
5.23133e-06
5.23157e-06
5.23179e-06
5.232e-06
5.23221e-06
5.2324e-06
5.23259e-06
5.23277e-06
5.23294e-06
5.2331e-06
5.23326e-06
5.2334e-06
5.23354e-06
5.23367e-06
5.2338e-06
5.23392e-06
5.23403e-06
5.23414e-06
5.23424e-06
5.23434e-06
5.23443e-06
5.23451e-06
5.23459e-06
5.23466e-06
5.23473e-06
5.23479e-06
5.23484e-06
5.2072e-06
5.20842e-06
5.20957e-06
5.21066e-06
5.2117e-06
5.21269e-06
5.21364e-06
5.21454e-06
5.21541e-06
5.21625e-06
5.21704e-06
5.21781e-06
5.21855e-06
5.21926e-06
5.21994e-06
5.2206e-06
5.22123e-06
5.22184e-06
5.22243e-06
5.22299e-06
5.22354e-06
5.22406e-06
5.22457e-06
5.22506e-06
5.22553e-06
5.22598e-06
5.22642e-06
5.22684e-06
5.22725e-06
5.22764e-06
5.22801e-06
5.22838e-06
5.22873e-06
5.22906e-06
5.22938e-06
5.22969e-06
5.22999e-06
5.23028e-06
5.23056e-06
5.23082e-06
5.23107e-06
5.23132e-06
5.23155e-06
5.23177e-06
5.23199e-06
5.23219e-06
5.23238e-06
5.23257e-06
5.23275e-06
5.23292e-06
5.23308e-06
5.23323e-06
5.23338e-06
5.23352e-06
5.23365e-06
5.23377e-06
5.23389e-06
5.23401e-06
5.23411e-06
5.23421e-06
5.23431e-06
5.2344e-06
5.23448e-06
5.23456e-06
5.23463e-06
5.2347e-06
5.23477e-06
5.23482e-06
5.23486e-06
5.2072e-06
5.20843e-06
5.20959e-06
5.21068e-06
5.21173e-06
5.21272e-06
5.21367e-06
5.21458e-06
5.21545e-06
5.21629e-06
5.21709e-06
5.21786e-06
5.21859e-06
5.2193e-06
5.21998e-06
5.22064e-06
5.22127e-06
5.22188e-06
5.22246e-06
5.22303e-06
5.22357e-06
5.22409e-06
5.2246e-06
5.22508e-06
5.22555e-06
5.226e-06
5.22644e-06
5.22685e-06
5.22726e-06
5.22765e-06
5.22802e-06
5.22838e-06
5.22873e-06
5.22906e-06
5.22938e-06
5.22969e-06
5.22999e-06
5.23027e-06
5.23055e-06
5.23081e-06
5.23106e-06
5.2313e-06
5.23154e-06
5.23176e-06
5.23197e-06
5.23217e-06
5.23236e-06
5.23255e-06
5.23273e-06
5.23289e-06
5.23306e-06
5.23321e-06
5.23335e-06
5.23349e-06
5.23362e-06
5.23375e-06
5.23387e-06
5.23398e-06
5.23409e-06
5.23419e-06
5.23428e-06
5.23437e-06