/*--------------------------------*- C++ -*----------------------------------*\
  =========                 |
  \\      /  F ield         | OpenFOAM: The Open Source CFD Toolbox
   \\    /   O peration     | Website:  https://openfoam.org
    \\  /    A nd           | Version:  7
     \\/     M anipulation  |
\*---------------------------------------------------------------------------*/
FoamFile
{
    version     2.0;
    format      ascii;
    class       volScalarField;
    location    "1400";
    object      nuTilda;
}
// * * * * * * * * * * * * * * * * * * * * * * * * * * * * * * * * * * * * * //

dimensions      [0 2 -1 0 0 0 0];

internalField   nonuniform List<scalar> 
23052
(
3.4322e-05
3.43214e-05
3.43234e-05
3.43213e-05
3.43235e-05
3.43254e-05
3.43214e-05
3.43234e-05
3.43249e-05
3.43254e-05
3.43215e-05
3.43233e-05
3.43245e-05
3.43249e-05
3.43243e-05
3.43235e-05
3.43215e-05
3.43231e-05
3.43241e-05
3.43244e-05
3.43239e-05
3.43233e-05
3.43238e-05
3.43256e-05
3.43215e-05
3.43229e-05
3.43237e-05
3.4324e-05
3.43236e-05
3.43232e-05
3.43239e-05
3.43258e-05
3.43284e-05
3.43214e-05
3.43226e-05
3.43234e-05
3.43236e-05
3.43233e-05
3.43231e-05
3.43241e-05
3.4326e-05
3.43285e-05
3.43311e-05
3.43213e-05
3.43224e-05
3.43231e-05
3.43232e-05
3.4323e-05
3.43231e-05
3.43243e-05
3.43263e-05
3.43287e-05
3.43312e-05
3.43338e-05
3.43212e-05
3.43222e-05
3.43228e-05
3.43229e-05
3.43228e-05
3.43232e-05
3.43246e-05
3.43266e-05
3.43289e-05
3.43314e-05
3.43338e-05
3.43362e-05
3.43212e-05
3.4322e-05
3.43225e-05
3.43227e-05
3.43227e-05
3.43234e-05
3.43249e-05
3.43269e-05
3.43292e-05
3.43315e-05
3.43339e-05
3.43362e-05
3.43385e-05
3.43211e-05
3.43219e-05
3.43223e-05
3.43225e-05
3.43227e-05
3.43236e-05
3.43252e-05
3.43272e-05
3.43294e-05
3.43317e-05
3.4334e-05
3.43363e-05
3.43385e-05
3.43407e-05
3.43211e-05
3.43217e-05
3.43222e-05
3.43224e-05
3.43228e-05
3.43239e-05
3.43255e-05
3.43275e-05
3.43297e-05
3.43319e-05
3.43341e-05
3.43363e-05
3.43385e-05
3.43407e-05
3.43427e-05
3.43211e-05
3.43217e-05
3.4322e-05
3.43224e-05
3.4323e-05
3.43242e-05
3.43259e-05
3.43278e-05
3.43299e-05
3.43321e-05
3.43342e-05
3.43364e-05
3.43385e-05
3.43406e-05
3.43427e-05
3.43447e-05
3.43212e-05
3.43216e-05
3.4322e-05
3.43224e-05
3.43232e-05
3.43245e-05
3.43262e-05
3.43281e-05
3.43301e-05
3.43322e-05
3.43343e-05
3.43364e-05
3.43385e-05
3.43406e-05
3.43426e-05
3.43446e-05
3.43465e-05
3.43212e-05
3.43216e-05
3.4322e-05
3.43225e-05
3.43235e-05
3.43249e-05
3.43265e-05
3.43284e-05
3.43304e-05
3.43324e-05
3.43345e-05
3.43365e-05
3.43386e-05
3.43406e-05
3.43426e-05
3.43445e-05
3.43464e-05
3.43482e-05
3.43213e-05
3.43217e-05
3.43221e-05
3.43228e-05
3.43238e-05
3.43252e-05
3.43269e-05
3.43287e-05
3.43306e-05
3.43326e-05
3.43346e-05
3.43366e-05
3.43386e-05
3.43406e-05
3.43426e-05
3.43445e-05
3.43463e-05
3.43481e-05
3.43498e-05
3.43214e-05
3.43218e-05
3.43223e-05
3.4323e-05
3.43241e-05
3.43255e-05
3.43272e-05
3.43289e-05
3.43308e-05
3.43328e-05
3.43347e-05
3.43367e-05
3.43387e-05
3.43406e-05
3.43426e-05
3.43444e-05
3.43462e-05
3.4348e-05
3.43497e-05
3.43513e-05
3.43214e-05
3.43219e-05
3.43225e-05
3.43233e-05
3.43245e-05
3.43259e-05
3.43275e-05
3.43292e-05
3.4331e-05
3.43329e-05
3.43349e-05
3.43368e-05
3.43388e-05
3.43407e-05
3.43425e-05
3.43444e-05
3.43462e-05
3.43479e-05
3.43496e-05
3.43512e-05
3.43527e-05
3.43215e-05
3.4322e-05
3.43227e-05
3.43236e-05
3.43248e-05
3.43262e-05
3.43277e-05
3.43295e-05
3.43313e-05
3.43331e-05
3.4335e-05
3.43369e-05
3.43388e-05
3.43407e-05
3.43425e-05
3.43444e-05
3.43461e-05
3.43478e-05
3.43495e-05
3.43511e-05
3.43526e-05
3.4354e-05
3.43215e-05
3.43222e-05
3.43229e-05
3.43239e-05
3.4325e-05
3.43264e-05
3.4328e-05
3.43297e-05
3.43315e-05
3.43333e-05
3.43352e-05
3.4337e-05
3.43389e-05
3.43407e-05
3.43426e-05
3.43443e-05
3.43461e-05
3.43477e-05
3.43494e-05
3.43509e-05
3.43525e-05
3.43539e-05
3.43553e-05
3.43216e-05
3.43223e-05
3.43231e-05
3.43241e-05
3.43253e-05
3.43267e-05
3.43283e-05
3.43299e-05
3.43317e-05
3.43335e-05
3.43353e-05
3.43372e-05
3.4339e-05
3.43408e-05
3.43426e-05
3.43443e-05
3.4346e-05
3.43477e-05
3.43493e-05
3.43508e-05
3.43523e-05
3.43538e-05
3.43552e-05
3.43564e-05
3.43216e-05
3.43224e-05
3.43233e-05
3.43243e-05
3.43256e-05
3.4327e-05
3.43285e-05
3.43302e-05
3.43319e-05
3.43337e-05
3.43355e-05
3.43373e-05
3.43391e-05
3.43408e-05
3.43426e-05
3.43443e-05
3.4346e-05
3.43476e-05
3.43492e-05
3.43507e-05
3.43522e-05
3.43537e-05
3.4355e-05
3.43564e-05
3.43575e-05
3.43216e-05
3.43226e-05
3.43235e-05
3.43246e-05
3.43258e-05
3.43272e-05
3.43288e-05
3.43304e-05
3.43321e-05
3.43338e-05
3.43356e-05
3.43374e-05
3.43392e-05
3.43409e-05
3.43426e-05
3.43443e-05
3.4346e-05
3.43476e-05
3.43491e-05
3.43507e-05
3.43521e-05
3.43535e-05
3.43549e-05
3.43562e-05
3.43575e-05
3.43586e-05
3.43217e-05
3.43227e-05
3.43237e-05
3.43248e-05
3.4326e-05
3.43275e-05
3.4329e-05
3.43306e-05
3.43323e-05
3.4334e-05
3.43358e-05
3.43375e-05
3.43392e-05
3.4341e-05
3.43427e-05
3.43443e-05
3.4346e-05
3.43475e-05
3.43491e-05
3.43506e-05
3.4352e-05
3.43534e-05
3.43548e-05
3.43561e-05
3.43573e-05
3.43585e-05
3.43596e-05
3.43217e-05
3.43228e-05
3.43238e-05
3.4325e-05
3.43263e-05
3.43277e-05
3.43292e-05
3.43308e-05
3.43325e-05
3.43342e-05
3.43359e-05
3.43376e-05
3.43393e-05
3.4341e-05
3.43427e-05
3.43443e-05
3.4346e-05
3.43475e-05
3.4349e-05
3.43505e-05
3.43519e-05
3.43533e-05
3.43546e-05
3.43559e-05
3.43572e-05
3.43583e-05
3.43595e-05
3.43605e-05
3.43217e-05
3.43229e-05
3.4324e-05
3.43252e-05
3.43265e-05
3.43279e-05
3.43294e-05
3.4331e-05
3.43327e-05
3.43344e-05
3.43361e-05
3.43378e-05
3.43394e-05
3.43411e-05
3.43428e-05
3.43444e-05
3.4346e-05
3.43475e-05
3.4349e-05
3.43505e-05
3.43519e-05
3.43532e-05
3.43545e-05
3.43558e-05
3.4357e-05
3.43582e-05
3.43593e-05
3.43604e-05
3.43613e-05
3.43218e-05
3.4323e-05
3.43241e-05
3.43253e-05
3.43267e-05
3.43281e-05
3.43296e-05
3.43312e-05
3.43329e-05
3.43345e-05
3.43362e-05
3.43379e-05
3.43395e-05
3.43412e-05
3.43428e-05
3.43444e-05
3.4346e-05
3.43475e-05
3.4349e-05
3.43504e-05
3.43518e-05
3.43531e-05
3.43544e-05
3.43557e-05
3.43569e-05
3.4358e-05
3.43592e-05
3.43602e-05
3.43612e-05
3.43621e-05
3.43218e-05
3.43231e-05
3.43243e-05
3.43255e-05
3.43269e-05
3.43283e-05
3.43298e-05
3.43314e-05
3.4333e-05
3.43347e-05
3.43363e-05
3.4338e-05
3.43396e-05
3.43413e-05
3.43429e-05
3.43444e-05
3.4346e-05
3.43475e-05
3.43489e-05
3.43504e-05
3.43517e-05
3.43531e-05
3.43543e-05
3.43556e-05
3.43568e-05
3.43579e-05
3.4359e-05
3.43601e-05
3.43611e-05
3.4362e-05
3.43629e-05
3.43218e-05
3.43231e-05
3.43244e-05
3.43257e-05
3.43271e-05
3.43285e-05
3.433e-05
3.43316e-05
3.43332e-05
3.43349e-05
3.43365e-05
3.43381e-05
3.43397e-05
3.43413e-05
3.43429e-05
3.43445e-05
3.4346e-05
3.43475e-05
3.43489e-05
3.43503e-05
3.43517e-05
3.4353e-05
3.43543e-05
3.43555e-05
3.43567e-05
3.43578e-05
3.43589e-05
3.43599e-05
3.43609e-05
3.43619e-05
3.43628e-05
3.43636e-05
3.43218e-05
3.43232e-05
3.43245e-05
3.43258e-05
3.43272e-05
3.43287e-05
3.43302e-05
3.43318e-05
3.43334e-05
3.4335e-05
3.43366e-05
3.43382e-05
3.43398e-05
3.43414e-05
3.4343e-05
3.43445e-05
3.4346e-05
3.43475e-05
3.43489e-05
3.43503e-05
3.43516e-05
3.43529e-05
3.43542e-05
3.43554e-05
3.43566e-05
3.43577e-05
3.43588e-05
3.43598e-05
3.43608e-05
3.43617e-05
3.43627e-05
3.43635e-05
3.43643e-05
3.43219e-05
3.43233e-05
3.43246e-05
3.4326e-05
3.43274e-05
3.43289e-05
3.43304e-05
3.4332e-05
3.43336e-05
3.43352e-05
3.43368e-05
3.43384e-05
3.43399e-05
3.43415e-05
3.43431e-05
3.43446e-05
3.4346e-05
3.43475e-05
3.43489e-05
3.43503e-05
3.43516e-05
3.43529e-05
3.43541e-05
3.43553e-05
3.43565e-05
3.43576e-05
3.43586e-05
3.43597e-05
3.43607e-05
3.43616e-05
3.43625e-05
3.43634e-05
3.43642e-05
3.43649e-05
3.43219e-05
3.43233e-05
3.43247e-05
3.43261e-05
3.43276e-05
3.4329e-05
3.43306e-05
3.43321e-05
3.43337e-05
3.43353e-05
3.43369e-05
3.43385e-05
3.434e-05
3.43416e-05
3.43431e-05
3.43446e-05
3.43461e-05
3.43475e-05
3.43489e-05
3.43503e-05
3.43516e-05
3.43528e-05
3.43541e-05
3.43552e-05
3.43564e-05
3.43575e-05
3.43585e-05
3.43596e-05
3.43605e-05
3.43615e-05
3.43624e-05
3.43632e-05
3.43641e-05
3.43648e-05
3.43655e-05
3.43219e-05
3.43234e-05
3.43248e-05
3.43262e-05
3.43277e-05
3.43292e-05
3.43307e-05
3.43323e-05
3.43339e-05
3.43355e-05
3.4337e-05
3.43386e-05
3.43402e-05
3.43417e-05
3.43432e-05
3.43447e-05
3.43461e-05
3.43475e-05
3.43489e-05
3.43502e-05
3.43515e-05
3.43528e-05
3.4354e-05
3.43552e-05
3.43563e-05
3.43574e-05
3.43584e-05
3.43595e-05
3.43604e-05
3.43614e-05
3.43622e-05
3.43631e-05
3.43639e-05
3.43647e-05
3.43654e-05
3.43661e-05
3.43219e-05
3.43235e-05
3.43249e-05
3.43264e-05
3.43279e-05
3.43294e-05
3.43309e-05
3.43325e-05
3.4334e-05
3.43356e-05
3.43372e-05
3.43387e-05
3.43403e-05
3.43418e-05
3.43433e-05
3.43447e-05
3.43462e-05
3.43476e-05
3.43489e-05
3.43502e-05
3.43515e-05
3.43528e-05
3.4354e-05
3.43551e-05
3.43562e-05
3.43573e-05
3.43584e-05
3.43594e-05
3.43603e-05
3.43612e-05
3.43621e-05
3.4363e-05
3.43638e-05
3.43645e-05
3.43653e-05
3.4366e-05
3.43666e-05
3.43219e-05
3.43235e-05
3.4325e-05
3.43265e-05
3.4328e-05
3.43295e-05
3.43311e-05
3.43326e-05
3.43342e-05
3.43357e-05
3.43373e-05
3.43388e-05
3.43404e-05
3.43419e-05
3.43433e-05
3.43448e-05
3.43462e-05
3.43476e-05
3.43489e-05
3.43502e-05
3.43515e-05
3.43527e-05
3.43539e-05
3.43551e-05
3.43562e-05
3.43572e-05
3.43583e-05
3.43593e-05
3.43602e-05
3.43611e-05
3.4362e-05
3.43628e-05
3.43636e-05
3.43644e-05
3.43652e-05
3.43659e-05
3.43665e-05
3.43671e-05
3.43219e-05
3.43236e-05
3.43251e-05
3.43266e-05
3.43281e-05
3.43297e-05
3.43312e-05
3.43328e-05
3.43343e-05
3.43359e-05
3.43374e-05
3.4339e-05
3.43405e-05
3.4342e-05
3.43434e-05
3.43449e-05
3.43463e-05
3.43476e-05
3.43489e-05
3.43502e-05
3.43515e-05
3.43527e-05
3.43539e-05
3.4355e-05
3.43561e-05
3.43572e-05
3.43582e-05
3.43592e-05
3.43601e-05
3.4361e-05
3.43619e-05
3.43627e-05
3.43635e-05
3.43643e-05
3.4365e-05
3.43657e-05
3.43664e-05
3.4367e-05
3.43676e-05
3.4322e-05
3.43236e-05
3.43252e-05
3.43267e-05
3.43283e-05
3.43298e-05
3.43314e-05
3.43329e-05
3.43345e-05
3.4336e-05
3.43376e-05
3.43391e-05
3.43406e-05
3.4342e-05
3.43435e-05
3.43449e-05
3.43463e-05
3.43477e-05
3.4349e-05
3.43502e-05
3.43515e-05
3.43527e-05
3.43539e-05
3.4355e-05
3.43561e-05
3.43571e-05
3.43581e-05
3.43591e-05
3.436e-05
3.43609e-05
3.43618e-05
3.43626e-05
3.43634e-05
3.43642e-05
3.43649e-05
3.43656e-05
3.43663e-05
3.43669e-05
3.43675e-05
3.4368e-05
3.4322e-05
3.43237e-05
3.43253e-05
3.43268e-05
3.43284e-05
3.43299e-05
3.43315e-05
3.43331e-05
3.43346e-05
3.43362e-05
3.43377e-05
3.43392e-05
3.43407e-05
3.43421e-05
3.43436e-05
3.4345e-05
3.43464e-05
3.43477e-05
3.4349e-05
3.43503e-05
3.43515e-05
3.43527e-05
3.43538e-05
3.43549e-05
3.4356e-05
3.43571e-05
3.43581e-05
3.4359e-05
3.43599e-05
3.43608e-05
3.43617e-05
3.43625e-05
3.43633e-05
3.43641e-05
3.43648e-05
3.43655e-05
3.43661e-05
3.43668e-05
3.43674e-05
3.43679e-05
3.43684e-05
3.4322e-05
3.43237e-05
3.43253e-05
3.43269e-05
3.43285e-05
3.43301e-05
3.43316e-05
3.43332e-05
3.43347e-05
3.43363e-05
3.43378e-05
3.43393e-05
3.43408e-05
3.43422e-05
3.43437e-05
3.43451e-05
3.43464e-05
3.43477e-05
3.4349e-05
3.43503e-05
3.43515e-05
3.43527e-05
3.43538e-05
3.43549e-05
3.4356e-05
3.4357e-05
3.4358e-05
3.4359e-05
3.43599e-05
3.43608e-05
3.43616e-05
3.43624e-05
3.43632e-05
3.4364e-05
3.43647e-05
3.43654e-05
3.4366e-05
3.43666e-05
3.43672e-05
3.43678e-05
3.43683e-05
3.43688e-05
3.4322e-05
3.43238e-05
3.43254e-05
3.4327e-05
3.43286e-05
3.43302e-05
3.43318e-05
3.43333e-05
3.43349e-05
3.43364e-05
3.43379e-05
3.43394e-05
3.43409e-05
3.43423e-05
3.43437e-05
3.43451e-05
3.43465e-05
3.43478e-05
3.43491e-05
3.43503e-05
3.43515e-05
3.43527e-05
3.43538e-05
3.43549e-05
3.43559e-05
3.4357e-05
3.43579e-05
3.43589e-05
3.43598e-05
3.43607e-05
3.43615e-05
3.43623e-05
3.43631e-05
3.43639e-05
3.43646e-05
3.43653e-05
3.43659e-05
3.43665e-05
3.43671e-05
3.43677e-05
3.43682e-05
3.43687e-05
3.43692e-05
3.4322e-05
3.43238e-05
3.43255e-05
3.43271e-05
3.43287e-05
3.43303e-05
3.43319e-05
3.43335e-05
3.4335e-05
3.43365e-05
3.4338e-05
3.43395e-05
3.4341e-05
3.43424e-05
3.43438e-05
3.43452e-05
3.43465e-05
3.43478e-05
3.43491e-05
3.43503e-05
3.43515e-05
3.43527e-05
3.43538e-05
3.43549e-05
3.43559e-05
3.43569e-05
3.43579e-05
3.43588e-05
3.43597e-05
3.43606e-05
3.43614e-05
3.43622e-05
3.4363e-05
3.43638e-05
3.43645e-05
3.43651e-05
3.43658e-05
3.43664e-05
3.4367e-05
3.43676e-05
3.43681e-05
3.43686e-05
3.43691e-05
3.43695e-05
3.4322e-05
3.43238e-05
3.43255e-05
3.43272e-05
3.43288e-05
3.43304e-05
3.4332e-05
3.43336e-05
3.43351e-05
3.43367e-05
3.43382e-05
3.43396e-05
3.43411e-05
3.43425e-05
3.43439e-05
3.43453e-05
3.43466e-05
3.43479e-05
3.43491e-05
3.43503e-05
3.43515e-05
3.43527e-05
3.43538e-05
3.43549e-05
3.43559e-05
3.43569e-05
3.43579e-05
3.43588e-05
3.43597e-05
3.43605e-05
3.43614e-05
3.43622e-05
3.43629e-05
3.43637e-05
3.43644e-05
3.43651e-05
3.43657e-05
3.43663e-05
3.43669e-05
3.43675e-05
3.4368e-05
3.43685e-05
3.4369e-05
3.43694e-05
3.43698e-05
3.4322e-05
3.43239e-05
3.43256e-05
3.43273e-05
3.43289e-05
3.43305e-05
3.43321e-05
3.43337e-05
3.43353e-05
3.43368e-05
3.43383e-05
3.43398e-05
3.43412e-05
3.43426e-05
3.4344e-05
3.43453e-05
3.43466e-05
3.43479e-05
3.43492e-05
3.43504e-05
3.43515e-05
3.43527e-05
3.43538e-05
3.43548e-05
3.43559e-05
3.43569e-05
3.43578e-05
3.43587e-05
3.43596e-05
3.43605e-05
3.43613e-05
3.43621e-05
3.43629e-05
3.43636e-05
3.43643e-05
3.4365e-05
3.43656e-05
3.43662e-05
3.43668e-05
3.43673e-05
3.43679e-05
3.43684e-05
3.43689e-05
3.43693e-05
3.43698e-05
3.43701e-05
3.4322e-05
3.43239e-05
3.43257e-05
3.43274e-05
3.4329e-05
3.43306e-05
3.43322e-05
3.43338e-05
3.43354e-05
3.43369e-05
3.43384e-05
3.43399e-05
3.43413e-05
3.43427e-05
3.43441e-05
3.43454e-05
3.43467e-05
3.4348e-05
3.43492e-05
3.43504e-05
3.43516e-05
3.43527e-05
3.43538e-05
3.43548e-05
3.43559e-05
3.43568e-05
3.43578e-05
3.43587e-05
3.43596e-05
3.43604e-05
3.43612e-05
3.4362e-05
3.43628e-05
3.43635e-05
3.43642e-05
3.43649e-05
3.43655e-05
3.43661e-05
3.43667e-05
3.43672e-05
3.43678e-05
3.43683e-05
3.43688e-05
3.43692e-05
3.43697e-05
3.43701e-05
3.43704e-05
3.4322e-05
3.4324e-05
3.43257e-05
3.43274e-05
3.43291e-05
3.43307e-05
3.43324e-05
3.43339e-05
3.43355e-05
3.4337e-05
3.43385e-05
3.434e-05
3.43414e-05
3.43428e-05
3.43441e-05
3.43455e-05
3.43468e-05
3.4348e-05
3.43492e-05
3.43504e-05
3.43516e-05
3.43527e-05
3.43538e-05
3.43548e-05
3.43558e-05
3.43568e-05
3.43578e-05
3.43587e-05
3.43595e-05
3.43604e-05
3.43612e-05
3.4362e-05
3.43627e-05
3.43634e-05
3.43641e-05
3.43648e-05
3.43654e-05
3.4366e-05
3.43666e-05
3.43671e-05
3.43677e-05
3.43682e-05
3.43687e-05
3.43691e-05
3.43695e-05
3.437e-05
3.43704e-05
3.43707e-05
3.43221e-05
3.4324e-05
3.43258e-05
3.43275e-05
3.43292e-05
3.43309e-05
3.43325e-05
3.43341e-05
3.43356e-05
3.43371e-05
3.43386e-05
3.43401e-05
3.43415e-05
3.43429e-05
3.43442e-05
3.43455e-05
3.43468e-05
3.43481e-05
3.43493e-05
3.43505e-05
3.43516e-05
3.43527e-05
3.43538e-05
3.43548e-05
3.43558e-05
3.43568e-05
3.43577e-05
3.43586e-05
3.43595e-05
3.43603e-05
3.43611e-05
3.43619e-05
3.43627e-05
3.43634e-05
3.43641e-05
3.43647e-05
3.43653e-05
3.43659e-05
3.43665e-05
3.43671e-05
3.43676e-05
3.43681e-05
3.43686e-05
3.4369e-05
3.43694e-05
3.43699e-05
3.43703e-05
3.43706e-05
3.43709e-05
3.43221e-05
3.4324e-05
3.43258e-05
3.43276e-05
3.43293e-05
3.4331e-05
3.43326e-05
3.43342e-05
3.43357e-05
3.43372e-05
3.43387e-05
3.43402e-05
3.43416e-05
3.4343e-05
3.43443e-05
3.43456e-05
3.43469e-05
3.43481e-05
3.43493e-05
3.43505e-05
3.43516e-05
3.43527e-05
3.43538e-05
3.43548e-05
3.43558e-05
3.43568e-05
3.43577e-05
3.43586e-05
3.43595e-05
3.43603e-05
3.43611e-05
3.43619e-05
3.43626e-05
3.43633e-05
3.4364e-05
3.43646e-05
3.43653e-05
3.43659e-05
3.43664e-05
3.4367e-05
3.43675e-05
3.4368e-05
3.43685e-05
3.43689e-05
3.43694e-05
3.43698e-05
3.43702e-05
3.43705e-05
3.43709e-05
3.43712e-05
3.43221e-05
3.4324e-05
3.43259e-05
3.43277e-05
3.43294e-05
3.4331e-05
3.43327e-05
3.43343e-05
3.43358e-05
3.43373e-05
3.43388e-05
3.43403e-05
3.43417e-05
3.43431e-05
3.43444e-05
3.43457e-05
3.4347e-05
3.43482e-05
3.43494e-05
3.43506e-05
3.43517e-05
3.43528e-05
3.43538e-05
3.43548e-05
3.43558e-05
3.43568e-05
3.43577e-05
3.43586e-05
3.43594e-05
3.43603e-05
3.4361e-05
3.43618e-05
3.43625e-05
3.43632e-05
3.43639e-05
3.43646e-05
3.43652e-05
3.43658e-05
3.43663e-05
3.43669e-05
3.43674e-05
3.43679e-05
3.43684e-05
3.43688e-05
3.43693e-05
3.43697e-05
3.43701e-05
3.43704e-05
3.43708e-05
3.43711e-05
3.43714e-05
3.43221e-05
3.43241e-05
3.43259e-05
3.43277e-05
3.43295e-05
3.43311e-05
3.43328e-05
3.43344e-05
3.43359e-05
3.43375e-05
3.43389e-05
3.43404e-05
3.43418e-05
3.43431e-05
3.43445e-05
3.43458e-05
3.4347e-05
3.43483e-05
3.43494e-05
3.43506e-05
3.43517e-05
3.43528e-05
3.43538e-05
3.43548e-05
3.43558e-05
3.43568e-05
3.43577e-05
3.43586e-05
3.43594e-05
3.43602e-05
3.4361e-05
3.43618e-05
3.43625e-05
3.43632e-05
3.43639e-05
3.43645e-05
3.43651e-05
3.43657e-05
3.43663e-05
3.43668e-05
3.43673e-05
3.43678e-05
3.43683e-05
3.43687e-05
3.43692e-05
3.43696e-05
3.437e-05
3.43703e-05
3.43707e-05
3.4371e-05
3.43713e-05
3.43716e-05
3.43221e-05
3.43241e-05
3.4326e-05
3.43278e-05
3.43295e-05
3.43312e-05
3.43329e-05
3.43345e-05
3.4336e-05
3.43376e-05
3.4339e-05
3.43405e-05
3.43419e-05
3.43432e-05
3.43446e-05
3.43459e-05
3.43471e-05
3.43483e-05
3.43495e-05
3.43506e-05
3.43517e-05
3.43528e-05
3.43539e-05
3.43549e-05
3.43558e-05
3.43568e-05
3.43577e-05
3.43585e-05
3.43594e-05
3.43602e-05
3.4361e-05
3.43617e-05
3.43624e-05
3.43631e-05
3.43638e-05
3.43644e-05
3.43651e-05
3.43656e-05
3.43662e-05
3.43667e-05
3.43672e-05
3.43677e-05
3.43682e-05
3.43687e-05
3.43691e-05
3.43695e-05
3.43699e-05
3.43703e-05
3.43706e-05
3.43709e-05
3.43713e-05
3.43716e-05
3.43718e-05
3.43221e-05
3.43241e-05
3.4326e-05
3.43279e-05
3.43296e-05
3.43313e-05
3.4333e-05
3.43346e-05
3.43361e-05
3.43377e-05
3.43391e-05
3.43406e-05
3.4342e-05
3.43433e-05
3.43446e-05
3.43459e-05
3.43472e-05
3.43484e-05
3.43496e-05
3.43507e-05
3.43518e-05
3.43528e-05
3.43539e-05
3.43549e-05
3.43558e-05
3.43568e-05
3.43577e-05
3.43585e-05
3.43594e-05
3.43602e-05
3.43609e-05
3.43617e-05
3.43624e-05
3.43631e-05
3.43638e-05
3.43644e-05
3.4365e-05
3.43656e-05
3.43661e-05
3.43667e-05
3.43672e-05
3.43677e-05
3.43681e-05
3.43686e-05
3.4369e-05
3.43694e-05
3.43698e-05
3.43702e-05
3.43705e-05
3.43709e-05
3.43712e-05
3.43715e-05
3.43718e-05
3.4372e-05
3.43221e-05
3.43242e-05
3.43261e-05
3.43279e-05
3.43297e-05
3.43314e-05
3.43331e-05
3.43347e-05
3.43362e-05
3.43378e-05
3.43392e-05
3.43407e-05
3.43421e-05
3.43434e-05
3.43447e-05
3.4346e-05
3.43472e-05
3.43484e-05
3.43496e-05
3.43507e-05
3.43518e-05
3.43529e-05
3.43539e-05
3.43549e-05
3.43559e-05
3.43568e-05
3.43577e-05
3.43585e-05
3.43594e-05
3.43602e-05
3.43609e-05
3.43617e-05
3.43624e-05
3.43631e-05
3.43637e-05
3.43643e-05
3.43649e-05
3.43655e-05
3.43661e-05
3.43666e-05
3.43671e-05
3.43676e-05
3.43681e-05
3.43685e-05
3.43689e-05
3.43693e-05
3.43697e-05
3.43701e-05
3.43704e-05
3.43708e-05
3.43711e-05
3.43714e-05
3.43717e-05
3.43719e-05
3.43722e-05
3.43221e-05
3.43242e-05
3.43261e-05
3.4328e-05
3.43298e-05
3.43315e-05
3.43331e-05
3.43348e-05
3.43363e-05
3.43379e-05
3.43393e-05
3.43408e-05
3.43422e-05
3.43435e-05
3.43448e-05
3.43461e-05
3.43473e-05
3.43485e-05
3.43497e-05
3.43508e-05
3.43519e-05
3.43529e-05
3.43539e-05
3.43549e-05
3.43559e-05
3.43568e-05
3.43577e-05
3.43585e-05
3.43593e-05
3.43601e-05
3.43609e-05
3.43616e-05
3.43623e-05
3.4363e-05
3.43637e-05
3.43643e-05
3.43649e-05
3.43655e-05
3.4366e-05
3.43665e-05
3.4367e-05
3.43675e-05
3.4368e-05
3.43684e-05
3.43689e-05
3.43693e-05
3.43696e-05
3.437e-05
3.43704e-05
3.43707e-05
3.4371e-05
3.43713e-05
3.43716e-05
3.43719e-05
3.43721e-05
3.43723e-05
3.43221e-05
3.43242e-05
3.43262e-05
3.4328e-05
3.43298e-05
3.43316e-05
3.43332e-05
3.43349e-05
3.43364e-05
3.4338e-05
3.43394e-05
3.43409e-05
3.43422e-05
3.43436e-05
3.43449e-05
3.43462e-05
3.43474e-05
3.43486e-05
3.43497e-05
3.43508e-05
3.43519e-05
3.4353e-05
3.4354e-05
3.43549e-05
3.43559e-05
3.43568e-05
3.43577e-05
3.43585e-05
3.43593e-05
3.43601e-05
3.43609e-05
3.43616e-05
3.43623e-05
3.4363e-05
3.43636e-05
3.43642e-05
3.43648e-05
3.43654e-05
3.4366e-05
3.43665e-05
3.4367e-05
3.43675e-05
3.43679e-05
3.43684e-05
3.43688e-05
3.43692e-05
3.43696e-05
3.43699e-05
3.43703e-05
3.43706e-05
3.43709e-05
3.43712e-05
3.43715e-05
3.43718e-05
3.4372e-05
3.43723e-05
3.43725e-05
3.43221e-05
3.43242e-05
3.43262e-05
3.43281e-05
3.43299e-05
3.43316e-05
3.43333e-05
3.4335e-05
3.43365e-05
3.4338e-05
3.43395e-05
3.4341e-05
3.43423e-05
3.43437e-05
3.4345e-05
3.43462e-05
3.43475e-05
3.43486e-05
3.43498e-05
3.43509e-05
3.4352e-05
3.4353e-05
3.4354e-05
3.4355e-05
3.43559e-05
3.43568e-05
3.43577e-05
3.43585e-05
3.43593e-05
3.43601e-05
3.43609e-05
3.43616e-05
3.43623e-05
3.43629e-05
3.43636e-05
3.43642e-05
3.43648e-05
3.43654e-05
3.43659e-05
3.43664e-05
3.43669e-05
3.43674e-05
3.43679e-05
3.43683e-05
3.43687e-05
3.43691e-05
3.43695e-05
3.43699e-05
3.43702e-05
3.43705e-05
3.43709e-05
3.43712e-05
3.43714e-05
3.43717e-05
3.43719e-05
3.43722e-05
3.43724e-05
3.43726e-05
3.43221e-05
3.43243e-05
3.43262e-05
3.43281e-05
3.433e-05
3.43317e-05
3.43334e-05
3.4335e-05
3.43366e-05
3.43381e-05
3.43396e-05
3.4341e-05
3.43424e-05
3.43438e-05
3.43451e-05
3.43463e-05
3.43475e-05
3.43487e-05
3.43498e-05
3.43509e-05
3.4352e-05
3.4353e-05
3.4354e-05
3.4355e-05
3.43559e-05
3.43568e-05
3.43577e-05
3.43585e-05
3.43593e-05
3.43601e-05
3.43608e-05
3.43616e-05
3.43623e-05
3.43629e-05
3.43635e-05
3.43642e-05
3.43647e-05
3.43653e-05
3.43659e-05
3.43664e-05
3.43669e-05
3.43673e-05
3.43678e-05
3.43682e-05
3.43687e-05
3.43691e-05
3.43694e-05
3.43698e-05
3.43701e-05
3.43705e-05
3.43708e-05
3.43711e-05
3.43714e-05
3.43716e-05
3.43719e-05
3.43721e-05
3.43723e-05
3.43725e-05
3.43727e-05
3.43221e-05
3.43243e-05
3.43263e-05
3.43282e-05
3.433e-05
3.43318e-05
3.43335e-05
3.43351e-05
3.43367e-05
3.43382e-05
3.43397e-05
3.43411e-05
3.43425e-05
3.43438e-05
3.43451e-05
3.43464e-05
3.43476e-05
3.43488e-05
3.43499e-05
3.4351e-05
3.43521e-05
3.43531e-05
3.43541e-05
3.4355e-05
3.43559e-05
3.43568e-05
3.43577e-05
3.43585e-05
3.43593e-05
3.43601e-05
3.43608e-05
3.43615e-05
3.43622e-05
3.43629e-05
3.43635e-05
3.43641e-05
3.43647e-05
3.43653e-05
3.43658e-05
3.43663e-05
3.43668e-05
3.43673e-05
3.43678e-05
3.43682e-05
3.43686e-05
3.4369e-05
3.43694e-05
3.43697e-05
3.43701e-05
3.43704e-05
3.43707e-05
3.4371e-05
3.43713e-05
3.43716e-05
3.43718e-05
3.4372e-05
3.43723e-05
3.43725e-05
3.43727e-05
3.43728e-05
3.43221e-05
3.43243e-05
3.43263e-05
3.43282e-05
3.43301e-05
3.43319e-05
3.43336e-05
3.43352e-05
3.43368e-05
3.43383e-05
3.43398e-05
3.43412e-05
3.43426e-05
3.43439e-05
3.43452e-05
3.43465e-05
3.43477e-05
3.43488e-05
3.435e-05
3.4351e-05
3.43521e-05
3.43531e-05
3.43541e-05
3.43551e-05
3.4356e-05
3.43569e-05
3.43577e-05
3.43585e-05
3.43593e-05
3.43601e-05
3.43608e-05
3.43615e-05
3.43622e-05
3.43629e-05
3.43635e-05
3.43641e-05
3.43647e-05
3.43652e-05
3.43658e-05
3.43663e-05
3.43668e-05
3.43672e-05
3.43677e-05
3.43681e-05
3.43685e-05
3.43689e-05
3.43693e-05
3.43697e-05
3.437e-05
3.43703e-05
3.43707e-05
3.43709e-05
3.43712e-05
3.43715e-05
3.43717e-05
3.4372e-05
3.43722e-05
3.43724e-05
3.43726e-05
3.43728e-05
3.43729e-05
3.43221e-05
3.43243e-05
3.43264e-05
3.43283e-05
3.43302e-05
3.43319e-05
3.43336e-05
3.43353e-05
3.43369e-05
3.43384e-05
3.43399e-05
3.43413e-05
3.43427e-05
3.4344e-05
3.43453e-05
3.43465e-05
3.43477e-05
3.43489e-05
3.435e-05
3.43511e-05
3.43522e-05
3.43532e-05
3.43541e-05
3.43551e-05
3.4356e-05
3.43569e-05
3.43577e-05
3.43585e-05
3.43593e-05
3.43601e-05
3.43608e-05
3.43615e-05
3.43622e-05
3.43628e-05
3.43635e-05
3.43641e-05
3.43646e-05
3.43652e-05
3.43657e-05
3.43662e-05
3.43667e-05
3.43672e-05
3.43677e-05
3.43681e-05
3.43685e-05
3.43689e-05
3.43693e-05
3.43696e-05
3.437e-05
3.43703e-05
3.43706e-05
3.43709e-05
3.43712e-05
3.43714e-05
3.43717e-05
3.43719e-05
3.43721e-05
3.43723e-05
3.43725e-05
3.43727e-05
3.43729e-05
3.4373e-05
3.43221e-05
3.43243e-05
3.43264e-05
3.43283e-05
3.43302e-05
3.4332e-05
3.43337e-05
3.43354e-05
3.4337e-05
3.43385e-05
3.434e-05
3.43414e-05
3.43428e-05
3.43441e-05
3.43454e-05
3.43466e-05
3.43478e-05
3.4349e-05
3.43501e-05
3.43512e-05
3.43522e-05
3.43532e-05
3.43542e-05
3.43551e-05
3.4356e-05
3.43569e-05
3.43577e-05
3.43586e-05
3.43593e-05
3.43601e-05
3.43608e-05
3.43615e-05
3.43622e-05
3.43628e-05
3.43634e-05
3.4364e-05
3.43646e-05
3.43652e-05
3.43657e-05
3.43662e-05
3.43667e-05
3.43672e-05
3.43676e-05
3.4368e-05
3.43684e-05
3.43688e-05
3.43692e-05
3.43696e-05
3.43699e-05
3.43702e-05
3.43705e-05
3.43708e-05
3.43711e-05
3.43714e-05
3.43716e-05
3.43718e-05
3.43721e-05
3.43723e-05
3.43725e-05
3.43727e-05
3.43728e-05
3.4373e-05
3.43731e-05
3.43222e-05
3.43244e-05
3.43264e-05
3.43284e-05
3.43303e-05
3.43321e-05
3.43338e-05
3.43355e-05
3.4337e-05
3.43386e-05
3.43401e-05
3.43415e-05
3.43429e-05
3.43442e-05
3.43455e-05
3.43467e-05
3.43479e-05
3.4349e-05
3.43502e-05
3.43512e-05
3.43523e-05
3.43533e-05
3.43542e-05
3.43552e-05
3.43561e-05
3.43569e-05
3.43578e-05
3.43586e-05
3.43593e-05
3.43601e-05
3.43608e-05
3.43615e-05
3.43622e-05
3.43628e-05
3.43634e-05
3.4364e-05
3.43646e-05
3.43651e-05
3.43657e-05
3.43662e-05
3.43667e-05
3.43671e-05
3.43676e-05
3.4368e-05
3.43684e-05
3.43688e-05
3.43692e-05
3.43695e-05
3.43699e-05
3.43702e-05
3.43705e-05
3.43708e-05
3.4371e-05
3.43713e-05
3.43716e-05
3.43718e-05
3.4372e-05
3.43722e-05
3.43724e-05
3.43726e-05
3.43728e-05
3.43729e-05
3.43731e-05
3.43732e-05
3.43222e-05
3.43244e-05
3.43265e-05
3.43284e-05
3.43303e-05
3.43321e-05
3.43339e-05
3.43355e-05
3.43371e-05
3.43387e-05
3.43401e-05
3.43416e-05
3.43429e-05
3.43443e-05
3.43455e-05
3.43468e-05
3.4348e-05
3.43491e-05
3.43502e-05
3.43513e-05
3.43523e-05
3.43533e-05
3.43543e-05
3.43552e-05
3.43561e-05
3.4357e-05
3.43578e-05
3.43586e-05
3.43594e-05
3.43601e-05
3.43608e-05
3.43615e-05
3.43622e-05
3.43628e-05
3.43634e-05
3.4364e-05
3.43646e-05
3.43651e-05
3.43656e-05
3.43661e-05
3.43666e-05
3.43671e-05
3.43675e-05
3.4368e-05
3.43684e-05
3.43687e-05
3.43691e-05
3.43695e-05
3.43698e-05
3.43701e-05
3.43704e-05
3.43707e-05
3.4371e-05
3.43712e-05
3.43715e-05
3.43717e-05
3.4372e-05
3.43722e-05
3.43724e-05
3.43725e-05
3.43727e-05
3.43729e-05
3.4373e-05
3.43732e-05
3.43733e-05
3.43222e-05
3.43244e-05
3.43265e-05
3.43285e-05
3.43304e-05
3.43322e-05
3.43339e-05
3.43356e-05
3.43372e-05
3.43388e-05
3.43402e-05
3.43417e-05
3.4343e-05
3.43444e-05
3.43456e-05
3.43469e-05
3.4348e-05
3.43492e-05
3.43503e-05
3.43513e-05
3.43524e-05
3.43534e-05
3.43543e-05
3.43552e-05
3.43561e-05
3.4357e-05
3.43578e-05
3.43586e-05
3.43594e-05
3.43601e-05
3.43608e-05
3.43615e-05
3.43622e-05
3.43628e-05
3.43634e-05
3.4364e-05
3.43645e-05
3.43651e-05
3.43656e-05
3.43661e-05
3.43666e-05
3.43671e-05
3.43675e-05
3.43679e-05
3.43683e-05
3.43687e-05
3.43691e-05
3.43694e-05
3.43698e-05
3.43701e-05
3.43704e-05
3.43707e-05
3.43709e-05
3.43712e-05
3.43714e-05
3.43717e-05
3.43719e-05
3.43721e-05
3.43723e-05
3.43725e-05
3.43727e-05
3.43728e-05
3.4373e-05
3.43731e-05
3.43733e-05
3.43734e-05
3.43222e-05
3.43244e-05
3.43265e-05
3.43285e-05
3.43304e-05
3.43323e-05
3.4334e-05
3.43357e-05
3.43373e-05
3.43388e-05
3.43403e-05
3.43417e-05
3.43431e-05
3.43444e-05
3.43457e-05
3.43469e-05
3.43481e-05
3.43492e-05
3.43503e-05
3.43514e-05
3.43524e-05
3.43534e-05
3.43544e-05
3.43553e-05
3.43562e-05
3.4357e-05
3.43578e-05
3.43586e-05
3.43594e-05
3.43601e-05
3.43608e-05
3.43615e-05
3.43622e-05
3.43628e-05
3.43634e-05
3.4364e-05
3.43645e-05
3.43651e-05
3.43656e-05
3.43661e-05
3.43666e-05
3.4367e-05
3.43675e-05
3.43679e-05
3.43683e-05
3.43687e-05
3.4369e-05
3.43694e-05
3.43697e-05
3.437e-05
3.43703e-05
3.43706e-05
3.43709e-05
3.43711e-05
3.43714e-05
3.43716e-05
3.43718e-05
3.43721e-05
3.43723e-05
3.43724e-05
3.43726e-05
3.43728e-05
3.43729e-05
3.43731e-05
3.43732e-05
3.43733e-05
3.43734e-05
3.43222e-05
3.43244e-05
3.43266e-05
3.43286e-05
3.43305e-05
3.43323e-05
3.43341e-05
3.43358e-05
3.43374e-05
3.43389e-05
3.43404e-05
3.43418e-05
3.43432e-05
3.43445e-05
3.43458e-05
3.4347e-05
3.43482e-05
3.43493e-05
3.43504e-05
3.43515e-05
3.43525e-05
3.43535e-05
3.43544e-05
3.43553e-05
3.43562e-05
3.4357e-05
3.43579e-05
3.43586e-05
3.43594e-05
3.43601e-05
3.43608e-05
3.43615e-05
3.43622e-05
3.43628e-05
3.43634e-05
3.4364e-05
3.43645e-05
3.43651e-05
3.43656e-05
3.43661e-05
3.43665e-05
3.4367e-05
3.43674e-05
3.43678e-05
3.43682e-05
3.43686e-05
3.4369e-05
3.43693e-05
3.43697e-05
3.437e-05
3.43703e-05
3.43706e-05
3.43708e-05
3.43711e-05
3.43713e-05
3.43716e-05
3.43718e-05
3.4372e-05
3.43722e-05
3.43724e-05
3.43726e-05
3.43727e-05
3.43729e-05
3.4373e-05
3.43732e-05
3.43733e-05
3.43734e-05
3.43735e-05
3.43222e-05
3.43244e-05
3.43266e-05
3.43286e-05
3.43305e-05
3.43324e-05
3.43341e-05
3.43358e-05
3.43374e-05
3.4339e-05
3.43405e-05
3.43419e-05
3.43433e-05
3.43446e-05
3.43459e-05
3.43471e-05
3.43483e-05
3.43494e-05
3.43505e-05
3.43515e-05
3.43525e-05
3.43535e-05
3.43544e-05
3.43554e-05
3.43562e-05
3.43571e-05
3.43579e-05
3.43587e-05
3.43594e-05
3.43601e-05
3.43608e-05
3.43615e-05
3.43622e-05
3.43628e-05
3.43634e-05
3.4364e-05
3.43645e-05
3.4365e-05
3.43656e-05
3.4366e-05
3.43665e-05
3.4367e-05
3.43674e-05
3.43678e-05
3.43682e-05
3.43686e-05
3.43689e-05
3.43693e-05
3.43696e-05
3.43699e-05
3.43702e-05
3.43705e-05
3.43708e-05
3.4371e-05
3.43713e-05
3.43715e-05
3.43717e-05
3.4372e-05
3.43722e-05
3.43723e-05
3.43725e-05
3.43727e-05
3.43728e-05
3.4373e-05
3.43731e-05
3.43732e-05
3.43734e-05
3.43735e-05
3.43735e-05
3.43222e-05
3.43245e-05
3.43266e-05
3.43287e-05
3.43306e-05
3.43324e-05
3.43342e-05
3.43359e-05
3.43375e-05
3.43391e-05
3.43406e-05
3.4342e-05
3.43434e-05
3.43447e-05
3.43459e-05
3.43472e-05
3.43483e-05
3.43494e-05
3.43505e-05
3.43516e-05
3.43526e-05
3.43536e-05
3.43545e-05
3.43554e-05
3.43563e-05
3.43571e-05
3.43579e-05
3.43587e-05
3.43594e-05
3.43602e-05
3.43609e-05
3.43615e-05
3.43622e-05
3.43628e-05
3.43634e-05
3.4364e-05
3.43645e-05
3.4365e-05
3.43655e-05
3.4366e-05
3.43665e-05
3.43669e-05
3.43674e-05
3.43678e-05
3.43682e-05
3.43685e-05
3.43689e-05
3.43693e-05
3.43696e-05
3.43699e-05
3.43702e-05
3.43705e-05
3.43707e-05
3.4371e-05
3.43712e-05
3.43715e-05
3.43717e-05
3.43719e-05
3.43721e-05
3.43723e-05
3.43725e-05