/*--------------------------------*- C++ -*----------------------------------*\
  =========                 |
  \\      /  F ield         | OpenFOAM: The Open Source CFD Toolbox
   \\    /   O peration     | Website:  https://openfoam.org
    \\  /    A nd           | Version:  7
     \\/     M anipulation  |
\*---------------------------------------------------------------------------*/
FoamFile
{
    version     2.0;
    format      ascii;
    class       volScalarField;
    location    "1400";
    object      p;
}
// * * * * * * * * * * * * * * * * * * * * * * * * * * * * * * * * * * * * * //

dimensions      [0 2 -2 0 0 0 0];

internalField   nonuniform List<scalar> 
23052
(
41.4443
38.7149
26.1757
36.8991
27.3653
30.0736
35.5927
27.8396
29.2105
30.6315
34.6364
28.0044
28.7181
30.716
31.4311
32.2116
33.9008
28.0266
28.3921
30.6228
31.2784
32.2182
33.4467
34.3799
33.3131
27.9935
28.1486
30.4636
31.1632
32.1555
33.3355
34.3856
35.6179
32.8243
27.9445
27.9494
30.2813
31.0513
32.0562
33.2343
34.3353
35.5758
36.7724
32.4058
27.8952
27.7778
30.0946
30.9328
31.9399
33.1277
34.2604
35.4866
36.7486
38.0603
32.0336
27.8511
27.6256
29.9104
30.8065
31.8128
33.0116
34.1653
35.3916
36.6693
38.0219
39.3797
31.6933
27.8113
27.4887
29.7309
30.6738
31.6778
32.8853
34.0555
35.2853
36.5754
37.9278
39.3417
40.7793
31.378
27.7739
27.3632
29.5562
30.536
31.5366
32.7493
33.933
35.1676
36.466
37.8236
39.2429
40.7344
42.2366
31.0751
27.7366
27.247
29.3851
30.3942
31.3898
32.6045
33.7991
35.0384
36.3434
37.7059
39.132
40.6253
42.188
43.7642
30.7841
27.6959
27.1376
29.217
30.2488
31.238
32.452
33.6548
34.8984
36.2084
37.5759
39.0066
40.5052
42.0708
43.7099
45.3578
30.4993
27.6498
27.0323
29.0506
30.1001
31.0814
32.2921
33.501
34.7479
36.0618
37.4335
38.8685
40.3708
41.9419
43.5831
45.2986
47.0217
30.216
27.596
26.9295
28.8845
29.9477
30.9204
32.1253
33.3383
34.5873
35.9041
37.2794
38.7179
40.2238
41.7986
43.4448
45.1625
46.9571
48.7562
29.9348
27.5329
26.8269
28.7177
29.7912
30.7547
31.952
33.167
34.4173
35.7357
37.1138
38.5551
40.0642
41.6424
43.2919
45.0147
46.8112
48.6863
50.564
29.6546
27.4598
26.7229
28.5495
29.6301
30.5841
31.7723
32.9876
34.2378
35.5571
36.9372
38.3807
39.8922
41.4733
43.126
44.8521
46.6537
48.5307
50.4884
52.4465
29.3716
27.3753
26.616
28.3787
29.4642
30.4085
31.5861
32.8003
34.0495
35.3685
36.7499
38.195
39.7084
41.2918
42.9471
44.6764
46.4811
48.3632
50.3229
52.3653
54.4061
29.0846
27.2783
26.5049
28.2045
29.2928
30.2275
31.3937
32.6053
33.8528
35.1704
36.5521
37.9982
39.5128
41.098
42.7556
44.4874
46.2952
48.1805
50.1453
52.1898
54.3191
56.4448
28.7963
27.1688
26.3883
28.0261
29.1154
30.041
31.1947
32.4027
33.6474
34.9632
36.3444
37.7906
39.306
40.8924
42.5516
44.2855
46.0958
47.9843
49.9524
52.002
54.1334
56.3519
58.5649
28.5043
27.0469
26.2656
27.8428
28.9317
29.8485
30.9894
32.1925
33.4339
34.7468
36.1269
37.5727
39.0882
40.6753
42.3355
44.071
45.8834
47.7744
49.7456
51.7986
53.9354
56.156
58.466
60.7689
28.2068
26.912
26.1361
27.6543
28.7412
29.6497
30.7775
31.9751
33.2122
34.5216
35.8998
37.3445
38.8595
40.4467
42.1077
43.8442
45.6582
47.5512
49.525
51.5812
53.7213
55.9475
58.2598
60.6638
63.0592
27.9049
26.7637
25.9988
27.4601
28.5437
29.4445
30.559
31.75
32.9825
34.2878
35.6633
37.1064
38.6204
40.2072
41.8682
43.6054
45.4204
47.315
49.2908
51.3496
53.4931
55.7227
58.0407
60.4471
62.9478
65.4383
27.6001
26.6025
25.8532
27.2595
28.339
29.2326
30.3336
31.5176
32.7448
34.0454
35.4177
36.8585
38.3709
39.9568
41.6174
43.3546
45.1703
47.0659
49.0434
51.1043
53.2504
55.4835
57.8051
60.2174
62.7206
65.3205
67.9089
27.2895
26.4287
25.6993
27.0525
28.1268
29.0137
30.1015
31.2778
32.4994
33.7947
35.1632
36.6012
38.1115
39.6958
41.3555
43.0923
44.9081
46.8043
48.7829
50.8455
52.9938
55.2297
57.5548
59.9709
62.4801
65.0828
67.7847
70.474
26.9749
26.2421
25.5366
26.8388
27.9071
28.7877
29.8623
31.0306
32.2461
33.5357
34.8999
36.3345
37.8421
39.4244
41.0827
42.8187
44.634
46.5304
48.5096
50.5734
52.7234
54.9616
57.2896
59.7094
62.2225
64.8313
67.5362
70.3431
73.1363
26.6556
26.0432
25.3648
26.6181
27.6796
28.5544
29.616
30.776
31.985
33.2686
34.6279
36.0587
37.5631
39.1429
40.7993
42.5339
44.3484
46.2444
48.2238
50.2882
52.4395
54.6794
57.0098
59.4326
61.9496
64.5625
67.2738
70.0838
72.9984
75.8987
26.3317
25.8323
25.1839
26.3904
27.4443
28.3138
29.3627
30.5139
31.7163
32.9934
34.3474
35.7738
37.2746
38.8515
40.5055
42.2382
44.0513
45.9465
47.9256
49.9902
52.1422
54.3834
56.7157
59.141
61.6611
64.2781
66.9936
69.8102
72.7282
75.7539
78.7642
26.0039
25.6099
24.9937
26.1556
27.2013
28.0659
29.1024
30.2446
31.44
32.7103
34.0585
35.4802
36.9769
38.5503
40.2014
41.9318
43.743
45.637
47.6152
49.6795
51.8318
54.0738
56.4075
58.8347
61.3575
63.9778
66.6976
69.5186
72.4434
75.4725
78.6122
81.7359
25.671
25.3761
24.7943
25.9135
26.9505
27.8103
28.8349
29.9679
31.1561
32.4194
33.7614
35.1779
36.67
38.2395
39.8873
41.6149
43.4238
45.3159
47.2929
49.3565
51.5085
53.7508
56.0854
58.5141
61.039
63.6621
66.3852
69.2107
72.1402
75.1764
78.3197
81.5766
84.8172
25.3347
25.1311
24.5855
25.6643
26.6919
27.5475
28.5602
29.6839
30.8647
32.1207
33.4563
34.8672
36.3543
37.9193
39.5633
41.2876
43.0939
44.9837
46.9589
49.0212
51.1725
53.4147
55.7496
58.1793
60.7057
63.331
66.0572
68.8862
71.8203
74.8615
78.0121
81.2729
84.6502
88.0111
24.9942
24.8758
24.3676
25.4079
26.4257
27.2772
28.2785
29.3927
30.566
31.8144
33.1431
34.548
36.0297
37.5899
39.2297
40.9502
42.7532
44.6404
46.6134
48.6739
50.824
53.0655
55.4004
57.8305
60.358
62.985
65.7135
68.5456
71.4836
74.5295
77.6853
80.9538
84.3351
87.8363
91.3208
24.6495
24.6102
24.1406
25.1443
26.1519
26.9995
27.9898
29.0944
30.2599
31.5006
32.8221
34.2206
35.6965
37.2515
38.8866
40.6029
42.4023
44.2862
46.2565
48.3149
50.4633
52.7035
55.0378
57.4679
59.996
62.6242
65.3545
68.1891
71.1304
74.1803
77.3411
80.6149
84.0043
87.5098
91.138
94.7497
24.3009
24.3349
23.9047
24.8738
25.8706
26.7145
27.694
28.789
29.9465
31.1793
32.4935
33.8852
35.355
36.9043
38.5342
40.2459
42.0411
43.9214
45.8885
47.9441
50.0904
52.329
54.6621
57.0917
59.6198
62.2486
64.9802
67.8169
70.7608
73.8141
76.9792
80.2582
83.6533
87.167
90.8
94.5588
98.3014
23.9492
24.0502
23.6598
24.5963
25.5821
26.4223
27.3914
28.4767
29.6261
30.8508
32.1572
33.542
35.0051
36.5483
38.1726
39.8793
41.6699
43.546
45.5094
47.562
49.7055
51.9421
54.2735
56.702
59.2298
61.8587
64.591
67.4291
70.3752
73.4314
76.6
79.8835
83.2841
86.8037
90.4453
94.2092
98.1021
101.979
23.594
23.7566
23.4064
24.312
25.2864
26.123
27.0821
28.1575
29.2987
30.5151
31.8135
33.1909
34.6471
36.1839
37.8022
39.5034
41.2889
43.1604
45.1197
47.1686
49.309
51.5429
53.8722
56.2991
58.8258
61.4544
64.187
67.026
69.9736
73.0321
76.2039
79.4912
82.8965
86.4219
90.0697
93.8424
97.7407
101.771
105.786
23.2355
23.4544
23.1445
24.0209
24.9838
25.8168
26.766
27.8316
28.9645
30.1724
31.4626
32.8322
34.2812
35.8111
37.423
39.1182
40.8982
42.7646
44.7193
46.7641
48.9008
51.1315
53.4583
55.8832
58.4083
61.036
63.7684
66.6077
69.5563
72.6166
75.7909
79.0815
82.4908
86.0212
89.6749
93.4544
97.3618
101.398
105.57
109.726
22.8737
23.1441
22.8744
23.7234
24.6743
25.5038
26.4434
27.4991
28.6234
29.8228
31.1045
32.4661
33.9075
35.4302
37.0353
38.724
40.4981
42.359
44.3086
46.3487
48.4813
50.7084
53.032
55.4543
57.9774
60.6036
63.3352
66.1743
69.1234
72.1849
75.3611
78.6544
82.0672
85.602
89.261
93.0466
96.9612
101.007
105.185
109.501
113.803
22.5089
22.8261
22.5963
23.4194
24.3582
25.1841
26.1143
27.1602
28.2758
29.4664
30.7394
32.0927
33.5262
35.0412
36.6391
38.321
40.0886
41.9435
43.8876
45.9226
48.0505
50.2735
52.5935
55.0126
57.5333
60.1575
62.8876
65.7261
68.6751
71.7372
74.9148
78.2102
81.6259
85.1645
88.8281
92.6192
96.5403
100.594
104.781
109.104
113.568
118.02
22.1414
22.5007
22.3103
23.1093
24.0358
24.8579
25.779
26.8149
27.9218
29.1034
30.3675
31.7123
33.1374
34.6445
36.2347
37.9094
39.6701
41.5185
43.4565
45.4859
47.6087
49.827
52.1429
54.5584
57.076
59.6977
62.426
65.2631
68.2116
71.2737
74.452
77.749
81.167
84.7087
88.3764
92.1725
96.0994
100.16
104.355
108.688
113.16
117.776
122.38
21.7718
22.1684
22.0169
22.7931
23.7071
24.5254
25.4376
26.4635
27.5615
28.7341
29.989
31.3249
32.7413
34.24
35.8222
37.4892
39.2426
41.0841
43.0156
45.0389
47.1561
49.3692
51.6803
54.0918
56.6057
59.2244
61.9503
64.7856
67.7329
70.7946
73.9731
77.271
80.6908
84.2349
87.906
91.7065
95.6388
99.7051
103.908
108.249
112.732
117.355
122.126
126.888
21.399
21.8295
21.7162
22.4711
23.3725
24.1868
25.0903
26.1062
27.1951
28.3584
29.604
30.9306
32.3382
33.8282
35.4019
37.0608
38.8064
40.6405
42.565
44.5817
46.6927
48.9002
51.2061
53.6128
56.1226
58.7378
61.4605
64.2936
67.2391
70.2999
73.478
76.7762
80.1973
83.7433
87.4171
91.2213
95.1583
99.2303
103.44
107.789
112.28
116.915
121.694
126.624
131.545
21.0237
21.4845
21.4084
22.1434
23.0321
23.8424
24.7372
25.743
26.8227
27.9766
29.2126
30.5298
31.9281
33.409
34.9739
36.6243
38.3616
40.1879
42.1048
44.1145
46.2188
48.42
50.7203
53.1218
55.6269
58.2379
60.9572
63.7873
66.7306
69.7896
72.9668
76.265
79.6865
83.234
86.9101
90.7172
94.658
98.7351
102.95
107.307
111.806
116.45
121.241
126.18
131.272
136.357
20.6466
21.1336
21.0939
21.8103
22.6862
23.4922
24.3785
25.3743
26.4446
27.589
28.8151
30.1226
31.5112
32.9827
34.5384
36.1798
37.9085
39.7264
41.6354
43.6374
45.7346
47.9291
50.223
52.6188
55.1186
57.725
60.4402
63.2668
66.2072
69.2641
72.4398
75.7372
79.1587
82.707
86.3847
90.1944
94.1385
98.2198
102.441
106.803
111.31
115.963
120.764
125.715
130.816
136.073
141.326
20.2678
20.7772
20.7729
21.4719
22.335
23.1365
24.0144
25.0001
26.0609
27.1955
28.4116
29.7091
31.0879
32.5495
34.0956
35.7276
37.4472
39.2562
41.1568
43.1507
45.2402
47.4273
49.7145
52.104
54.598
57.1992
59.9097
62.7322
65.6693
68.7233
71.897
75.1931
78.614
82.1624
85.8411
89.6527
93.5997
97.6847
101.91
106.278
110.792
115.453
120.264
125.225
130.339
135.607
141.032
146.456
19.8867
20.4158
20.4458
21.1285
21.9788
22.7755
23.6452
24.6206
25.6718
26.7965
28.0024
29.2896
30.6581
32.1096
33.6456
35.2678
36.9779
38.7777
40.6692
42.6545
44.7358
46.9152
49.195
51.5775
54.0652
56.6605
59.366
62.1838
65.1168
68.1676
71.3387
74.6327
78.0525
81.6005
85.2796
89.0923
93.0415
97.1295
101.359
105.733
110.252
114.921
119.74
124.711
129.836
135.118
140.554
146.152
151.749
19.5036
20.0497
20.1127
20.7803
21.6177
22.4095
23.2709
24.2362
25.2774
26.3921
27.5875
28.8641
30.2221
31.6631
33.1888
34.8008
36.5008
38.2908
40.1729
42.149
44.2216
46.3926
48.6645
51.0397
53.5205
56.1093
58.8089
61.6215
64.55
67.5968
70.7646
74.0561
77.4741
81.0212
84.7001
88.5135
92.4641
96.5547
100.788
105.166
109.691
114.366
119.193
124.174
129.31
134.603
140.054
145.663
151.435
157.21
19.1194
19.679
19.7739
20.4275
21.2519
22.0386
22.8918
23.8468
24.8781
25.9826
27.1672
28.433
29.7802
31.2103
32.7251
34.3265
36.016
37.7958
39.6679
41.6345
43.6977
45.8598
48.1233
50.4904
52.9637
55.5456
58.2388
61.0456
63.9688
67.0111
70.175
73.4635
76.879
80.4245
84.1027
87.9162
91.8677
95.9601
100.196
104.578
109.108
113.789
118.623
123.612
128.758
134.063
139.527
145.152
150.936
156.886
162.841
18.7334
19.3044
19.4298
20.0702
20.8819
21.6632
22.5082
23.4528
24.474
25.568
26.7417
27.9964
29.3324
30.7513
32.255
33.8452
35.5239
37.293
39.1546
41.111
43.1644
45.317
47.5715
49.9301
52.3952
54.9696
57.6557
60.4562
63.3735
66.4107
69.5702
72.8549
76.2674
79.8107
83.4873
87.3003
91.2522
95.3458
99.5838
103.969
108.503
113.19
118.03
123.027
128.183
133.498
138.974
144.613
150.414
156.377
162.507
168.646
18.346
18.926
19.0805
19.7088
20.5076
21.2833
22.1201
23.0544
24.0652
25.1486
26.3112
27.5545
28.879
30.2863
31.7785
33.3572
35.0245
36.7824
38.6331
40.5788
42.6218
44.7645
47.0093
49.3587
51.8152
54.3813
57.0598
59.8533
62.7642
65.7956
68.9501
72.2302
75.6392
79.1796
82.8542
86.666
90.6175
94.7118
98.9514
103.339
107.877
112.568
117.415
122.419
127.583
132.908
138.395
144.047
149.863
155.844
161.989
168.302
174.627
17.9576
18.5441
18.7264
19.3435
20.1295
20.8993
21.7279
22.6517
23.652
24.7247
25.8759
27.1076
28.4202
29.8156
31.2958
32.8627
34.5181
36.2644
38.1035
40.0381
42.0701
44.2023
46.4368
48.7765
51.2237
53.7811
56.4513
59.237
62.141
65.1659
68.3147
71.59
74.9946
78.5315
82.2036
86.0133
89.9639
94.0581
98.2987
102.688
107.229
111.925
116.777
121.787
126.959
132.293
137.791
143.455
149.286
155.282
161.447
167.775
174.273
180.786
17.5678
18.1591
18.3678
18.9743
19.7477
20.5113
21.3317
22.245
23.2347
24.2963
25.4359
26.6557
27.9562
29.3394
30.8072
32.3617
34.0049
35.739
37.5662
39.489
41.5096
43.6306
45.8544
48.1837
50.621
53.169
55.8303
58.6078
61.504
64.5218
67.6642
70.9339
74.3336
77.8665
81.5351
85.3425
89.2916
93.3851
97.6259
102.017
106.56
111.259
116.115
121.132
126.31
131.653
137.162
142.837
148.681
154.693
160.874
167.223
173.739
180.423
187.127
17.1771
17.7712
18.0048
18.6017
19.3624
20.1196
20.9317
21.8345
22.8133
23.8637
24.9915
26.1991
27.4872
28.8577
30.3128
31.8546
33.4851
35.2065
37.0213
38.9317
40.9404
43.0496
45.2621
47.5804
50.0072
52.5451
55.197
57.9654
60.8534
63.8636
66.9988
70.2621
73.6563
77.1842
80.8491
84.6532
88.6002
92.6924
96.9327
101.324
105.869
110.571
115.431
120.453
125.638
130.989
136.507
142.193
148.049
154.076
160.273
166.641
173.178
179.882
186.755
193.652
16.7855
17.3808
17.6378
18.2257
18.9739
19.7244
20.5282
21.4203
22.3881
23.4271
24.5429
25.738
27.0134
28.3709
29.813
31.3415
32.9588
34.6672
36.469
38.3666
40.3626
42.4596
44.6601
46.9669
49.3825
51.9097
54.5514
57.3103
60.1892
63.1909
66.3185
69.5749
72.9628
76.4853
80.1454
83.9458
87.8897
91.98
96.2193
100.611
105.157
109.861
114.725
119.751
124.942
130.3
135.826
141.523
147.391
153.431
159.644
166.029
172.586
179.313
186.208
193.271
200.362
16.3934
16.988
17.2672
17.8465
18.5824
19.326
20.1214
21.0027
21.9593
22.9868
24.0903
25.2726
26.5349
27.8792
29.3077
30.8227
32.4264
34.1211
35.9094
37.7937
39.7766
41.8608
44.0487
46.3432
48.7471
51.263
53.8939
56.6424
59.5116
62.5043
65.6236
68.8721
72.2532
75.7694
79.4242
83.2201
87.1605
91.2481
95.4859
99.8766
104.423
109.128
113.995
119.025
124.221
129.586
135.12
140.826
146.706
152.759
158.986
165.388
171.964
178.713
185.633
192.72
199.975
207.262
16.0005
16.5932
16.893
17.4645
18.188
18.9245
19.7114
20.5819
21.5272
22.5428
23.6338
24.8032
26.0521
27.3827
28.7974
30.2983
31.8879
33.5686
35.3429
37.2134
39.1825
41.2532
43.4279
45.7097
48.1011
50.605
53.2244
55.962
58.8207
61.8037
64.914
68.1541
71.5274
75.0369
78.6857
82.4764
86.4125
90.4966
94.7321
99.1215
103.668
108.374
113.242
118.276
123.476
128.847
134.388
140.104
145.993
152.059
158.301
164.719
171.313
178.082
185.025
192.139
199.419
206.868
214.351
15.607
16.1966
16.5156
17.0798
17.7912
18.5202
19.2985
20.1581
21.0918
22.0955
23.1738
24.3298
25.5651
26.8817
28.2821
29.7686
31.3437
33.0098
34.7696
36.6256
38.5805
40.6371
42.7982
45.0664
47.4448
49.936
52.5432
55.2692
58.1169
61.0893
64.1897
67.4209
70.7856
74.2877
77.9296
81.7144
85.6456
89.7256
93.958
98.3455
102.891
107.597
112.467
117.503
122.707
128.083
133.631
139.355
145.254
151.331
157.586
164.02
170.631
177.421
184.386
191.525
198.835
206.31
213.952
221.633
15.2131
15.7985
16.1352
16.6925
17.3919
18.1133
18.8829
19.7315
20.6536
21.645
22.7103
23.8528
25.0741
26.3763
27.7621
29.2338
30.7939
32.445
34.1897
36.0308
37.9709
40.0128
42.1595
44.4136
46.7782
49.2561
51.8505
54.5641
57.4001
60.3614
63.4511
66.6724
70.0283
73.5218
77.1562
80.9345
84.8598
88.9352
93.1636
97.5483
102.092
106.798
111.668
116.706
121.914
127.294
132.848
138.579
144.488
150.576
156.843
163.292
169.92
176.729
183.716
190.879
198.216
205.723
213.394
221.229
229.106
14.819
15.3991
15.7522
16.3029
16.9906
17.704
18.4648
19.3023
20.2125
21.1915
22.2436
23.3723
24.5793
25.8669
27.2376
28.694
30.2387
31.8743
33.6035
35.4291
37.3537
39.3805
41.5121
43.7515
46.1017
48.5656
51.1463
53.847
56.6705
59.6198
62.6982
65.9089
69.2549
72.7394
76.3655
80.1364
84.0552
88.1251
92.3491
96.7301
101.271
105.976
110.846
115.885
121.095
126.479
132.039
137.777
143.693
149.792
156.072
162.534
169.179
176.006
183.015
190.201
197.565
205.101
212.806
220.672
228.7
236.774
14.4246
14.9986
15.3666
15.9114
16.5872
17.2925
18.0444
18.8707
19.7688
20.7352
21.7739
22.8885
24.081
25.3535
26.7088
28.1496
29.6784
31.298
33.0111
34.8207
36.7294
38.7403
40.8563
43.0804
45.4154
47.8647
50.4311
53.1179
55.9281
58.8647
61.9312
65.1306
68.4659
71.9405
75.5577
79.3204
83.2319
87.2956
91.5141
95.8911
100.429
105.132
110.001
115.041
120.252
125.639
131.204
136.948
142.873
148.98
155.271
161.747
168.408
175.252
182.281
189.49
196.879
204.445
212.181
220.085
228.147
236.366
244.637
14.0302
14.5973
14.9788
15.518
16.1821
16.8791
17.6219
18.4369
19.3228
20.2764
21.3015
22.4017
23.5792
24.8364
26.176
27.6007
29.1132
30.7163
32.4129
34.2059
36.0981
38.0925
40.1922
42.4002
44.7196
47.1534
49.705
52.3771
55.1733
58.0966
61.1503
64.3374
67.6614
71.1253
74.7327
78.4864
82.3899
86.4464
90.659
95.0308
99.5652
104.265
109.133
114.172
119.385
124.774
130.343
136.092
142.024
148.14
154.442
160.93
167.606
174.467
181.515
188.747
196.161
203.754
211.522
219.46
227.563
235.821
244.23
252.696
13.6357
14.1954
14.5891
15.1227
15.7756
16.4639
17.1974
18.0011
18.8747
19.8152
20.8264
21.912
23.0744
24.3158
25.6393
27.0475
28.5433
30.1295
31.809
33.5848
35.4599
37.4374
39.5201
41.7114
44.0144
46.4321
48.968
51.6249
54.4063
57.3153
60.3555
63.5297
66.8414
70.2939
73.8906
77.6345
81.5291
85.578
89.7834
94.1496
98.6792
103.375
108.241
113.279
118.492
123.883
129.455
135.209
141.147
147.271
153.583
160.083
166.772
173.651
180.717
187.97
195.408
203.029
210.828
218.8
226.94
235.241
243.693
252.292
260.95
13.2414
13.7931
14.1977
14.7261
15.3677
16.0472
16.7713
17.5636
18.4245
19.3518
20.3489
21.4197
22.5665
23.792
25.0989
26.4903
27.9689
29.5376
31.1996
32.9577
34.8152
36.775
38.8402
41.0142
43.3001
45.701
48.2203
50.8613
53.6272
56.5211
59.5468
62.7073
66.0061
69.4462
73.0316
76.765
80.6498
84.6898
88.8878
93.2473
97.7714
102.463
107.326
112.362
117.575
122.967
128.54
134.298
140.242
146.374
152.695
159.207
165.909
172.802
179.887
187.161
194.623
202.269
210.098
218.104
226.281
234.622
243.121
251.766
260.553
269.4
12.8472
13.3906
13.8048
14.3281
14.9586
15.6291
16.3438
17.1244
17.9726
18.8865
19.8693
20.9249
22.056
23.2651
24.5552
25.9292
27.3902
28.9411
30.585
32.3249
34.1641
36.1057
38.1527
40.3087
42.5768
44.9602
47.4624
50.0865
52.8362
55.7144
58.7248
61.8706
65.1556
68.5827
72.1556
75.8775
79.7521
83.7824
87.9718
92.3236
96.8417
101.528
106.387
111.42
116.632
122.024
127.599
133.36
139.309
145.448
151.777
158.299
165.015
171.923
179.024
186.318
193.803
201.475
209.331
217.37
225.583
233.965
242.508
251.204
260.04
269.013
278.046
12.4533
12.988
13.4106
13.929
14.5486
15.2098
15.9149
16.6838
17.5192
18.4193
19.3876
20.4279
21.5429
22.7353
24.0081
25.3645
26.8075
28.3401
29.9653
31.6866
33.5069
35.4296
37.458
39.5953
41.8449
44.2101
46.6943
49.3009
52.0333
54.895
57.8895
61.02
64.29
67.7032
71.263
74.9726
78.8356
82.8555
87.0356
91.379
95.8896
100.57
105.424
110.454
115.663
121.055
126.631
132.395
138.348
144.492
150.829
157.361
164.088
171.011
178.128
185.441
192.948
200.645
208.531
216.6
224.849
233.27
241.857
250.601
259.492
268.517
277.669
286.885
12.0598
12.5857
13.0153
13.5291
14.1379
14.7896
15.4849
16.242
17.0643
17.9507
18.9042
19.9288
21.0274
22.2028
23.4582
24.7965
26.2209
27.7347
29.3409
31.0429
32.8439
34.7471
36.7561
38.874
41.1045
43.4507
45.9162
48.5046
51.2191
54.0634
57.0409
60.1552
63.4096
66.8081
70.3537
74.0501
77.9006
81.9091
86.079
90.4133
94.9156
99.5895
104.438
109.463
114.67
120.06
125.636
131.401
137.357
143.507
149.851
156.392
163.13
170.066
177.2
184.531
192.058
199.78
207.693
215.792
224.076
232.536
241.166
249.956
258.901
267.984
277.195
286.523
295.915
11.6668
12.1836
12.6193
13.1283
13.7265
14.3687
15.0539
15.7992
16.6083
17.4806
18.4191
19.4279
20.5099
21.668
22.9054
24.2252
25.6308
27.1253
28.7119
30.3941
32.1752
34.0584
36.0473
38.1453
40.3558
42.6823
45.1285
47.6977
50.3936
53.2196
56.1794
59.2765
62.5146
65.8971
69.4277
73.11
76.9477
80.9438
85.1024
89.4263
93.9199
98.5854
103.427
108.448
113.65
119.038
124.613
130.379
136.338
142.492
148.842
155.391
162.14
169.088
176.237
183.586
191.134
198.878
206.818
214.948
223.264
231.763
240.434
249.272
258.267
267.408
276.681
286.074
295.575
305.137
11.2744
11.7821
12.2226
12.727
13.3147
13.9472
14.6223
15.3555
16.1513
17.0093
17.9327
18.9253
19.9904
21.1309
22.35
23.651
25.0373
26.5121
28.0787
29.7405
31.5011
33.3637
35.3319
37.4092
39.5992
41.9053
44.3312
46.8805
49.5569
52.3639
55.3052
58.3842
61.6049
64.9707
68.4856
72.1527
75.9762
79.9592
84.1055
88.4185
92.902
97.559
102.393
107.407
112.605
117.99
123.563
129.329
135.289
141.447
147.803
154.359
161.117
168.077
175.24
182.606
190.174
197.941
205.906
214.065
222.416
230.95
239.663
248.547
257.592
266.789
276.124
285.585
295.154
304.821
314.548
10.8827
11.3813
11.8255
12.3254
12.9027
13.5252
14.1901
14.9111
15.6934
16.537
17.445
18.4213
19.4692
20.5917
21.7922
23.0741
24.4406
25.8952
27.4413
29.0824
30.8218
32.6632
34.6101
36.6661
38.8348
41.1198
43.5248
46.0534
48.7094
51.4965
54.4184
57.4785
60.6809
64.0293
67.5272
71.1784
74.9867
78.9553
83.0886
87.3896
91.862
96.5091
101.335
106.342
111.534
116.914
122.486
128.25
134.211
140.371
146.732
153.295
160.061
167.032
174.209
181.591
189.177
196.967
204.957
213.145
221.527
230.098
238.851
247.78
256.875
266.126
275.522
285.049
294.693
304.434
314.261
324.143
10.4918
10.9813
11.4283
11.9235
12.4905
13.1031
13.7575
14.4663
15.2349
16.0639
16.9563
17.916
18.9464
20.0507
21.2323
22.4946
23.8411
25.275
26.8001
28.4198
30.1376
31.9572
33.8822
35.9162
38.063
40.3261
42.7093
45.2165
47.8514
50.6176
53.5192
56.5596
59.7428
63.0725
66.5526
70.1868
73.9789
77.9327
82.0516
86.3396
90.8
95.4367
100.253
105.252
110.438
115.812
121.38
127.143
133.104
139.265
145.629
152.198
158.972
165.954
173.143
180.54
188.145
195.955
203.97
212.185
220.598
229.205
237.997
246.97
256.114
265.42
274.876
284.468
294.183
304.004
313.912
323.892
333.92
10.1016
10.5824
11.0311
11.5216
12.0786
12.6809
13.3247
14.0211
14.776
15.5902
16.4667
17.4096
18.4223
19.5081
20.6705
21.9128
23.2388
24.6517
26.1553
27.7531
29.4488
31.246
33.1484
35.1598
37.2838
39.5243
41.8852
44.3701
46.9829
49.7275
52.6079
55.6277
58.7906
62.101
65.5622
69.1783
72.9534
76.8909
80.9948
85.2685
89.716
94.341
99.1467
104.137
109.315
114.684
120.246
126.006
131.966
138.128
144.495
151.069
157.85
164.841
172.042
179.454
187.075
194.905
202.943
211.187
219.63
228.27
237.102
246.118
255.31
264.668
274.183
283.841
293.627
303.525
313.519
323.586
333.712
343.875
9.71241
10.1846
10.6342
11.1198
11.6669
12.2589
12.8919
13.5758
14.3168
15.116
15.9765
16.9024
17.8971
18.9641
20.1069
21.329
22.634
24.0255
25.5071
27.0826
28.7555
30.5298
32.409
34.3971
36.4978
38.7149
41.0525
43.5144
46.1044
48.8265
51.6846
54.6829
57.8248
61.1147
64.5562
68.1534
71.9102
75.8306
79.9182
84.1768
88.6103
93.2224
98.0164
102.996
108.165
113.527
119.085
124.841
130.798
136.96
143.329
149.906
156.694
163.693
170.905
178.33
185.968
193.818
201.878
210.147
218.621
227.294
236.165
245.223
254.462
263.873
273.445
283.166
293.023
302.998
313.075
323.234
333.453
343.715
354.002
9.32428
9.78812
10.2376
10.7183
11.2555
11.8372
12.4591
13.1306
13.8574
14.6415
15.4858
16.3944
17.371
18.4189
19.5417
20.7432
22.0269
23.3965
24.8558
26.4084
28.0581
29.8088
31.6643
33.6284
35.705
37.8981
40.2117
42.6497
45.2161
47.9148
50.7499
53.7255
56.8455
60.114
63.5345
67.1119
70.8494
74.7517
78.8217
83.0643
87.4825
92.0807
96.8621
101.831
106.99
112.344
117.894
123.646
129.6
135.761
142.13
148.71
155.503
162.51
169.732
177.17
184.823
192.692
200.774
209.067
217.57
226.277
235.183
244.283
253.568
263.031
272.661
282.445
292.37
302.421
312.581
322.83
333.148
343.51
353.899
364.297
8.93727
9.39304
9.84157
10.3173
10.8448
11.4158
12.0268
12.6855
13.3981
14.1669
14.9948
15.886
16.844
17.8726
18.9753
20.1558
21.4178
22.7651
24.2015
25.7308
27.3568
29.0833
30.9144
32.8539
34.9058
37.0742
39.3629
41.7763
44.3181
46.9926
49.8038
52.7558
55.8528
59.0987
62.4977
66.054
69.7713
73.654
77.7058
81.9308
86.3331
90.916
95.6842
100.64
105.789
111.133
116.676
122.421
128.371
134.53
140.899
147.481
154.277
161.291
168.522
175.972
183.639
191.525
199.629
207.947
216.477
225.216
234.158
243.3
252.629
262.143
271.829
281.675
291.668
301.794
312.036
322.374
332.788
343.257
353.754
364.258
374.752
8.55148
8.99952
9.44635
9.9169
10.4347
10.9952
11.5948
12.2408
12.9391
13.6924
14.5037
15.3772
16.3166
17.3255
18.4077
19.5669
20.8069
22.1315
23.5446
25.05
26.6517
28.3536
30.1597
32.0739
34.1004
36.2432
38.5065
40.8944
43.4108
46.0603
48.8465
51.7741
54.8471
58.0696
61.4458
64.9798
68.6758
72.5381
76.5703
80.7768
85.1617
89.7287
94.4819
99.4247
104.561
109.894
115.429
121.167
127.112
133.267
139.634
146.217
153.017
160.036
167.275
174.735
182.417
190.319
198.443
206.785
215.342
224.111
233.089
242.27
251.646
261.208
270.95
280.856
290.917
301.117
311.439
321.865
332.376
342.948
353.558
364.178
374.787
385.361
8.16701
8.60768
9.05212
9.51724
10.0255
10.5753
11.1635
11.7966
12.4804
13.2181
14.0127
14.8682
15.7887
16.7777
17.8391
18.9767
20.1943
21.4959
22.8853
24.3664
25.9432
27.6199
29.4004
31.2887
33.2891
35.4058
37.6427
40.0043
42.4946
45.1179
47.8786
50.7807
53.8286
57.0268
60.3791
63.8899
67.5634
71.4039
75.4155
79.6024
83.969
88.5186
93.2556
98.1838
103.307
108.629
114.153
119.883
125.821
131.972
138.337
144.919
151.721
158.744
165.991
173.461
181.154
189.074
197.215
205.579
214.163
222.962
231.975
241.194
250.614
260.226
270.021
279.988
290.115
300.388
310.79
321.303
331.909
342.584
353.305
364.046
374.779
385.48
396.115
7.78389
8.21761
8.65899
9.11855
9.61741
10.1563
10.733
11.353
12.0223
12.7442
13.5218
14.3593
15.2606
16.2295
17.2699
18.3855
19.5804
20.8584
22.2237
23.68
25.2316
26.8825
28.6368
30.4986
32.4722
34.562
36.7719
39.1063
41.5695
44.166
46.9001
49.776
52.7977
55.9702
59.2977
62.7842
66.4343
70.2521
74.242
78.408
82.7545
87.2858
92.0054
96.9177
102.026
107.335
112.848
118.568
124.499
130.644
137.005
143.587
150.389
157.416
164.668
172.147
179.853
187.785
195.946
204.331
212.94
221.769
230.815
240.071
249.534
259.194
269.043
279.069
289.262
299.606
310.088
320.688
331.387
342.164
352.996
363.856
374.717
385.549
396.328
407.007
7.40234
7.82948
8.26712
8.7209
9.21039
9.73844
10.3034
10.9103
11.5649
12.2708
13.0313
13.8506
14.7325
15.6811
16.7001
17.7935
18.9653
20.2195
21.5601
22.9913
24.517
26.1416
27.8691
29.7039
31.65
33.7121
35.8941
38.2008
40.6361
43.2048
45.9112
48.7597
51.7548
54.9006
58.2021
61.663
65.2885
69.0825
73.0493
77.1934
81.5188
86.0304
90.7315
95.6265
100.719
106.014
111.515
117.224
123.146
129.284
135.64
142.219
149.022
156.05
163.307
170.793
178.509
186.456
194.633
203.039
211.672
220.53
229.607
238.902
248.406
258.113
268.014
278.099
288.356
298.772
309.331
320.017
330.809
341.687
352.628
363.607
374.595
385.565
396.483
407.325
418.026
7.02238
7.44333
7.87675
8.32447
8.80459
9.32176
9.87493
10.4685
11.1083
11.7981
12.5414
13.3422
14.2046
15.1325
16.1299
17.2008
18.3492
19.5791
20.8948
22.3003
23.7998
25.3975
27.0977
28.9047
30.8228
32.8565
35.01
37.2879
39.6946
42.2346
44.9125
47.7327
50.6997
53.8179
57.0923
60.5269
64.1264
67.8952
71.8379
75.9588
80.2621
84.7525
89.4338
94.3105
99.3866
104.666
110.152
115.85
121.761
127.891
134.241
140.816
147.617
154.646
161.907
169.4
177.125
185.084
193.277
201.703
210.359
219.243
228.353
237.683
247.229
256.982
266.934
277.076
287.397
297.883
308.519
319.289
330.174
341.153
352.202
363.298
374.413
385.518
396.582
407.572
418.46
429.161
6.64412
7.05932
7.48793
7.92941
8.40023
8.90641
9.44765
10.0278
10.6527
11.3263
12.0522
12.8344
13.677
14.5841
15.5596
16.6077
17.7323
18.9377
20.228
21.6074
23.0801
24.6505
26.3228
28.1014
29.9908
31.9954
34.1197
36.3681
38.7452
41.2557
43.9042
46.6951
49.6331
52.7228
55.9688
59.3758
62.9484
66.6908
70.6081
74.7043
78.9844
83.4523
88.1126
92.9696
98.0271
103.289
108.761
114.445
120.345
126.465
132.808
139.377
146.175
153.205
160.467
167.965
175.699
183.669
191.877
200.321
208.999
217.91
227.05
236.416
246.001
255.798
265.802
276
286.384
296.939
307.652
318.505
329.481
340.559
351.717
362.929
374.169
385.409
396.617
407.761
418.807
429.725
440.402
6.26766
6.67756
7.10089
7.53585
7.99739
8.49254
9.02165
9.58839
10.1982
10.8555
11.5638
12.3272
13.1499
14.0359
14.9893
16.0143
17.1149
18.2954
19.5599
20.9128
22.3583
23.9007
25.5447
27.2943
29.1543
31.1292
33.2233
35.4416
37.7884
40.2684
42.8864
45.6471
48.5552
51.6152
54.832
58.21
61.7543
65.4696
69.3602
73.4305
77.6857
82.1301
86.768
91.6036
96.6419
101.886
107.341
113.01
118.897
125.006
131.341
137.903
144.697
151.725
158.988
166.49
174.231
182.211
190.433
198.893
207.592
216.528
225.697
235.097
244.721
254.563
264.616
274.87
285.315
295.939
306.727
317.663
328.729
339.906
351.17
362.498
373.863
385.237
396.588
407.886
419.094
430.179
441.109
451.735
5.89313
6.29809
6.71571
7.14389
7.59619
8.08024
8.59719
9.15031
9.74507
10.3859
11.0765
11.8209
12.6234
13.4882
14.4193
15.4208
16.4971
17.6523
18.8907
20.2166
21.6345
23.1486
24.7636
26.4837
28.3137
30.2581
32.3215
34.5088
36.8243
39.2731
41.8597
44.5893
47.4662
50.4955
53.682
57.0301
60.545
64.2315
68.0941
72.1376
76.3665
80.786
85.4
90.2132
95.2298
100.455
105.892
111.544
117.417
123.514
129.838
136.393
143.181
150.206
157.469
164.973
172.72
180.709
188.943
197.419
206.138
215.097
224.296
233.727
243.389
253.274
263.375
273.684
284.19
294.881
305.743
316.761
327.917
339.191
350.561
362.004
373.493
385
396.495
407.944
419.315
430.572
441.677
452.599
463.147
5.52068
5.92099
6.33254
6.7537
7.19672
7.66977
8.17436
8.71379
9.29331
9.91752
10.5903
11.3156
12.0978
12.9411
13.8496
14.8276
15.8792
17.0088
18.2207
19.5193
20.909
22.3943
23.9797
25.6698
27.4691
29.3824
31.4144
33.5698
35.8534
38.27
40.8245
43.5219
46.3666
49.3641
52.5191
55.8362
59.3204
62.9771
66.8103
70.8254
75.0271
79.4203
84.0087
88.7984
93.7922
98.9963
104.414
110.049
115.906
121.989
128.301
134.847
141.628
148.648
155.91
163.415
171.165
179.162
187.407
195.898
204.635
213.617
222.842
232.306
242.004
251.931
262.08
272.442
283.007
293.764