/*--------------------------------*- C++ -*----------------------------------*\
  =========                 |
  \\      /  F ield         | OpenFOAM: The Open Source CFD Toolbox
   \\    /   O peration     | Website:  https://openfoam.org
    \\  /    A nd           | Version:  7
     \\/     M anipulation  |
\*---------------------------------------------------------------------------*/
FoamFile
{
    version     2.0;
    format      ascii;
    class       surfaceScalarField;
    location    "1400";
    object      phi;
}
// * * * * * * * * * * * * * * * * * * * * * * * * * * * * * * * * * * * * * //

dimensions      [0 3 -1 0 0 0 0];

internalField   nonuniform List<scalar> 
45794
(
-0.295101
0.0426633
-0.293472
0.0451832
-0.283559
0.0409473
-0.291729
0.0477241
-0.28183
0.0434546
-0.27198
0.0394956
-0.28985
0.0501704
-0.280042
0.0459359
-0.270395
0.0418689
-0.261005
0.0379531
-0.287803
0.0525635
-0.278123
0.0482517
-0.268649
0.0441907
-0.259438
0.0403018
-0.250456
0.0364989
-0.241648
0.0329159
-0.285698
0.0549471
-0.276166
0.0506058
-0.266854
0.0464562
-0.257785
0.0425378
-0.248954
0.0387994
-0.240288
0.035139
-0.231841
0.031663
-0.223588
0.00208154
-0.283393
0.0571218
-0.274065
0.0528469
-0.26496
0.048712
-0.256042
0.0447127
-0.247308
0.0408923
-0.23879
0.0373007
-0.230542
0.0338403
-0.222433
0.0305075
-0.214508
0.00208097
-0.281092
0.0593853
-0.271923
0.0549798
-0.262924
0.0508104
-0.254158
0.0468281
-0.245621
0.0430249
-0.237299
0.0394017
-0.2291
0.035859
-0.221136
0.0325437
-0.213359
0.0293586
-0.20578
0.00210014
-0.278598
0.0614393
-0.269638
0.0570998
-0.260843
0.0528995
-0.252232
0.0488844
-0.243841
0.0450486
-0.235618
0.0413437
-0.227566
0.0378677
-0.219797
0.0345198
-0.212116
0.0313009
-0.204646
0.0282244
-0.19736
0.00210937
-0.276062
0.0635302
-0.26731
0.0591114
-0.258623
0.0548797
-0.250212
0.0508803
-0.24197
0.0470131
-0.233945
0.0433754
-0.22604
0.0398171
-0.218366
0.0364366
-0.21078
0.033184
-0.203453
0.0301082
-0.196291
0.0271548
-0.189296
0.0021187
-0.273488
0.0655119
-0.264842
0.0610627
-0.25641
0.0568981
-0.248152
0.0528196
-0.240059
0.0489692
-0.232131
0.0451993
-0.224372
0.0417078
-0.216794
0.0382447
-0.209401
0.0350578
-0.202197
0.0319282
-0.195142
0.0289598
-0.188258
0.026117
-0.18155
0.00212786
-0.270726
0.0673856
-0.262287
0.0629563
-0.254059
0.0587118
-0.245903
0.0546486
-0.238007
0.0507682
-0.230227
0.0470652
-0.222664
0.0434913
-0.21518
0.0400941
-0.20798
0.0368233
-0.200844
0.0337043
-0.193925
0.030711
-0.187156
0.0278579
-0.180558
0.0251245
-0.17412
0.00213687
-0.267977
0.069248
-0.259692
0.0647909
-0.251617
0.0605139
-0.243663
0.0564716
-0.235916
0.0525574
-0.228281
0.0488223
-0.220814
0.045215
-0.213523
0.0418345
-0.206417
0.0385314
-0.199433
0.0354125
-0.192635
0.0324142
-0.185991
0.0295455
-0.179501
0.0268011
-0.173166
0.0241702
-0.166981
0.00214107
-0.265093
0.0710041
-0.25701
0.0665664
-0.249137
0.0623109
-0.241384
0.0582349
-0.233734
0.0542898
-0.226296
0.0505721
-0.218974
0.0469825
-0.211826
0.0435181
-0.204813
0.0402299
-0.197979
0.0370776
-0.191287
0.0340645
-0.184752
0.0311755
-0.17837
0.0284149
-0.172142
0.0257774
-0.166063
0.0232525
-0.160137
0.00215018
-0.262171
0.0727491
-0.25429
0.0682842
-0.246569
0.0639983
-0.238965
0.0598928
-0.231465
0.0559652
-0.224172
0.052166
-0.216993
0.0485915
-0.209989
0.045145
-0.203168
0.0418733
-0.196435
0.038686
-0.189867
0.0356574
-0.183446
0.0327579
-0.177181
0.0299861
-0.171059
0.0273321
-0.165081
0.024795
-0.159254
0.0223695
-0.153566
0.00215436
-0.259167
0.074341
-0.251437
0.069896
-0.243865
0.0655799
-0.236459
0.0614922
-0.229156
0.0575837
-0.222007
0.0538009
-0.215022
0.0501946
-0.208161
0.0467633
-0.201431
0.043408
-0.194803
0.0402411
-0.18838
0.0371989
-0.182081
0.034293
-0.175929
0.0315055
-0.169913
0.0288397
-0.164039
0.0262904
-0.158312
0.0238522
-0.152716
0.0215195
-0.147261
0.00216345
-0.256077
0.0759222
-0.248547
0.0714503
-0.241172
0.0672035
-0.233916
0.0630371
-0.226759
0.0590956
-0.219804
0.0553802
-0.212963
0.0517423
-0.206195
0.0482285
-0.199604
0.0449367
-0.193136
0.0417407
-0.186836
0.0386973
-0.180654
0.035772
-0.174614
0.0329778
-0.168708
0.0303005
-0.162938
0.0277391
-0.157309
0.0252882
-0.151806
0.0229424
-0.146442
0.020701
-0.141202
0.00216762
-0.252904
0.0774496
-0.245573
0.0729483
-0.238395
0.068673
-0.231288
0.0645745
-0.224323
0.0606014
-0.217513
0.0568048
-0.210765
0.0531822
-0.204186
0.0497334
-0.197736
0.0463606
-0.191399
0.0431998
-0.18523
0.0401345
-0.179165
0.0372084
-0.17324
0.0343989
-0.167445
0.0317147
-0.161779
0.0291413
-0.156248
0.0266778
-0.150841
0.0243237
-0.145568
0.0220687
-0.140419
0.0199173
-0.135401
0.00217656
-0.249699
0.0789208
-0.242563
0.0744398
-0.235532
0.0700853
-0.22862
0.0660051
-0.2218
0.0620515
-0.215183
0.0582716
-0.208577
0.0546162
-0.202139
0.0511359
-0.19578
0.0477772
-0.189629
0.0445909
-0.183557
0.0415276
-0.177622
0.0385909
-0.171806
0.0357737
-0.166124
0.0330781
-0.160562
0.0304973
-0.155133
0.028026
-0.149827
0.0256637
-0.14464
0.0233952
-0.13958
0.0212298
-0.134646
0.019162
-0.129827
0.00218072
-0.246459
0.0802863
-0.239421
0.0757786
-0.232634
0.0715421
-0.225917
0.0673824
-0.219241
0.0634458
-0.212717
0.059585
-0.206302
0.0559973
-0.200005
0.0524816
-0.193833
0.0491892
-0.1878
0.0459478
-0.181837
0.0428702
-0.176019
0.0399252
-0.170318
0.0371032
-0.164751
0.0344005
-0.159296
0.0318125
-0.153964
0.0293284
-0.148755
0.0269531
-0.143662
0.0246857
-0.138691
0.0225062
-0.13384
0.020424
-0.129098
0.0184336
-0.124479
0.00218978
-0.243089
0.0815984
-0.236294
0.0771595
-0.229651
0.0727955
-0.223079
0.068704
-0.216596
0.0647375
-0.210213
0.0609419
-0.203988
0.0572706
-0.19783
0.0538226
-0.191797
0.0504454
-0.185856
0.0472456
-0.180059
0.0441697
-0.174361
0.0412119
-0.168781
0.0383879
-0.163321
0.035673
-0.157973
0.0330775
-0.152742
0.0305904
-0.147633
0.0282067
-0.14263
0.025921
-0.137747
0.0237422
-0.132979
0.0216455
-0.128319
0.0196451
-0.123776
0.0177308
-0.119343
0.00218903
-0.239636
0.0828545
-0.233083
0.0783877
-0.226585
0.0740935
-0.220254
0.0699711
-0.213914
0.0660217
-0.207721
0.0622459
-0.201637
0.0585915
-0.195618
0.0550587
-0.189686
0.0517119
-0.183907
0.0484966
-0.178226
0.0454129
-0.172648
0.0424567
-0.16719
0.0396209
-0.161838
0.0369053
-0.156596
0.0342963
-0.151467
0.0318024
-0.146453
0.0294103
-0.141549
0.0271256
-0.136754
0.0249279
-0.132068
0.0228315
-0.1275
0.0208261
-0.123033
0.0189015
-0.118675
0.0170621
-0.114424
0.00219794
-0.2362
0.084107
-0.22984
0.0796109
-0.223533
0.0753357
-0.217346
0.071185
-0.211146
0.0672034
-0.205095
0.063395
-0.199148
0.0597564
-0.193317
0.0562901
-0.187553
0.0529256
-0.1819
0.0497048
-0.176342
0.0466129
-0.170887
0.0436525
-0.165544
0.0408111
-0.160305
0.0380873
-0.155174
0.0354826
-0.15015
0.0329797
-0.145234
0.0305839
-0.140424
0.0282854
-0.135717
0.0260884
-0.131123
0.0239824
-0.126631
0.0219621
-0.122239
0.0200321
-0.117955
0.018182
-0.113779
0.0164163
-0.109697
0.00220208
-0.232732
0.0852567
-0.226515
0.0807824
-0.2204
0.0764778
-0.214353
0.0723433
-0.208341
0.0683802
-0.202481
0.0645891
-0.196722
0.0609689
-0.190978
0.0574179
-0.185341
0.0540776
-0.179832
0.0508576
-0.174405
0.0477678
-0.169075
0.0448005
-0.163847
0.0419559
-0.158724
0.0392302
-0.153699
0.0366124
-0.148778
0.0341108
-0.143962
0.0317075
-0.139245
0.0294055
-0.134631
0.0271993
-0.130118
0.0250838
-0.125707
0.0230585
-0.121399
0.021123
-0.117195
0.019272
-0.113087
0.0174904
-0.109074
0.0157924
-0.105162
0.00220121
-0.229134
0.0863533
-0.223156
0.0818981
-0.21718
0.0775629
-0.211324
0.0734484
-0.205504
0.0695054
-0.199831
0.0657302
-0.194159
0.0620267
-0.188553
0.0585437
-0.183116
0.0551931
-0.177717
0.0519627
-0.172417
0.0488696
-0.167214
0.0459068
-0.162108
0.0430616
-0.157097
0.0403291
-0.152183
0.0377142
-0.147367
0.0352009
-0.142644
0.0327926
-0.138019
0.030481
-0.133496
0.0282709
-0.129075
0.0261556
-0.124748
0.0241251
-0.12052
0.0221793
-0.11639
0.0203176
-0.11235
0.0185347
-0.108413
0.0168302
-0.104569
0.0151989
-0.100814
0.00220534
-0.225553
0.0873968
-0.219717
0.0829137
-0.213931
0.0786484
-0.208264
0.0745032
-0.20263
0.070575
-0.197094
0.0667689
-0.191561
0.0631321
-0.186159
0.0596325
-0.180827
0.0562544
-0.175558
0.0530334
-0.170391
0.0499363
-0.165311
0.0469667
-0.160321
0.0441196
-0.155419
0.0413839
-0.150614
0.0387609
-0.145902
0.0362492
-0.141282
0.033839
-0.136755
0.031529
-0.132329
0.0293132
-0.127992
0.027188
-0.123745
0.0251526
-0.119596
0.0232012
-0.115544
0.0213337
-0.111577
0.0195446
-0.107707
0.0178287
-0.103929
0.0161905
-0.100239
0.0146248
-0.0966414
0.0022142
-0.221892
0.0883886
-0.216245
0.0839246
-0.210646
0.0796287
-0.205166
0.0755507
-0.199721
0.0715943
-0.194274
0.0677546
-0.188925
0.0641325
-0.183658
0.0606316
-0.178471
0.0572765
-0.173355
0.0540515
-0.168316
0.0509588
-0.163362
0.0479874
-0.158488
0.0451335
-0.153701
0.0424009
-0.14901
0.0397796
-0.144401
0.0372598
-0.139878
0.0348451
-0.135447
0.0325304
-0.131111
0.0303115
-0.12686
0.0281818
-0.122698
0.0261412
-0.118633
0.0241892
-0.114654
0.0223109
-0.110764
0.0205206
-0.106961
0.0187981
-0.103253
0.0171531
-0.0996242
0.0155753
-0.0960859
0.0140692
-0.0926359
0.00221831
-0.2182
0.0893288
-0.212741
0.0848852
-0.207329
0.0806083
-0.201989
0.0764513
-0.19668
0.0725097
-0.191416
0.068737
-0.186253
0.0650826
-0.181132
0.0616062
-0.176083
0.0582436
-0.171099
0.0550204
-0.166191
0.051926
-0.161362
0.0489591
-0.156609
0.0461084
-0.151941
0.0433739
-0.147354
0.0407446
-0.142848
0.0382265
-0.138431
0.0358134
-0.134097
0.0334955
-0.129852
0.0312715
-0.125686
0.0291367
-0.121612
0.0270958
-0.117625
0.0251334
-0.113724
0.023259
-0.10991
0.0214576
-0.106179
0.0197385
-0.102537
0.0180817
-0.0989728
0.0165016
-0.0954988
0.0149882
-0.0921028
0.0135361
-0.0887919
0.00221742
-0.214427
0.0901663
-0.209156
0.0857431
-0.203931
0.0814867
-0.198776
0.0773955
-0.193702
0.0734728
-0.188573
0.0696666
-0.183545
0.0660295
-0.178578
0.0625281
-0.173651
0.059175
-0.168809
0.0559542
-0.164033
0.052863
-0.159326
0.0498894
-0.154692
0.0470419
-0.150142
0.0443092
-0.145663
0.0416829
-0.141265
0.0391617
-0.136944
0.0367392
-0.132705
0.0344217
-0.128555
0.032198
-0.124477
0.0300631
-0.120493
0.0280172
-0.116584
0.0260541
-0.112759
0.0241688
-0.109017
0.0223659
-0.105357
0.0206353
-0.10178
0.0189814
-0.0982854
0.0173943
-0.0948705
0.0158734
-0.091533
0.0144184
-0.0882849
0.0130291
-0.0851042
0.0022215
-0.210625
0.091053
-0.205588
0.0865992
-0.200548
0.0823604
-0.195578
0.0782882
-0.19059
0.0742838
-0.185646
0.070546
-0.180784
0.0669051
-0.175958
0.0634097
-0.171183
0.06006
-0.166477
0.0568425
-0.161832
0.0537523
-0.15725
0.0507868
-0.152739
0.0479362
-0.148298
0.0451982
-0.143926
0.0425724
-0.139638
0.0400565
-0.13542
0.0376371
-0.131281
0.0353151
-0.12722
0.0330868
-0.123232
0.0309523
-0.119329
0.0289
-0.115503
0.0269364
-0.111755
0.0250501
-0.108089
0.023241
-0.104499
0.0215087
-0.100993
0.0198481
-0.0975624
0.0182584
-0.0942062
0.01673
-0.0909318
0.0152722
-0.0877365
0.01387
-0.0846128
0.0125377
-0.0815678
0.00222544
-0.20684
0.0918398
-0.20194
0.087405
-0.197085
0.0831356
-0.19225
0.0790328
-0.187447
0.0751451
-0.182685
0.0713229
-0.17797
0.0677315
-0.173305
0.0642522
-0.168677
0.0609035
-0.164109
0.057692
-0.159588
0.0545988
-0.155134
0.0516366
-0.150742
0.0487905
-0.146419
0.0460566
-0.142163
0.0434353
-0.137977
0.0409114
-0.133854
0.0384911
-0.129814
0.0361695
-0.125848
0.033943
-0.121947
0.0318026
-0.118128
0.0297511
-0.114384
0.0277813
-0.110717
0.0258984
-0.107122
0.0240828
-0.103607
0.0223487
-0.10017
0.020686
-0.0967988
0.0190844
-0.093511
0.0175632
-0.0902994
0.0160975
-0.0871566
0.0146923
-0.0840897
0.0133469
-0.081096
0.0120659
-0.0781775
0.00222949
-0.202975
0.0925738
-0.198261
0.0881607
-0.19359
0.0839103
-0.188938
0.0798237
-0.184317
0.0759027
-0.179689
0.0721489
-0.175171
0.0685241
-0.170618
0.0650445
-0.166132
0.0617069
-0.161696
0.0584911
-0.15731
0.0554138
-0.152985
0.0524499
-0.14871
0.0496044
-0.144498
0.0468702
-0.140356
0.0442494
-0.136269
0.0417273
-0.132257
0.0393137
-0.12831
0.0369877
-0.124438
0.0347602
-0.120625
0.0326203
-0.116893
0.0305678
-0.113236
0.0286026
-0.109644
0.0267088
-0.106121
0.0248968
-0.10268
0.0231561
-0.0993074
0.0214861
-0.0960048
0.0198921
-0.0927851
0.0183585
-0.0896262
0.0168901
-0.0865453
0.0154863
-0.0835349
0.0141375
-0.0805923
0.0128431
-0.0777196
0.0116079
-0.0749186
0.00223339
-0.199032
0.0932106
-0.194501
0.0888139
-0.19006
0.0846308
-0.185592
0.0805645
-0.181154
0.0766611
-0.176709
0.0729222
-0.17229
0.0692688
-0.167889
0.0657954
-0.163547
0.0624599
-0.159246
0.0592564
-0.154995
0.0561762
-0.150792
0.0532205
-0.14664
0.0503797
-0.142545
0.0476509
-0.138513
0.0450271
-0.134535
0.0425153
-0.130622
0.0400924
-0.126776
0.0377793
-0.122995
0.0355448
-0.119275
0.0334102
-0.115626
0.0313531
-0.112049
0.0293808
-0.108534
0.0274921
-0.10509
0.025678
-0.101724
0.0239403
-0.0984198
0.0222684
-0.0951855
0.0206668
-0.0920235
0.0191305
-0.0889268
0.0176591
-0.0859027
0.0162475
-0.0829438
0.0148952
-0.0800569
0.0136021
-0.0772345
0.012358
-0.0744785
0.0111678
-0.0717909
0.00223257
-0.195107
0.093894
-0.190808
0.0895176
-0.186502
0.0852556
-0.182166
0.0812043
-0.177908
0.0773184
-0.173599
0.0735511
-0.169342
0.0699733
-0.16513
0.0665098
-0.160932
0.0631803
-0.156771
0.0599852
-0.152647
0.0569084
-0.14857
0.0539547
-0.144535
0.0511158
-0.140562
0.0483966
-0.136639
0.0457769
-0.132767
0.0432586
-0.128952
0.040846
-0.125204
0.0385209
-0.121511
0.0362944
-0.117889
0.0341589
-0.114325
0.0321095
-0.110828
0.0301327
-0.107395
0.0282418
-0.104024
0.0264267
-0.100728
0.0246821
-0.0974925
0.023013
-0.0943263
0.0214091
-0.0912269
0.0198702
-0.0881922
0.0183959
-0.0852245
0.0169809
-0.0823216
0.0156252
-0.07949
0.0143283
-0.0767177
0.0130853
-0.0740162
0.0118957
-0.0713728
0.0107497
-0.0687941
0.00223642
-0.191153
0.0944803
-0.187037
0.0901228
-0.18291
0.0859255
-0.178804
0.0818931
-0.174679
0.0779753
-0.170514
0.0742341
-0.166427
0.0706364
-0.16234
0.0671827
-0.158285
0.063863
-0.154257
0.0606664
-0.150264
0.0576028
-0.146316
0.0546538
-0.142402
0.0518218
-0.138544
0.0490983
-0.134725
0.0464832
-0.130964
0.043974
-0.127257
0.0415633
-0.123602
0.0392436
-0.120011
0.0370212
-0.116471
0.0348764
-0.112993
0.0328261
-0.109577
0.0308581
-0.106222
0.0289601
-0.102931
0.0271481
-0.0997078
0.0254066
-0.0965407
0.0237303
-0.0934372
0.022124
-0.0904048
0.020587
-0.0874316
0.0191096
-0.0845203
0.0176916
-0.0816778
0.0163372
-0.0788966
0.0150319
-0.0761742
0.0137848
-0.0735172
0.0125863
-0.0709226
0.0114455
-0.0683923
0.0103479
-0.0659231
0.00224024
-0.187168
0.0950662
-0.183233
0.0906767
-0.179287
0.0864997
-0.175312
0.082434
-0.171342
0.0785559
-0.167385
0.0748458
-0.163452
0.0712594
-0.159519
0.0678154
-0.155603
0.0645006
-0.151711
0.0613173
-0.147856
0.0582585
-0.144029
0.0553165
-0.140235
0.0524865
-0.136491
0.0497686
-0.132786
0.047159
-0.129132
0.0446517
-0.125525
0.0422416
-0.121967
0.0399288
-0.118468
0.0377006
-0.115018
0.0355683
-0.11163
0.0335136
-0.108296
0.0315448
-0.10502
0.0296557
-0.101808
0.0278378
-0.0986544
0.0260946
-0.0955544
0.0244203
-0.0925231
0.0228163
-0.0895526
0.0212717
-0.086636
0.0197914
-0.0837855
0.0183748
-0.0809983
0.0170121
-0.0782674
0.015708
-0.0756042
0.0144618
-0.0729962
0.0132639
-0.0704503
0.0121139
-0.0679633
0.0110165
-0.0655321
0.00995696
-0.0631584
0.00223936
-0.183152
0.0955511
-0.179348
0.0911805
-0.175631
0.0870212
-0.171836
0.0830241
-0.168045
0.0791374
-0.164248
0.0754187
-0.160454
0.0718472
-0.156667
0.0684081
-0.15289
0.0651018
-0.149139
0.0619282
-0.14541
0.0588715
-0.141708
0.0559365
-0.138038
0.0531198
-0.134415
0.0504101
-0.13082
0.0478026
-0.127269
0.0452958
-0.123764
0.0428912
-0.120307
0.0405812
-0.116899
0.0383599
-0.11354
0.0362232
-0.110239
0.0341774
-0.106987
0.0322051
-0.10379
0.0303151
-0.100652
0.0284999
-0.0975698
0.0267532
-0.0945428
0.025083
-0.0915794
0.0234766
-0.0886705
0.0219342
-0.0858198
0.0204555
-0.0830297
0.0190357
-0.0802979
0.0176744
-0.0776216
0.0163663
-0.0750076
0.0151114
-0.0724438
0.0139094
-0.0699463
0.0127599
-0.0675024
0.0116531
-0.065114
0.0105984
-0.0627874
0.00958591
-0.0605096
0.00223833
-0.179058
0.0959899
-0.175483
0.0916867
-0.171946
0.0874953
-0.168328
0.0835132
-0.164685
0.079664
-0.161067
0.0759565
-0.157425
0.0723899
-0.153786
0.0689657
-0.150154
0.0656728
-0.14654
0.0625027
-0.142942
0.0594593
-0.139364
0.0565278
-0.135815
0.0537131
-0.132305
0.0510104
-0.128817
0.0484071
-0.125379
0.0459122
-0.121975
0.0435069
-0.118615
0.0411987
-0.115298
0.0389802
-0.112034
0.0368539
-0.108817
0.0348011
-0.105645
0.0328355
-0.102533
0.0309483
-0.0994681
0.0291309
-0.096458
0.0273881
-0.0935047
0.0257151
-0.0906066
0.0241101
-0.0877587
0.0225649
-0.0849688
0.0210831
-0.082239
0.0196647
-0.079562
0.0182998
-0.07694
0.0169928
-0.07438
0.0157387
-0.0718697
0.0145373
-0.0694155
0.0133787
-0.0670194
0.0122769
-0.0646735
0.0112126
-0.0623889
0.0101999
-0.0601528
0.00922916
-0.0579762
0.00224684
-0.174983
0.0964284
-0.171638
0.0921441
-0.168228
0.087969
-0.164803
0.0839698
-0.161319
0.0801468
-0.157857
0.0764543
-0.154371
0.0729025
-0.150879
0.0694832
-0.147389
0.0662001
-0.143909
0.0630421
-0.140441
0.0600022
-0.136992
0.0570876
-0.133567
0.0542799
-0.13017
0.0515779
-0.126795
0.0489878
-0.123459
0.0464873
-0.120157
0.0440938
-0.116898
0.0417899
-0.113676
0.0395768
-0.110503
0.0374484
-0.107369
0.035406
-0.104286
0.0334418
-0.101247
0.0315489
-0.0982589
0.0297391
-0.0953275
0.0280003
-0.0924404
0.0263238
-0.0896087
0.0247172
-0.0868221
0.0231735
-0.0840974
0.0216935
-0.0814276
0.0202718
-0.0788053
0.0189081
-0.0762376
0.0175973
-0.0737264
0.0163391
-0.0712645
0.0151335
-0.0688581
0.0139799
-0.0665097
0.0128689
-0.0642108
0.0118142
-0.0619681
0.0107918
-0.0597686
0.00981572
-0.0576283
0.00888127
-0.0555342
0.00224587
-0.170878
0.0968183
-0.167711
0.0925019
-0.164477
0.0883927
-0.16125
0.0844161
-0.157937
0.0805882
-0.154622
0.0769119
-0.151288
0.0733714
-0.147947
0.0699705
-0.144601
0.066696
-0.141257
0.0635478
-0.137917
0.0605186
-0.134594
0.0576038
-0.131286
0.0548068
-0.128002
0.0521117
-0.124744
0.0495273
-0.121515
0.0470436
-0.118319
0.0446494
-0.11515
0.0423461
-0.112023
0.0401373
-0.108939
0.038013
-0.105894
0.0359734
-0.10289
0.0340098
-0.099933
0.032128
-0.0970275
0.0303174
-0.0941636
0.0285752
-0.0913476
0.0269076
-0.0885821
0.0252972
-0.0858654
0.0237605
-0.0832012
0.0222773
-0.0805863
0.0208522
-0.0780231
0.0194896
-0.0755093
0.0181798
-0.0730516
0.0169226
-0.0706427
0.0157174
-0.0682841
0.0145594
-0.0659782
0.0134485
-0.0637212
0.0123794
-0.0615154
0.0113615
-0.0593621
0.0103852
-0.0572579
0.0094453
-0.0552042
0.00855128
-0.0531976
0.0022495
-0.166787
0.0972092
-0.163803
0.0929103
-0.160765
0.0887904
-0.157672
0.0848151
-0.154525
0.0810034
-0.15137
0.0773358
-0.148185
0.0738088
-0.144994
0.0704179
-0.141783
0.0671518
-0.138578
0.0640171
-0.135367
0.0609976
-0.132172
0.0580972
-0.128986
0.0553036
-0.125819
0.0526241
-0.122673
0.0500404
-0.119545
0.0475573
-0.116444
0.0451688
-0.11338
0.0428795
-0.110352
0.0406749
-0.107358
0.0385562
-0.104396
0.0365158
-0.101476
0.0345599
-0.0986006
0.0326774
-0.095764
0.0308646
-0.0929762
0.02913
-0.09023
0.0274576
-0.0875306
0.0258561
-0.0848793
0.024311
-0.0822754
0.0228347
-0.0797247
0.0214157
-0.0772156
0.0200446
-0.0747555
0.0187357
-0.072351
0.0174792
-0.0699899
0.0162698
-0.0676789
0.0151122
-0.0654201
0.0140014
-0.0632098
0.012937
-0.0610503
0.0119143
-0.0589332
0.0109327
-0.056865
0.0099923
-0.0548469
0.009088
-0.0528755
0.00822909
-0.0509568
0.00224832
-0.162636
0.0974547
-0.159816
0.0932218
-0.156968
0.0891132
-0.15405
0.0851677
-0.151087
0.0813773
-0.148092
0.0777259
-0.145063
0.0742139
-0.142016
0.0708315
-0.13895
0.0675852
-0.135878
0.0644513
-0.132795
0.0614453
-0.129727
0.0585519
-0.126659
0.0557703
-0.123608
0.0530929
-0.120568
0.0505198
-0.11755
0.048046
-0.114555
0.045668
-0.111589
0.0433781
-0.108652
0.041179
-0.105746
0.0390632
-0.102872
0.0370319
-0.100034
0.0350739
-0.0972362
0.0331955
-0.094482
0.0313953
-0.0917689
0.0296573
-0.0890902
0.0279902
-0.0864605
0.0263875
-0.0838739
0.0248508
-0.0813343
0.02337
-0.0788382
0.0219482
-0.076383
0.0205831
-0.0739859
0.019275
-0.0716295
0.0180143
-0.0693161
0.0168054
-0.0670572
0.0156481
-0.0648452
0.0145372
-0.0626766
0.0134682
-0.0605537
0.0124404
-0.0584775
0.0114585
-0.0564497
0.0105175
-0.0544718
0.00961722
-0.0525402
0.00875279
-0.0506467
0.00791898
-0.048802
0.00225197
-0.158482
0.0977484
-0.155856
0.0934947
-0.153168
0.0894221
-0.150429
0.0854929
-0.147632
0.0817125
-0.144791
0.078076
-0.141917
0.0745802
-0.139014
0.0712113
-0.136091
0.0679722
-0.133151
0.0648581
-0.130207
0.0618629
-0.127259
0.0589779
-0.124314
0.056207
-0.121378
0.0535403
-0.118448
0.0509728
-0.115537
0.0485061
-0.112645
0.0461359
-0.109774
0.043853
-0.106932
0.0416581
-0.104112
0.0395452
-0.101327
0.0375181
-0.0985753
0.0355727
-0.0958595
0.0336972
-0.0931765
0.03189
-0.0905297
0.0301561
-0.0879256
0.0284927
-0.0853608
0.0268905
-0.0828403
0.0253538
-0.0803592
0.0238756
-0.0779272
0.0224591
-0.0755299
0.0210951
-0.073186
0.0197832
-0.0708824
0.0185278
-0.0686212
0.0173194
-0.0664095
0.0161577
-0.0642393
0.0150423
-0.0621172
0.0139778
-0.06004
0.0129545
-0.0580092
0.0119721
-0.0560171
0.0110258
-0.0540743
0.01012
-0.0521776
0.00925457
-0.0503185
0.00842461
-0.0485082
0.00762513
-0.0467377
0.0022507
-0.154304
0.0979438
-0.151861
0.0937536
-0.149362
0.0896888
-0.146788
0.0857808
-0.144159
0.0820203
-0.141478
0.0784001
-0.138751
0.0749102
-0.135995
0.0715611
-0.133215
0.0683355
-0.130408
0.06523
-0.127596
0.0622468
-0.12477
0.0593739
-0.121945
0.0566088
-0.119119
0.0539478
-0.1163
0.0513923
-0.113499
0.0489348
-0.11071
0.0465716
-0.107935
0.0442965
-0.105188
0.0421096
-0.102461
0.0400071
-0.0997647
0.0379828
-0.0970892
0.0360319
-0.0944509
0.0341641
-0.0918475
0.0323682
-0.0892816
0.030642
-0.0867474
0.0289778
-0.0842486
0.0273806
-0.0817916
0.0258418
-0.0793752
0.0243698
-0.0769959
0.0229443
-0.0746569
0.0215861
-0.0723707
0.0202798
-0.0701195
0.0190204
-0.0679056
0.0178123
-0.0657456
0.0166554
-0.0636216
0.01554
-0.0615408
0.0144659
-0.0595045
0.0134423
-0.0575095
0.0124548
-0.0555624
0.0115174
-0.0536594
0.0106109
-0.0517974
0.00973978
-0.049968
0.00890403
-0.0481916
0.00810801
-0.0464549
0.00734228
-0.044759
0.00224938
-0.150139
0.0981894
-0.147887
0.0939704
-0.145535
0.0899267
-0.143134
0.086035
-0.140669
0.0822907
-0.138141
0.0786827
-0.13557
0.075219
-0.132963
0.0718785
-0.130319
0.0686651
-0.127648
0.0655753
-0.124966
0.0626006
-0.122262
0.0597385
-0.119558
0.0569867
-0.116853
0.0543427
-0.114144
0.0517916
-0.111445
0.0493384
-0.108755
0.0469796
-0.106077
0.0447138
-0.103424
0.0425324
-0.100786
0.0404342
-0.0981705
0.0384129
-0.0955858
0.0364795
-0.0930286
0.0346097
-0.0905013
0.0328179
-0.0880004
0.031087
-0.0855359
0.0294305
-0.0831069
0.0278361
-0.0807182
0.0263071
-0.0783652
0.0248317
-0.0760443
0.0234182
-0.0737684
0.0220558
-0.07153
0.0207454
-0.0693263
0.0194866
-0.0671692
0.0182839
-0.0650557
0.0171224
-0.0629781
0.0160119
-0.0609432
0.0149424
-0.0589524
0.0139137
-0.0569976
0.0129304
-0.0550904
0.0119829
-0.0532176
0.0110756
-0.0513901
0.0102036
-0.0495997
0.00937146
-0.0478618
0.00857429
-0.0461539
0.00780706
-0.0444866
0.00706989
-0.042861
0.00225271
-0.14594
0.0983261
-0.143849
0.0941511
-0.141697
0.0901323
-0.139462
0.0862542
-0.137158
0.0825248
-0.134792
0.0789416
-0.132371
0.0754829
-0.129905
0.0721609
-0.127401
0.068961
-0.124868
0.0658847
-0.122312
0.0629208
-0.119738
0.0600771
-0.117153
0.0573334
-0.114557
0.0546902
-0.111956
0.0521547
-0.109365
0.0497121
-0.106781
0.0473639
-0.104201
0.0451037
-0.101639
0.0429289
-0.099092
0.0408386
-0.0965676
0.0388313
-0.0940654
0.0368924
-0.0915794
0.0350303
-0.0891318
0.0332401
-0.0867055
0.0315231
-0.0843157
0.0298668
-0.0819502
0.0282738
-0.0796262
0.0267441
-0.0773317
0.0252737
-0.0750729
0.0238603
-0.07285
0.0224998
-0.0706695
0.0211953
-0.0685226
0.0199417
-0.0664169
0.0187343
-0.064345
0.0175731
-0.0623183
0.0164626
-0.0603241
0.0153928
-0.0583785
0.0143686
-0.0564641
0.0133802
-0.0545918
0.0124318
-0.0527633
0.0115286
-0.0509701
0.0106556
-0.0492185
0.00982246
-0.0475049
0.00901453
-0.0458257
0.00824609
-0.0441916
0.00751203
-0.0425987
0.00680756
-0.041034
0.00225139
-0.14173
0.0984609
-0.139824
0.0943005
-0.13784
0.0902942
-0.135778
0.0864486
-0.133642
0.0827378
-0.131427
0.0791596
-0.129157
0.075728
-0.12684
0.0724182
-0.124479
0.0692382
-0.122081
0.066174
-0.119651
0.0632236
-0.117201
0.060383
-0.11473
0.057654
-0.112248
0.0550251
-0.109761
0.0524954
-0.107274
0.0500635
-0.104792
0.0477232
-0.102308
0.045471
-0.0998388
0.0433031
-0.0973788
0.0412157
-0.0949405
0.0392114
-0.0925193
0.0372853
-0.0901166
0.0354296
-0.0877438
0.0336423
-0.0853936
0.0319281
-0.0830673
0.0302747
-0.0807764
0.0286929
-0.0785145
0.027162
-0.076282
0.0256944
-0.074083
0.0242838
-0.0719185
0.0229288
-0.0697934
0.0216237
-0.0676983
0.020371
-0.0656393
0.0191641
-0.0636183
0.0180077
-0.0616374
0.0168922
-0.0596887
0.0158272
-0.0577834
0.0147977
-0.0559089
0.0138134
-0.054081
0.0128694
-0.0522871
0.0119556
-0.0505281
0.0110865
-0.0488151
0.0102523
-0.0471304
0.00944793
-0.0454892
0.00867801
-0.043888
0.00794246
-0.0423183
0.00723171
-0.0407813
0.0065549
-0.0392919
0.00225456
-0.137489
0.0985608
-0.135775
0.0944125
-0.133979
0.0904388
-0.132082
0.0865981
-0.130102
0.0829085
-0.128048
0.0793588
-0.125933
0.0759358
-0.123758
0.0726459
-0.121531
0.0694704
-0.119262
0.0664197
-0.116967
0.06349
-0.11464
0.0606629
-0.11229
0.0579433
-0.109921
0.0553265
-0.107547
0.0528111
-0.105167
0.0503885
-0.102777
0.048049
-0.100396
0.045811
-0.0980176
0.0436497
-0.0956485
0.0415729
-0.0933011
0.0395764
-0.0909598
0.0376518
-0.0886381
0.0358067
-0.08634
0.0340258
-0.0840631
0.0323119
-0.0818053
0.0306661
-0.0795827
0.029081
-0.0773808
0.0275592
-0.0752117
0.0260917
-0.0730746
0.0246861
-0.0709645
0.0233298
-0.0688929
0.0220283
-0.0668493
0.0207746
-0.0648459
0.0195776
-0.0628757
0.0184214
-0.0609405
0.0173108
-0.0590371
0.0162406
-0.0571718
0.0152155
-0.0553421
0.0142308
-0.0535536
0.013286
-0.0517938
0.0123762
-0.0500736
0.0115012
-0.0483897
0.0106611
-0.046743
0.00986495
-0.045135
0.00909373
-0.0435619
0.00835192
-0.0420154
0.00763949
-0.0405153
0.00696568
-0.0390485
0.00631152
-0.0376111
0.00225295
-0.133267
0.0986158
-0.131725
0.0945106
-0.130109
0.0905424
-0.128373
0.0867302
-0.126558
0.0830542
-0.124659
0.0795194
-0.122689
0.0761149
-0.12066
0.0728372
-0.118571
0.0696865
-0.116444
0.0666516
-0.114275
0.0637278
-0.112063
0.0609128
-0.109836
0.058209
-0.107579
0.0556015
-0.105313
0.0530918
-0.103036
0.05068
-0.100752
0.0483632
-0.0984667
0.0461197
-0.0961806
0.043974
-0.0939074
0.0419086
-0.0916398
0.0399116
-0.0893782
0.0379948
-0.0871362
0.03615
-0.0849115
0.0343782
-0.0827094
0.0326721
-0.0805262
0.0310328
-0.0783658
0.0294492
-0.0762322
0.0279324
-0.0741287
0.0264762
-0.0720487
0.0250658
-0.069997
0.0237186
-0.0679824
0.0224193
-0.0659937
0.0211727
-0.0640371
0.0199659
-0.0621126
0.0188145
-0.0602227
0.0177037
-0.0583642
0.0166379
-0.0565439
0.0156127
-0.0547535
0.014627
-0.0530043
0.0136815
-0.0512835
0.0127757
-0.0496021
0.0119047
-0.0479517
0.0110631
-0.0463382
0.0102563
-0.0447585
0.00948846
-0.0432134
0.00874522
-0.041704
0.00804054
-0.0402313
0.00735553
-0.0387823
0.00669945
-0.0373764
0.00607688
-0.0360054
0.00225593
-0.129021
0.0986507
-0.127673
0.094564
-0.126215
0.0906173
-0.124656
0.086825
-0.123002
0.0831738
-0.121262
0.0796576
-0.119441
0.0762716
-0.117556
0.0730111
-0.115607
0.0698726
-0.113607
0.0668499
-0.111563
0.0639396
-0.109479
0.0611439
-0.107368
0.0584446
-0.105224
0.0558542
-0.103071
0.0533602
-0.100901
0.0509563
-0.0987124
0.0486404
-0.0965195
0.046416
-0.0943329
0.044272
-0.0921444
0.042211
-0.0899566
0.0402254
-0.0877845
0.0383179
-0.0856222
0.0364808
-0.0834771
0.0347156
-0.0813435
0.0330124
-0.0792336
0.0313795
-0.0771402
0.0298072
-0.0750736
0.0282906
-0.0730286
0.0268323
-0.0710057
0.0254332
-0.069016
0.0240848
-0.0670508
0.022787
-0.0651142
0.0215399
-0.0632076
0.0203432
-0.0613337
0.019187
-0.059489
0.0180808
-0.0576754
0.0170149
-0.0558996
0.0159937
-0.0541533
0.0150125
-0.0524385
0.0140613
-0.0507565
0.0131545
-0.0491088
0.0122823
-0.0474964
0.0114494
-0.0459164
0.0106413
-0.0443693
0.0098671
-0.042852
0.00912708
-0.0413749
0.00841611
-0.0399248
0.007734
-0.0385075
0.0070807
-0.0371331
0.00645608
-0.0357792
0.00585073
-0.0344606
0.00225426
-0.124777
0.0986541
-0.123595
0.0945725
-0.122316
0.0906649
-0.120933
0.0868938
-0.119436
0.0832598
-0.117852
0.0797635
-0.11618
0.076396
-0.114432
0.0731478
-0.112622
0.0700264
-0.11076
0.0670259
-0.108843
0.0641299
-0.106881
0.0613415
-0.104883
0.0586592
-0.102858
0.0560782
-0.100809
0.0535923
-0.0987395
0.0511991
-0.0966522
0.0488961
-0.0945651
0.046686
-0.0924681
0.0445513
-0.0903657
0.0424933
-0.0882675
0.0405218
-0.0861813
0.0386222
-0.0840974
0.0367931
-0.0820258
0.0350294
-0.0799641
0.0333362
-0.0779213
0.0317
-0.0758914
0.0301307
-0.0738917
0.0286254
-0.0719088
0.0271708
-0.0699466
0.0257732
-0.0680126
0.0244298
-0.0660996
0.0231335
-0.0642186
0.0218914
-0.0623625
0.0206948
-0.0605345
0.019544
-0.0587396
0.0184375
-0.0569706
0.017376
-0.055239
0.0163542
-0.053532
0.0153723
-0.0518561
0.0144301
-0.0502176
0.0135223
-0.0486033
0.012649
-0.0470241
0.0118101
-0.045477
0.01101
-0.0439626
0.0102345
-0.0424779
0.00949296
-0.0410281
0.00878034
-0.0396052
0.00809655
-0.0382195
0.00744604
-0.0368671
0.00681474
-0.0355396
0.00621641
-0.0342471
0.00563719
-0.0329859
0.002257
-0.120521
0.0986191
-0.119528
0.0945876
-0.118429
0.0906852
-0.1172
0.0869326
-0.115862
0.0833198
-0.114431
0.0798394
-0.112907
0.0764905
-0.111303
0.073267
-0.109636
0.0701615
-0.107901
0.0671668
-0.106105
0.064288
-0.104272
0.0615216
-0.102395
0.0588538
-0.100481
0.0562822
-0.0985381
0.053807
-0.0965754
0.0514282
-0.094589
0.0491359
-0.0925964
0.0469275
-0.0905842
0.044802
-0.0885763
0.0427618
-0.0865676
0.0407934
-0.0845536
0.0388941
-0.082548
0.0370728
-0.0805484
0.0353157
-0.0785664
0.0336317
-0.076592
0.0320069
-0.074634
0.0304426
-0.0726951
0.028934
-0.0707707
0.0274873
-0.0688705
0.0260947
-0.066997
0.0247577
-0.0651397
0.0234699
-0.063313
0.0222279