/*--------------------------------*- C++ -*----------------------------------*\
  =========                 |
  \\      /  F ield         | OpenFOAM: The Open Source CFD Toolbox
   \\    /   O peration     | Website:  https://openfoam.org
    \\  /    A nd           | Version:  7
     \\/     M anipulation  |
\*---------------------------------------------------------------------------*/
FoamFile
{
    version     2.0;
    format      ascii;
    class       volVectorField;
    location    "1400";
    object      U;
}
// * * * * * * * * * * * * * * * * * * * * * * * * * * * * * * * * * * * * * //

dimensions      [0 1 -1 0 0 0 0];

internalField   nonuniform List<vector> 
23052
(
(49.547 12.921 -3.14497e-17)
(49.5819 12.9453 0)
(49.6404 13.1105 1.2879e-17)
(49.6067 12.9709 0)
(49.6324 13.1076 5.12497e-17)
(49.6007 13.1067 6.83416e-18)
(49.6215 12.9964 1.34002e-17)
(49.6306 13.1101 5.91021e-19)
(49.6124 13.1183 -7.25068e-18)
(49.6089 13.0991 2.31977e-17)
(49.6316 13.0208 9.57404e-17)
(49.633 13.1161 -7.93334e-17)
(49.6202 13.1285 -1.43288e-17)
(49.6082 13.1065 1.53621e-17)
(49.5957 13.1047 8.22127e-18)
(49.5847 13.0958 8.91278e-18)
(49.6384 13.0434 -2.22841e-18)
(49.6363 13.1241 0)
(49.6255 13.1382 -9.53565e-17)
(49.6092 13.1152 1.49271e-17)
(49.5969 13.1133 2.44908e-17)
(49.5822 13.1045 2.63104e-17)
(49.5625 13.0916 -2.27629e-18)
(49.5432 13.0837 0)
(49.6432 13.0644 1.77942e-17)
(49.6397 13.1332 1.29035e-16)
(49.6295 13.1478 1.08783e-16)
(49.6111 13.1245 -6.09607e-17)
(49.5977 13.1219 -1.3056e-16)
(49.5814 13.1137 -7.03113e-17)
(49.5617 13.1016 9.36739e-18)
(49.5421 13.0892 -2.53351e-18)
(49.5171 13.0792 1.52357e-21)
(49.6469 13.0838 -1.30854e-16)
(49.6426 13.1428 -1.28919e-16)
(49.6328 13.1573 -5.48207e-17)
(49.6131 13.1343 4.55421e-17)
(49.5984 13.1307 -1.62315e-17)
(49.581 13.1231 5.28264e-17)
(49.5609 13.1115 -9.61821e-18)
(49.5399 13.0994 0)
(49.5161 13.0851 0)
(49.4901 13.075 0)
(49.6497 13.1017 1.9558e-17)
(49.6452 13.1524 0)
(49.6356 13.1668 2.67785e-17)
(49.615 13.1441 2.91031e-17)
(49.5991 13.1396 -4.82367e-17)
(49.5809 13.1324 -5.22932e-17)
(49.5602 13.1213 -9.37471e-17)
(49.5383 13.1096 -2.02599e-17)
(49.5142 13.0961 0)
(49.4889 13.0812 -2.38113e-17)
(49.4601 13.0702 -2.87845e-20)
(49.652 13.1181 -2.53968e-16)
(49.6472 13.162 0)
(49.6379 13.1761 0)
(49.6168 13.154 -1.19464e-16)
(49.5998 13.1487 1.45189e-16)
(49.5809 13.1418 8.69775e-17)
(49.5596 13.1311 7.50912e-17)
(49.537 13.1198 -4.0291e-17)
(49.5126 13.107 -1.07798e-17)
(49.4866 13.0926 3.57992e-17)
(49.459 13.0768 -2.8944e-17)
(49.4285 13.0655 2.61836e-20)
(49.6541 13.1333 2.04302e-16)
(49.6489 13.1714 0)
(49.6399 13.1853 -1.83629e-16)
(49.6184 13.1638 8.92968e-17)
(49.6005 13.1579 0)
(49.581 13.1512 1.20499e-16)
(49.5591 13.1408 -1.83474e-17)
(49.536 13.13 8.0706e-17)
(49.5111 13.1177 0)
(49.4847 13.104 5.91011e-17)
(49.4566 13.0889 1.30168e-17)
(49.4273 13.0724 6.9369e-18)
(49.3948 13.0606 0)
(49.6559 13.1474 -3.94072e-17)
(49.6503 13.1805 5.49709e-17)
(49.6416 13.1942 -2.64305e-17)
(49.6198 13.1735 -2.86244e-17)
(49.6012 13.167 3.14662e-17)
(49.5812 13.1606 -6.26406e-19)
(49.5588 13.1506 1.48133e-16)
(49.5351 13.1401 -2.03857e-17)
(49.5099 13.1284 -8.65579e-17)
(49.483 13.1153 -1.49301e-19)
(49.4546 13.1008 5.11901e-17)
(49.4247 13.085 0)
(49.3936 13.0678 -3.67739e-18)
(49.3595 13.0556 0)
(49.6576 13.1604 -2.49409e-16)
(49.6514 13.1892 0)
(49.6431 13.2028 1.83531e-16)
(49.6211 13.183 2.85154e-17)
(49.6019 13.1761 0)
(49.5814 13.1699 -2.73177e-16)
(49.5585 13.1602 -1.48124e-16)
(49.5344 13.1502 2.02947e-17)
(49.5087 13.139 1.07701e-16)
(49.4815 13.1265 -7.05342e-17)
(49.4528 13.1127 -1.66151e-19)
(49.4227 13.0975 -6.82136e-17)
(49.391 13.0811 7.5704e-18)
(49.3582 13.0633 2.02361e-17)
(49.3224 13.0507 -3.90709e-20)
(49.6593 13.1725 -4.76803e-17)
(49.6524 13.1977 -5.0906e-17)
(49.6443 13.2111 2.71936e-17)
(49.6222 13.1922 5.82526e-17)
(49.6025 13.1851 0)
(49.5817 13.1791 6.71514e-19)
(49.5584 13.1699 0)
(49.5338 13.1602 -1.58626e-16)
(49.5078 13.1496 -8.50239e-17)
(49.4802 13.1376 2.36419e-17)
(49.4512 13.1244 -1.38894e-16)
(49.4208 13.11 1.22921e-16)
(49.3889 13.0942 4.39879e-17)
(49.3556 13.0771 -1.57894e-17)
(49.3211 13.0587 -8.72668e-18)
(49.2838 13.0458 4.33072e-20)
(49.6609 13.1837 2.49247e-16)
(49.6533 13.2057 2.09762e-16)
(49.6454 13.2191 5.30394e-17)
(49.6232 13.2012 -2.83355e-17)
(49.6031 13.1939 -3.10921e-17)
(49.582 13.1882 1.70348e-16)
(49.5583 13.1794 -3.72482e-17)
(49.5334 13.1701 7.4786e-19)
(49.507 13.16 1.07454e-16)
(49.4791 13.1486 6.95456e-17)
(49.4498 13.136 7.56983e-17)
(49.4191 13.1223 -4.10014e-17)
(49.3869 13.1072 -1.17122e-16)
(49.3534 13.0909 7.56615e-18)
(49.3185 13.0732 -8.51913e-18)
(49.2825 13.0542 4.62895e-18)
(49.2436 13.0409 -4.56029e-20)
(49.6625 13.1941 -2.06341e-16)
(49.6541 13.2134 -2.06933e-16)
(49.6463 13.2267 1.07228e-16)
(49.6241 13.21 -2.96552e-17)
(49.6036 13.2027 2.50963e-16)
(49.5822 13.1971 1.3471e-16)
(49.5583 13.1888 -2.18639e-16)
(49.533 13.1799 1.96873e-16)
(49.5063 13.1703 -1.69911e-16)
(49.4782 13.1595 -1.38398e-16)
(49.4486 13.1476 2.53586e-17)
(49.4176 13.1345 -8.02619e-17)
(49.3852 13.1201 7.35134e-17)
(49.3514 13.1045 -1.56058e-17)
(49.3163 13.0876 2.6019e-17)
(49.2798 13.0694 0)
(49.2422 13.0498 1.51377e-17)
(49.2018 13.0362 5.05494e-20)
(49.6641 13.2039 2.56701e-16)
(49.6549 13.2208 0)
(49.6472 13.2341 5.409e-17)
(49.625 13.2184 -2.59059e-16)
(49.6042 13.2112 -2.5255e-16)
(49.5825 13.206 -1.69225e-16)
(49.5583 13.1981 2.90872e-16)
(49.5328 13.1896 -1.25117e-18)
(49.5058 13.1805 8.6158e-19)
(49.4774 13.1703 0)
(49.4475 13.159 2.44154e-17)
(49.4163 13.1465 8.12472e-17)
(49.3837 13.1329 -4.34524e-17)
(49.3497 13.118 -6.24616e-17)
(49.3143 13.1019 0)
(49.2777 13.0844 -1.001e-19)
(49.2396 13.0656 -9.95301e-18)
(49.2005 13.0454 5.63163e-18)
(49.1585 13.0314 -5.32717e-20)
(49.6657 13.2129 -3.19091e-16)
(49.6556 13.2279 1.52985e-16)
(49.648 13.2411 0)
(49.6257 13.2266 4.0819e-16)
(49.6046 13.2195 -3.08338e-17)
(49.5828 13.2146 6.7274e-17)
(49.5584 13.2072 3.48419e-17)
(49.5326 13.1992 0)
(49.5054 13.1906 2.11085e-16)
(49.4767 13.181 -1.82208e-16)
(49.4466 13.1703 0)
(49.4152 13.1585 -1.06702e-16)
(49.3823 13.1455 0)
(49.3481 13.1314 9.43829e-17)
(49.3126 13.116 3.39079e-17)
(49.2757 13.0994 -1.10929e-16)
(49.2374 13.0814 7.01316e-17)
(49.1978 13.062 -2.16137e-17)
(49.1572 13.0411 -2.96152e-17)
(49.1136 13.0268 -2.07076e-21)
(49.6673 13.2213 4.5207e-16)
(49.6564 13.2346 -2.11023e-16)
(49.6487 13.2478 0)
(49.6265 13.2345 5.75072e-17)
(49.6051 13.2277 0)
(49.5831 13.2231 -3.40303e-17)
(49.5586 13.2162 -1.43796e-16)
(49.5325 13.2087 1.55532e-16)
(49.5051 13.2006 0)
(49.4762 13.1915 1.82475e-16)
(49.4459 13.1815 0)
(49.4142 13.1703 7.96578e-17)
(49.3812 13.1581 -2.93552e-17)
(49.3468 13.1447 3.18256e-17)
(49.311 13.13 -1.52272e-16)
(49.2739 13.1141 1.83902e-17)
(49.2354 13.0969 -6.04074e-17)
(49.1957 13.0784 5.44503e-17)
(49.1545 13.0584 -2.0583e-19)
(49.1123 13.0369 1.94188e-17)
(49.0672 13.0223 1.22277e-19)
(49.669 13.2292 -3.64846e-16)
(49.6572 13.241 -4.66524e-16)
(49.6494 13.2542 -2.62403e-16)
(49.6272 13.242 -1.4465e-18)
(49.6056 13.2356 -2.98204e-17)
(49.5835 13.2314 0)
(49.5588 13.225 7.2089e-17)
(49.5325 13.218 -1.94244e-16)
(49.5049 13.2105 0)
(49.4758 13.202 0)
(49.4453 13.1925 -1.95465e-16)
(49.4135 13.182 2.69813e-17)
(49.3802 13.1705 -8.62908e-17)
(49.3456 13.1578 6.22727e-17)
(49.3097 13.1439 3.44471e-17)
(49.2723 13.1288 9.20133e-17)
(49.2337 13.1124 0)
(49.1937 13.0947 -2.20469e-17)
(49.1524 13.0755 4.68685e-17)
(49.1097 13.055 1.25492e-17)
(49.0659 13.0329 -1.36597e-17)
(49.0192 13.0178 6.56361e-21)
(49.6706 13.2366 4.08478e-16)
(49.658 13.2472 8.84802e-16)
(49.65 13.2603 3.24214e-19)
(49.6279 13.2493 -2.31757e-16)
(49.6061 13.2433 2.79736e-16)
(49.5838 13.2396 1.98956e-16)
(49.559 13.2337 0)
(49.5326 13.2272 1.16342e-16)
(49.5048 13.2202 0)
(49.4756 13.2123 1.34138e-16)
(49.4449 13.2034 3.90517e-16)
(49.4128 13.1936 0)
(49.3794 13.1827 8.65216e-17)
(49.3446 13.1707 0)
(49.3085 13.1576 -1.66972e-16)
(49.271 13.1433 0)
(49.2322 13.1277 -1.94339e-17)
(49.192 13.1108 0)
(49.1504 13.0925 -5.86597e-17)
(49.1075 13.0729 -1.29338e-17)
(49.0633 13.0517 0)
(49.0179 13.0289 -7.6633e-18)
(48.9696 13.0135 -7.0162e-20)
(49.6722 13.2434 7.77391e-18)
(49.6588 13.2531 -8.34848e-16)
(49.6507 13.2662 1.57118e-16)
(49.6286 13.2564 5.62218e-17)
(49.6066 13.2508 -2.49404e-16)
(49.5842 13.2475 -2.99775e-16)
(49.5593 13.2422 -2.50344e-16)
(49.5328 13.2362 -3.09139e-16)
(49.5048 13.2298 0)
(49.4754 13.2225 -1.806e-16)
(49.4446 13.2142 -3.41221e-16)
(49.4124 13.205 2.09787e-16)
(49.3788 13.1948 0)
(49.3439 13.1836 1.22993e-16)
(49.3075 13.1712 1.68062e-16)
(49.2699 13.1576 0)
(49.2308 13.1429 7.84823e-17)
(49.1905 13.1268 1.06996e-16)
(49.1487 13.1094 2.36482e-17)
(49.1056 13.0906 1.23967e-17)
(49.0612 13.0703 -5.02193e-19)
(49.0153 13.0485 0)
(48.9682 13.0251 -1.6536e-17)
(48.9183 13.0092 -7.87287e-20)
(49.6739 13.2498 4.43485e-16)
(49.6596 13.2587 4.16666e-16)
(49.6514 13.2718 -2.63609e-16)
(49.6293 13.2631 0)
(49.6072 13.258 6.28556e-17)
(49.5847 13.2552 3.3723e-17)
(49.5597 13.2505 2.86935e-16)
(49.533 13.2451 4.22676e-16)
(49.5049 13.2392 0)
(49.4754 13.2325 -1.78832e-16)
(49.4444 13.2249 1.94497e-16)
(49.4121 13.2163 -2.79755e-17)
(49.3783 13.2068 0)
(49.3433 13.1963 -1.23178e-16)
(49.3068 13.1846 0)
(49.269 13.1719 -3.54775e-17)
(49.2298 13.1579 -5.8547e-17)
(49.1892 13.1426 -8.51955e-17)
(49.1472 13.1261 -2.26848e-17)
(49.1039 13.1082 -8.74928e-17)
(49.0592 13.0888 0)
(49.0132 13.0679 1.45802e-17)
(48.9656 13.0455 1.61824e-17)
(48.917 13.0214 1.76091e-17)
(48.8653 13.005 -3.09396e-21)
(49.6755 13.2558 4.47684e-17)
(49.6605 13.264 0)
(49.652 13.2771 5.23317e-16)
(49.6301 13.2696 5.62048e-17)
(49.6077 13.2651 0)
(49.5851 13.2628 1.65022e-16)
(49.5601 13.2587 -7.13888e-17)
(49.5333 13.2538 -3.08615e-16)
(49.5051 13.2485 4.0823e-17)
(49.4755 13.2424 3.57734e-16)
(49.4444 13.2354 0)
(49.4119 13.2275 -2.36144e-16)
(49.3781 13.2187 -1.97479e-16)
(49.3428 13.2089 0)
(49.3062 13.198 -3.37409e-17)
(49.2682 13.1859 0)
(49.2289 13.1727 0)
(49.1881 13.1583 6.35692e-17)
(49.146 13.1426 9.16161e-17)
(49.1025 13.1256 1.49563e-16)
(49.0576 13.1071 2.71452e-17)
(49.0113 13.0872 0)
(48.9636 13.0657 -1.6359e-17)
(48.9144 13.0426 -4.37868e-17)
(48.864 13.0177 -9.34947e-18)
(48.8106 13.0009 -3.34909e-21)
(49.6771 13.2615 -7.96382e-16)
(49.6615 13.2691 -5.36159e-17)
(49.6527 13.2822 -2.4405e-18)
(49.6308 13.2759 3.43816e-16)
(49.6083 13.2719 0)
(49.5856 13.2701 -2.3206e-16)
(49.5605 13.2666 3.18699e-16)
(49.5337 13.2623 3.43369e-16)
(49.5054 13.2576 0)
(49.4757 13.2521 -1.78986e-16)
(49.4445 13.2458 -2.40911e-16)
(49.4119 13.2386 5.29573e-17)
(49.3779 13.2304 2.53618e-16)
(49.3426 13.2213 3.10172e-17)
(49.3058 13.2111 3.36032e-17)
(49.2677 13.1999 7.16001e-17)
(49.2282 13.1875 1.15196e-16)
(49.1873 13.1739 -2.3086e-16)
(49.145 13.159 -1.59495e-16)
(49.1013 13.1429 -4.89715e-19)
(49.0562 13.1253 0)
(49.0097 13.1063 4.41127e-17)
(48.9617 13.0858 -7.99255e-17)
(48.9123 13.0637 5.18433e-17)
(48.8614 13.0398 -2.84494e-17)
(48.8093 13.0142 -1.55264e-17)
(48.7542 12.997 1.9557e-19)
(49.6788 13.2667 4.59067e-18)
(49.6624 13.274 3.64372e-16)
(49.6534 13.2871 -8.43835e-16)
(49.6316 13.2819 -2.30735e-16)
(49.6089 13.2785 1.85527e-16)
(49.5862 13.2773 0)
(49.561 13.2744 -3.56322e-16)
(49.5341 13.2707 -2.38276e-18)
(49.5058 13.2666 0)
(49.476 13.2617 0)
(49.4447 13.256 2.41553e-16)
(49.412 13.2494 5.10627e-17)
(49.3779 13.242 1.68405e-16)
(49.3425 13.2336 3.09024e-17)
(49.3056 13.2242 1.13823e-18)
(49.2674 13.2137 -3.503e-17)
(49.2277 13.2021 -3.88972e-17)
(49.1867 13.1893 6.34925e-17)
(49.1442 13.1753 6.88515e-17)
(49.1004 13.16 -1.23298e-16)
(49.0551 13.1433 -7.97045e-17)
(49.0083 13.1253 -5.84628e-17)
(48.9601 13.1057 4.74065e-17)
(48.9105 13.0846 -5.19138e-17)
(48.8594 13.0618 3.76335e-17)
(48.8067 13.0372 1.02443e-17)
(48.7528 13.0109 5.47207e-18)
(48.6958 12.993 -2.11514e-19)
(49.6804 13.2716 4.02092e-16)
(49.6634 13.2786 -4.2127e-16)
(49.6541 13.2918 5.67336e-17)
(49.6323 13.2876 -5.834e-17)
(49.6096 13.2849 -1.85598e-16)
(49.5868 13.2842 6.69708e-17)
(49.5616 13.282 0)
(49.5346 13.2789 -5.34295e-16)
(49.5062 13.2754 0)
(49.4764 13.2711 -1.31566e-16)
(49.445 13.2661 -4.86813e-17)
(49.4123 13.2602 -5.09028e-17)
(49.3781 13.2534 -4.75734e-16)
(49.3425 13.2457 0)
(49.3056 13.2371 -3.2215e-17)
(49.2672 13.2273 -3.48949e-17)
(49.2275 13.2165 -1.54334e-16)
(49.1863 13.2045 1.67373e-16)
(49.1437 13.1914 -2.22496e-17)
(49.0996 13.177 2.50426e-17)
(49.0542 13.1612 2.40758e-16)
(49.0072 13.1441 5.76705e-17)
(48.9588 13.1254 6.2925e-17)
(48.9089 13.1053 1.71543e-16)
(48.8575 13.0835 -5.54681e-17)
(48.8047 13.06 0)
(48.7502 13.0347 0)
(48.6945 13.0076 -1.20329e-17)
(48.6356 12.9892 -1.17164e-19)
(49.682 13.2762 3.47354e-16)
(49.6644 13.2831 0)
(49.6548 13.2963 4.24435e-16)
(49.6331 13.2932 -5.13381e-16)
(49.6103 13.2912 -1.63835e-18)
(49.5874 13.291 1.68537e-18)
(49.5622 13.2894 -1.05776e-16)
(49.5352 13.287 4.12494e-17)
(49.5068 13.2841 -8.21091e-17)
(49.4769 13.2804 5.74882e-16)
(49.4455 13.276 9.46035e-17)
(49.4126 13.2708 5.07514e-17)
(49.3784 13.2647 2.23766e-16)
(49.3428 13.2578 6.03487e-17)
(49.3057 13.2498 0)
(49.2673 13.2408 3.59996e-17)
(49.2274 13.2308 3.90243e-17)
(49.1861 13.2197 0)
(49.1433 13.2073 0)
(49.0992 13.1938 -1.225e-16)
(49.0535 13.1789 -2.38643e-16)
(49.0064 13.1627 -2.88684e-16)
(48.9578 13.145 -1.57239e-16)
(48.9077 13.1259 -3.26276e-19)
(48.856 13.1051 5.61512e-17)
(48.8029 13.0827 7.46482e-19)
(48.7482 13.0585 0)
(48.6919 13.0324 -2.1004e-19)
(48.6342 13.0044 0)
(48.5734 12.9854 -9.16954e-21)
(49.6835 13.2805 3.79541e-17)
(49.6654 13.2873 -3.65193e-16)
(49.6555 13.3006 5.39924e-17)
(49.634 13.2985 4.6078e-16)
(49.6111 13.2972 3.08019e-16)
(49.5881 13.2976 -1.30305e-16)
(49.5629 13.2967 -6.97204e-17)
(49.5359 13.2948 4.0122e-17)
(49.5074 13.2926 -8.19233e-17)
(49.4775 13.2896 -6.62299e-16)
(49.446 13.2858 -9.68595e-17)
(49.4131 13.2813 5.0608e-17)
(49.3789 13.2759 0)
(49.3431 13.2696 3.0586e-17)
(49.306 13.2624 -2.91204e-16)
(49.2675 13.2542 -3.58699e-17)
(49.2275 13.245 1.53493e-16)
(49.1861 13.2346 -2.05665e-16)
(49.1432 13.2231 -2.24713e-16)
(49.0989 13.2104 9.77268e-17)
(49.0531 13.1965 1.32079e-16)
(49.0058 13.1812 1.15216e-16)
(48.957 13.1645 1.55855e-16)
(48.9067 13.1463 -1.53012e-16)
(48.8548 13.1265 7.36215e-17)
(48.8014 13.1052 0)
(48.7464 13.082 4.44042e-17)
(48.6898 13.0571 -5.95952e-17)
(48.6316 13.0302 1.27252e-17)
(48.572 13.0013 -1.40897e-17)
(48.5092 12.9817 2.62638e-19)
(49.6851 13.2845 -3.9965e-16)
(49.6665 13.2914 4.22415e-16)
(49.6563 13.3048 -4.22346e-16)
(49.6348 13.3037 -1.14495e-16)
(49.6119 13.303 -1.85271e-16)
(49.5888 13.304 1.99152e-16)
(49.5636 13.3037 -6.96225e-17)
(49.5366 13.3025 2.74025e-18)
(49.5081 13.3009 3.25228e-16)
(49.4782 13.2986 7.47401e-16)
(49.4467 13.2955 -2.38979e-16)
(49.4138 13.2916 -1.53707e-16)
(49.3795 13.2869 0)
(49.3437 13.2814 -3.04893e-17)
(49.3065 13.2749 2.28427e-16)
(49.2679 13.2674 2.7975e-16)
(49.2278 13.259 -1.15265e-16)
(49.1863 13.2495 2.60446e-18)
(49.1433 13.2388 1.79431e-16)
(49.0989 13.227 4.76829e-17)
(49.0529 13.2139 0)
(49.0054 13.1995 1.43176e-16)
(48.9565 13.1837 0)
(48.9059 13.1665 6.76973e-17)
(48.8538 13.1478 3.63652e-17)
(48.8002 13.1275 7.96441e-17)
(48.7449 13.1054 -1.5233e-16)
(48.6881 13.0816 2.41541e-17)
(48.6296 13.0559 -4.76868e-19)
(48.5694 13.0281 2.8333e-17)
(48.5078 12.9983 -7.78576e-18)
(48.4429 12.9781 0)
(49.6866 13.2882 0)
(49.6676 13.2952 0)
(49.6571 13.3087 4.26228e-16)
(49.6357 13.3086 0)
(49.6127 13.3086 1.22972e-16)
(49.5896 13.3102 -6.50097e-17)
(49.5644 13.3106 -3.57568e-17)
(49.5374 13.3101 2.83435e-18)
(49.5089 13.3091 -6.10597e-16)
(49.479 13.3074 -3.19399e-18)
(49.4475 13.3049 4.81529e-17)
(49.4145 13.3018 5.2116e-17)
(49.3802 13.2978 -2.19998e-16)
(49.3444 13.2929 -3.03959e-17)
(49.3071 13.2872 2.89246e-16)
(49.2684 13.2805 -5.59725e-16)
(49.2283 13.2729 -3.85997e-17)
(49.1867 13.2641 2.06731e-16)
(49.1436 13.2543 1.59465e-18)
(49.099 13.2433 -2.46183e-17)
(49.0529 13.2312 2.67206e-17)
(49.0053 13.2177 -1.14222e-16)
(48.9562 13.2029 1.1324e-18)
(48.9055 13.1866 -1.68256e-16)
(48.8532 13.1689 -7.32295e-17)
(48.7993 13.1496 -1.78323e-16)
(48.7438 13.1286 8.65865e-17)
(48.6866 13.1059 2.30829e-17)
(48.6278 13.0813 1.30364e-17)
(48.5673 13.0548 6.92632e-17)
(48.5051 13.0262 -1.49013e-17)
(48.4414 12.9954 8.11905e-18)
(48.3744 12.9744 0)
(49.6882 13.2917 4.41855e-16)
(49.6687 13.2989 -5.17748e-17)
(49.6579 13.3125 -4.23091e-16)
(49.6366 13.3134 0)
(49.6136 13.3141 -6.22321e-17)
(49.5904 13.3163 -6.4942e-17)
(49.5653 13.3173 0)
(49.5383 13.3175 3.79566e-16)
(49.5098 13.3171 3.11068e-18)
(49.4798 13.3161 -7.43999e-16)
(49.4484 13.3143 0)
(49.4154 13.3118 1.54663e-16)
(49.381 13.3085 1.65248e-16)
(49.3452 13.3044 0)
(49.3079 13.2994 -5.165e-16)
(49.2692 13.2935 2.24561e-18)
(49.229 13.2866 3.84701e-17)
(49.1873 13.2787 2.03357e-16)
(49.1441 13.2697 -4.36254e-17)
(49.0994 13.2596 1.73479e-18)
(49.0532 13.2483 -2.09178e-16)
(49.0055 13.2357 -2.78594e-17)
(48.9562 13.2218 0)
(48.9053 13.2066 -3.20745e-17)
(48.8528 13.1898 -1.09254e-16)
(48.7987 13.1716 4.2241e-19)
(48.7429 13.1517 0)
(48.6855 13.1301 -1.17054e-16)
(48.6264 13.1066 0)
(48.5656 13.0813 -1.38397e-16)
(48.503 13.0539 1.53606e-17)
(48.4387 13.0244 -4.94984e-17)
(48.3729 12.9926 9.11703e-18)
(48.3036 12.9709 3.44686e-19)
(49.6896 13.295 -4.0288e-16)
(49.6699 13.3025 -1.04894e-16)
(49.6587 13.3161 9.0472e-16)
(49.6375 13.3179 -5.81025e-17)
(49.6145 13.3194 -6.21646e-17)
(49.5913 13.3222 3.25781e-16)
(49.5662 13.3239 -3.5641e-17)
(49.5392 13.3247 0)
(49.5108 13.3249 3.27528e-16)
(49.4808 13.3246 3.51366e-16)
(49.4494 13.3235 0)
(49.4164 13.3217 -2.5421e-16)
(49.382 13.3191 0)
(49.3462 13.3157 5.84396e-17)
(49.3089 13.3114 2.58052e-16)
(49.2701 13.3063 3.13469e-16)
(49.2298 13.3002 0)
(49.1881 13.2931 -2.0392e-16)
(49.1448 13.2849 -1.76222e-16)
(49.1001 13.2757 -1.91145e-16)
(49.0537 13.2652 3.65132e-16)
(49.0058 13.2536 -1.02907e-18)
(48.9564 13.2407 0)
(48.9053 13.2264 1.67544e-16)
(48.8526 13.2106 1.45124e-16)
(48.7983 13.1934 7.88518e-17)
(48.7423 13.1746 2.17867e-17)
(48.6846 13.154 1.85919e-16)
(48.6253 13.1317 2.48371e-17)
(48.5641 13.1076 2.515e-19)
(48.5013 13.0814 4.52395e-17)
(48.4366 13.0531 -1.58857e-17)
(48.3701 13.0226 1.74502e-17)
(48.3021 12.9898 -9.50878e-18)
(48.2306 12.9673 -3.59232e-19)
(49.6911 13.2981 -9.27541e-17)
(49.671 13.3058 5.23358e-16)
(49.6596 13.3196 -3.73869e-16)
(49.6385 13.3223 4.553e-16)
(49.6154 13.3245 6.0582e-17)
(49.5923 13.3279 -1.98528e-16)
(49.5672 13.3303 -7.11771e-17)
(49.5402 13.3317 -1.08079e-18)
(49.5118 13.3326 0)
(49.4819 13.3329 -8.73179e-17)
(49.4505 13.3325 4.78047e-17)
(49.4176 13.3314 4.57482e-16)
(49.3832 13.3295 5.39413e-17)
(49.3473 13.3268 0)
(49.31 13.3233 0)
(49.2712 13.3189 0)
(49.2309 13.3136 0)
(49.1891 13.3073 0)
(49.1457 13.3 3.52596e-16)
(49.1009 13.2916 1.91894e-16)
(49.0545 13.282 -2.08128e-16)
(49.0065 13.2713 0)
(48.9569 13.2593 1.51746e-16)
(48.9056 13.246 -1.32215e-16)
(48.8528 13.2313 -3.53894e-17)
(48.7983 13.215 -3.98959e-17)
(48.742 13.1973 2.16821e-17)
(48.6841 13.1778 -2.07706e-16)
(48.6245 13.1567 0)
(48.563 13.1337 5.48484e-17)
(48.4998 13.1087 5.94091e-17)
(48.4348 13.0817 -8.05556e-17)
(48.368 13.0525 1.7988e-17)
(48.2993 13.021 9.79707e-18)
(48.229 12.9871 0)
(48.1551 12.9638 -4.03034e-19)
(49.6925 13.3009 0)
(49.6722 13.309 -3.70194e-16)
(49.6604 13.323 3.69977e-16)
(49.6395 13.3266 -4.6002e-16)
(49.6164 13.3295 -4.88333e-16)
(49.5933 13.3335 0)
(49.5682 13.3365 7.10852e-17)
(49.5413 13.3386 4.11732e-16)
(49.513 13.3402 -2.81913e-16)
(49.4831 13.3411 0)
(49.4517 13.3414 -1.47491e-18)
(49.4188 13.341 -2.53316e-16)
(49.3844 13.3398 1.80064e-18)
(49.3486 13.3378 1.75023e-16)
(49.3113 13.335 0)
(49.2724 13.3314 -2.40054e-16)
(49.2321 13.3269 2.98063e-16)
(49.1902 13.3214 1.61465e-16)
(49.1469 13.3149 -1.76447e-16)
(49.1019 13.3074 0)
(49.0554 13.2987 -5.26503e-17)
(49.0073 13.2889 -1.94841e-16)
(48.9576 13.2778 -9.1106e-17)
(48.9062 13.2655 9.88941e-17)
(48.8532 13.2517 -1.06454e-16)
(48.7985 13.2365 0)
(48.7421 13.2198 -1.27285e-16)
(48.6839 13.2015 1.36831e-18)
(48.624 13.1814 2.55096e-17)
(48.5623 13.1596 -1.08582e-16)
(48.4988 13.1359 -1.18425e-16)
(48.4334 13.1101 6.45835e-17)
(48.3662 13.0822 1.72278e-17)
(48.2972 13.0521 -9.49884e-17)
(48.2261 13.0195 -1.02177e-17)
(48.1535 12.9845 0)
(48.0772 12.9602 8.55703e-19)
(49.6939 13.3036 -4.41417e-17)
(49.6734 13.3121 0)
(49.6613 13.3262 -7.98963e-16)
(49.6405 13.3306 -4.5467e-16)
(49.6175 13.3343 4.9344e-16)
(49.5943 13.3389 0)
(49.5693 13.3426 0)
(49.5425 13.3454 -3.3813e-16)
(49.5142 13.3476 2.43889e-16)
(49.4844 13.3492 4.41419e-17)
(49.453 13.3501 0)
(49.4202 13.3504 4.51616e-16)
(49.3858 13.3499 0)
(49.35 13.3487 -5.89258e-16)
(49.3127 13.3466 6.26838e-17)
(49.2738 13.3438 -3.25275e-17)
(49.2335 13.34 -3.93908e-17)
(49.1916 13.3353 -4.84285e-16)
(49.1482 13.3297 1.74447e-16)
(49.1032 13.323 1.40765e-16)
(49.0566 13.3152 -5.24759e-17)
(49.0084 13.3063 5.01809e-16)
(48.9585 13.2962 -2.97863e-17)
(48.907 13.2848 -6.58741e-17)
(48.8539 13.272 3.60631e-17)
(48.799 13.2579 -3.81288e-17)
(48.7423 13.2422 1.03571e-18)
(48.684 13.225 1.83282e-16)
(48.6238 13.206 -2.4466e-17)
(48.5618 13.1854 1.9003e-16)
(48.498 13.1628 5.90513e-17)
(48.4323 13.1383 -6.39259e-17)
(48.3648 13.1117 0)
(48.2953 13.0829 7.60714e-17)
(48.224 13.0517 0)
(48.1506 13.0181 0)
(48.0755 12.9819 0)
(47.9966 12.9566 -4.61335e-19)
(49.6953 13.3061 -3.44797e-16)
(49.6745 13.315 0)
(49.6622 13.3293 4.833e-16)
(49.6415 13.3346 4.03382e-16)
(49.6185 13.3389 -4.25447e-16)
(49.5954 13.3442 6.615e-17)
(49.5705 13.3485 2.77887e-16)
(49.5437 13.3519 0)
(49.5155 13.3548 -3.97507e-17)
(49.4857 13.3571 4.27475e-17)
(49.4544 13.3587 2.78154e-16)
(49.4216 13.3597 -4.05231e-16)
(49.3873 13.3599 -2.16437e-16)
(49.3515 13.3594 -5.7412e-17)
(49.3142 13.3581 3.1543e-16)
(49.2754 13.356 2.41311e-16)
(49.235 13.353 -2.62472e-16)
(49.1931 13.3491 3.2386e-16)
(49.1497 13.3443 -1.52957e-18)
(49.1046 13.3385 -1.90143e-16)
(49.058 13.3316 5.04477e-17)
(49.0097 13.3236 -1.68874e-16)
(48.9597 13.3144 -2.40753e-16)
(48.9081 13.3039 9.72509e-17)
(48.8548 13.2922 -3.17857e-19)
(48.7997 13.279 -1.54117e-16)
(48.7429 13.2644 1.25697e-16)
(48.6843 13.2483 9.04095e-17)
(48.6239 13.2305 -9.88808e-17)
(48.5617 13.211 -1.08105e-16)
(48.4976 13.1896 0)
(48.4316 13.1663 1.27491e-16)
(48.3637 13.141 -1.76738e-17)
(48.2939 13.1135 0)
(48.2221 13.0837 0)
(48.1483 13.0515 2.27945e-17)
(48.0725 13.0167 -2.43116e-17)
(47.9949 12.9793 -6.76327e-18)
(47.9135 12.9531 0)
(49.6966 13.3084 3.94495e-16)
(49.6757 13.3178 0)
(49.6631 13.3323 -4.78831e-16)
(49.6425 13.3383 -5.64058e-17)
(49.6196 13.3434 9.79703e-16)
(49.5965 13.3493 -6.46048e-17)
(49.5717 13.3543 -6.27284e-16)
(49.545 13.3584 2.97771e-16)
(49.5168 13.3619 3.19944e-16)
(49.4872 13.3649 -4.39664e-17)
(49.4559 13.3672 -4.22429e-16)
(49.4232 13.3688 -2.99334e-16)
(49.389 13.3697 2.73455e-16)
(49.3532 13.3699 1.76074e-16)
(49.3159 13.3694 -4.44692e-16)
(49.2771 13.368 0)
(49.2368 13.3659 3.64975e-17)
(49.1949 13.3628 0)
(49.1514 13.3588 4.27816e-17)
(49.1063 13.3538 0)
(49.0596 13.3478 0)
(49.0112 13.3407 5.65675e-17)
(48.9612 13.3324 2.72508e-16)
(48.9094 13.3229 -4.24933e-16)
(48.856 13.3122 1.41095e-16)
(48.8008 13.3001 1.53179e-16)
(48.7438 13.2865 4.2644e-17)
(48.685 13.2714 -1.37706e-16)
(48.6244 13.2547 9.90552e-17)
(48.5619 13.2364 0)
(48.4975 13.2162 2.97355e-17)
(48.4312 13.1942 -1.90122e-16)
(48.363 13.1701 -1.75815e-17)
(48.2928 13.1439 1.12432e-16)
(48.2206 13.1155 -8.14877e-17)
(48.1464 13.0847 -6.70079e-17)
(48.0702 13.0514 1.28062e-17)
(47.9918 13.0155 -1.34323e-17)
(47.9116 12.9767 1.43725e-17)
(47.8276 12.9494 0)
(49.6979 13.3106 0)
(49.6769 13.3204 -3.65286e-16)
(49.6641 13.3351 4.29987e-16)
(49.6436 13.342 -3.39495e-16)
(49.6208 13.3478 -4.92572e-16)
(49.5977 13.3542 -5.84259e-16)
(49.5729 13.3599 2.0984e-16)
(49.5464 13.3647 -3.00924e-16)
(49.5183 13.3689 -3.2321e-16)
(49.4887 13.3725 0)
(49.4576 13.3755 4.58508e-17)
(49.4249 13.3778 8.52072e-16)
(49.3907 13.3794 -5.33152e-17)
(49.355 13.3803 -1.17089e-16)
(49.3178 13.3805 5.68036e-16)
(49.279 13.38 3.48198e-17)
(49.2387 13.3786 0)
(49.1968 13.3763 0)
(49.1533 13.3731 4.26082e-17)
(49.1081 13.369 -2.33644e-16)
(49.0614 13.3639 2.03187e-16)
(49.0129 13.3577 -5.63963e-17)
(48.9628 13.3503 -5.89892e-17)
(48.911 13.3418 2.29582e-16)
(48.8574 13.332 3.47335e-17)
(48.8021 13.3209 -1.41926e-18)
(48.7449 13.3084 4.09449e-17)
(48.686 13.2944 -9.06248e-17)
(48.6251 13.2788 -2.50696e-17)
(48.5624 13.2616 -1.06551e-16)
(48.4978 13.2427 0)
(48.4312 13.2218 1.87115e-18)
(48.3626 13.199 3.49935e-17)
(48.2921 13.1742 1.79642e-17)
(48.2195 13.1471 6.14694e-17)
(48.1449 13.1177 4.42932e-17)
(48.0682 13.0859 3.58864e-17)
(47.9894 13.0514 -6.5132e-17)
(47.9084 13.0143 7.82741e-20)
(47.8256 12.9742 -1.55501e-17)
(47.7388 12.9457 0)
(49.6992 13.3126 -3.38313e-16)
(49.6781 13.3229 8.39405e-16)
(49.665 13.3378 -1.08177e-16)
(49.6447 13.3455 4.59391e-16)
(49.622 13.352 -6.0362e-17)
(49.5989 13.3591 1.042e-15)
(49.5743 13.3654 -2.07856e-16)
(49.5478 13.3708 3.58384e-17)
(49.5198 13.3757 -3.5945e-16)
(49.4903 13.3799 0)
(49.4593 13.3836 3.69233e-16)
(49.4267 13.3866 -4.02847e-16)
(49.3926 13.3889 0)
(49.357 13.3906 0)
(49.3198 13.3915 -1.27409e-16)
(49.281 13.3917 2.71447e-16)
(49.2407 13.3911 -3.30139e-16)
(49.1988 13.3897 4.07212e-17)
(49.1553 13.3873 -5.18834e-16)
(49.1102 13.384 1.42472e-16)
(49.0634 13.3798 -1.84798e-18)
(49.0149 13.3745 0)
(48.9647 13.3681 2.66696e-16)
(48.9128 13.3605 0)
(48.8591 13.3517 0)
(48.8036 13.3416 3.89958e-17)
(48.7463 13.3302 2.06336e-16)
(48.6872 13.3172 0)
(48.6262 13.3028 7.31041e-17)
(48.5632 13.2867 2.68199e-17)
(48.4983 13.2689 1.15325e-16)
(48.4315 13.2493 2.51447e-16)
(48.3626 13.2278 -3.35649e-17)
(48.2917 13.2042 -1.79498e-17)
(48.2188 13.1785 0)
(48.1438 13.1505 -2.2402e-17)
(48.0666 13.1201 -7.20974e-17)
(47.9874 13.0872 2.61126e-17)
(47.906 13.0516 4.28334e-17)
(47.8223 13.0131 -3.08877e-17)
(47.7368 12.9716 8.25942e-18)
(47.6472 12.942 0)
(49.7004 13.3145 4.41587e-16)
(49.6793 13.3254 -4.74798e-16)
(49.666 13.3405 -3.70971e-16)
(49.6458 13.3489 -3.9663e-16)
(49.6232 13.3561 0)
(49.6002 13.3637 -5.2393e-16)
(49.5756 13.3707 2.79937e-16)
(49.5493 13.3768 -2.96269e-16)
(49.5214 13.3823 3.61759e-16)
(49.492 13.3873 4.24461e-17)
(49.4611 13.3916 -4.58147e-18)
(49.4286 13.3953 0)
(49.3946 13.3983 0)
(49.359 13.4007 2.31542e-16)
(49.3219 13.4024 2.503e-16)
(49.2832 13.4033 -3.40704e-16)
(49.243 13.4035 2.96197e-16)
(49.2011 13.4029 -4.0618e-17)
(49.1576 13.4013 3.04819e-16)
(49.1125 13.3989 -2.34009e-16)
(49.0656 13.3955 -2.55622e-16)
(49.0171 13.3911 0)
(48.9669 13.3857 -3.25057e-17)
(48.9149 13.3791 3.18094e-17)
(48.8611 13.3713 2.79903e-16)
(48.8055 13.3622 0)
(48.748 13.3518 -1.64674e-16)
(48.6887 13.3399 0)
(48.6275 13.3266 0)
(48.5644 13.3116 5.33276e-17)
(48.4992 13.295 -1.15592e-16)
(48.4321 13.2767 -1.57502e-16)
(48.363 13.2564 1.70369e-16)
(48.2917 13.2341 -2.2169e-16)
(48.2185 13.2098 -1.97511e-17)
(48.143 13.1832 2.22884e-17)
(48.0655 13.1542 7.10452e-17)
(47.9858 13.1227 5.18029e-17)
(47.9039 13.0887 1.38365e-17)
(47.8198 13.0518 -1.50641e-17)
(47.7334 13.0119 1.64063e-17)
(47.6451 12.969 -9.07821e-18)
(47.5525 12.9381 0)
(49.7016 13.3163 -4.50358e-17)
(49.6805 13.3276 -5.19874e-16)
(49.667 13.343 4.30815e-16)
(49.6469 13.3521 3.44918e-16)
(49.6244 13.36 0)
(49.6015 13.3683 6.57677e-17)
(49.5771 13.3759 0)
(49.5508 13.3826 3.98757e-18)
(49.5231 13.3888 0)
(49.4938 13.3944 0)
(49.463 13.3994 -3.72382e-16)
(49.4306 13.4038 3.4567e-16)
(49.3967 13.4076 0)
(49.3612 13.4107 -2.3376e-16)
(49.3242 13.4131 -5.02282e-16)
(49.2856 13.4148 0)
(49.2454 13.4157 0)
(49.2035 13.4159 3.16527e-16)
(49.1601 13.4152 3.41359e-16)
(49.1149 13.4137 3.73489e-16)
(49.0681 13.4111 3.02754e-16)
(49.0195 13.4076 -2.20467e-16)
(48.9692 13.4031 -2.39139e-16)
(48.9172 13.3975 2.88844e-16)
(48.8633 13.3906 -5.6046e-16)
(48.8076 13.3826 0)
(48.75 13.3732 0)
(48.6906 13.3624 -2.22565e-16)
(48.6292 13.3502 -1.9392e-16)
(48.5658 13.3364 2.10636e-16)
(48.5004 13.321 2.81931e-17)
(48.4331 13.3038 -3.17902e-17)
(48.3636 13.2848 -1.02651e-16)
(48.2921 13.2638 2.21112e-18)
(48.2185 13.2408 0)
(48.1427 13.2156 2.21822e-17)
(48.0647 13.1881 -2.3248e-17)
(47.9846 13.1581 -1.02718e-16)
(47.9022 13.1255 -8.34037e-17)
(47.8176 13.0902 0)
(47.7307 13.0521 5.00188e-17)
(47.6415 13.0108 -1.81863e-17)
(47.5503 12.9664 0)
(47.4548 12.9341 5.75936e-21)
(49.7027 13.3179 0)
(49.6817 13.3298 3.70015e-16)
(49.6679 13.3454 -3.71006e-16)
(49.6481 13.3553 0)
(49.6257 13.3638 5.44314e-16)
(49.6029 13.3727 -6.56901e-17)
(49.5786 13.381 -1.0374e-16)
(49.5524 13.3884 2.61678e-16)
(49.5248 13.3952 0)
(49.4957 13.4015 -2.97226e-16)
(49.465 13.4071 0)
(49.4327 13.4122 -4.00602e-16)
(49.3989 13.4167 5.28676e-17)
(49.3635 13.4205 0)
(49.3266 13.4237 2.52084e-16)
(49.2881 13.4261 0)
(49.2479 13.4278 0)
(49.2061 13.4288 -3.19206e-16)
(49.1627 13.4289 -3.67881e-18)
(49.1176 13.4282 -1.41472e-16)
(49.0707 13.4266 -4.03836e-16)
(49.0222 13.424 1.66199e-16)
(48.9718 13.4204 1.18831e-16)
(48.9197 13.4157 -2.33014e-18)
(48.8658 13.4099 2.43731e-18)
(48.81 13.4028 0)
(48.7523 13.3945 0)
(48.6927 13.3848 1.79371e-16)
(48.6311 13.3737 1.45273e-16)
(48.5675 13.361 -2.11417e-16)
(48.502 13.3468 -1.14016e-16)
(48.4344 13.3308 -3.16753e-17)
(48.3647 13.313 1.67742e-16)
(48.2928 13.2934 1.47149e-16)
(48.2189 13.2717 -1.57509e-16)
(48.1427 13.2478 2.20845e-17)
(48.0644 13.2217 -2.3138e-17)
(47.9838 13.1932 7.65882e-17)
(47.901 13.1622 5.58418e-17)
(47.8158 13.1285 6.04817e-17)
(47.7284 13.0919 3.27753e-17)
(47.6387 13.0524 -1.79439e-17)
(47.5466 13.0097 9.60238e-18)
(47.4524 12.9637 1.08448e-17)
(47.3538 12.9299 0)
(49.7038 13.3195 0)
(49.6829 13.3319 5.177e-17)
(49.6689 13.3478 4.85276e-16)
(49.6492 13.3583 0)
(49.627 13.3675 -4.90725e-16)
(49.6043 13.377 0)
(49.5801 13.3859 -2.06537e-16)
(49.5541 13.3939 7.42885e-17)
(49.5266 13.4014 -1.10203e-18)
(49.4976 13.4083 4.81817e-17)
(49.467 13.4147 1.39264e-18)
(49.4349 13.4205 0)