/*--------------------------------*- C++ -*----------------------------------*\
  =========                 |
  \\      /  F ield         | OpenFOAM: The Open Source CFD Toolbox
   \\    /   O peration     | Website:  https://openfoam.org
    \\  /    A nd           | Version:  7
     \\/     M anipulation  |
\*---------------------------------------------------------------------------*/
FoamFile
{
    version     2.0;
    format      ascii;
    class       volScalarField;
    location    "1400";
    object      yPlus;
}
// * * * * * * * * * * * * * * * * * * * * * * * * * * * * * * * * * * * * * //

dimensions      [0 0 0 0 0 0 0];

internalField   uniform 0;

boundaryField
{
    inlet-l
    {
        type            calculated;
        value           uniform 0;
    }
    airfoil-l1
    {
        type            calculated;
        value           nonuniform List<scalar> 
107
(
32.2093
31.4655
30.4557
29.253
27.9378
26.5772
25.2235
23.9125
22.6672
21.4969
20.4064
19.3903
18.437
17.5486
16.7174
15.9265
15.1614
14.426
13.719
13.0586
12.4619
11.9095
11.386
10.8837
10.4004
9.93558
9.4841
9.0461
8.61676
8.18804
7.76239
7.33221
6.89081
6.44062
5.97213
5.47978
4.95266
4.37417
3.71978
2.93583
1.86343
1.2659
2.57864
3.42249
4.09669
4.67489
5.19028
5.6623
6.1009
6.51346
6.90287
7.27724
7.63666
7.98289
8.32047
8.64849
8.96948
9.28747
9.60207
9.91172
10.2202
10.5271
10.8353
11.144
11.4563
11.775
12.0995
12.4374
12.7868
13.1401
13.4977
13.843
14.1764
14.4929
14.8016
15.0947
15.3758
15.6494
15.9162
16.1751
16.4253
16.6719
16.9114
17.1443
17.3752
17.6021
17.8189
18.0325
18.2427
18.4458
18.6468
18.8411
19.0308
19.2128
19.3888
19.5646
19.7305
19.8918
20.0477
20.1995
20.3416
20.4785
20.6096
20.7349
20.8535
20.9602
21.065
)
;
    }
    empty-1
    {
        type            empty;
    }
    empty-2
    {
        type            empty;
    }
    wall-l1
    {
        type            calculated;
        value           nonuniform 0();
    }
    airfoil-l2
    {
        type            calculated;
        value           uniform 21.3053;
    }
    empty-3
    {
        type            empty;
    }
    empty-4
    {
        type            empty;
    }
    wall-l2
    {
        type            calculated;
        value           nonuniform 0();
    }
    outlet-l
    {
        type            calculated;
        value           nonuniform 0();
    }
    empty-5
    {
        type            empty;
    }
    empty-6
    {
        type            empty;
    }
    outlet-h
    {
        type            calculated;
        value           nonuniform 0();
    }
    wall-h2
    {
        type            calculated;
        value           nonuniform 0();
    }
    empty-7
    {
        type            empty;
    }
    empty-8
    {
        type            empty;
    }
    airfoil-h2
    {
        type            calculated;
        value           nonuniform 0();
    }
    wall-h1
    {
        type            calculated;
        value           nonuniform 0();
    }
    empty-9
    {
        type            empty;
    }
    empty-10
    {
        type            empty;
    }
    inlet-h
    {
        type            calculated;
        value           uniform 0;
    }
    airfoil-h1
    {
        type            calculated;
        value           nonuniform List<scalar> 
16
(
32.6839
32.9698
33.0403
32.8176
32.3703
31.7963
31.1755
30.5561
29.9537
29.3798
28.8535
28.3729
27.9286
27.5245
27.1582
26.827
)
;
    }
    empty-11
    {
        type            empty;
    }
    empty-12
    {
        type            empty;
    }
    procBoundary0to1
    {
        type            processor;
        value           uniform 0;
    }
    procBoundary0to3
    {
        type            processor;
        value           uniform 0;
    }
}


// ************************************************************************* //
