# Residuals   
# Time        	p             	Ux            	Uy            
0             	N/A	N/A
1             	1.000000e+00	1.000000e+00	1.000000e+00
2             	5.281695e-01	1.639756e-01	1.408585e-01
3             	9.083571e-01	1.107149e-02	7.423109e-03
4             	2.334116e-01	4.670200e-03	3.783422e-03
5             	3.531215e-01	2.818505e-02	3.891649e-02
6             	2.991824e-01	5.528896e-02	1.501761e-02
7             	5.622737e-01	3.001644e-02	5.786342e-02
8             	4.309898e-01	1.608101e-02	1.244342e-02
9             	3.579226e-01	4.771266e-03	3.794193e-03
10            	3.304594e-01	5.875998e-03	6.778607e-03
11            	2.450776e-01	7.587693e-03	1.589079e-02
12            	1.728338e-01	4.179895e-03	9.891524e-03
13            	4.034416e-01	5.558159e-03	8.394006e-03
14            	5.871565e-01	4.332948e-03	4.749266e-03
15            	6.739598e-01	2.358631e-03	3.205929e-03
16            	3.296759e-01	3.205487e-03	5.045445e-03
17            	1.746300e-01	2.769675e-03	4.335834e-03
18            	1.487158e-01	1.977825e-03	3.704450e-03
19            	2.241439e-01	2.127374e-03	3.527524e-03
20            	3.127766e-01	1.601173e-03	2.759692e-03
21            	3.316262e-01	1.494549e-03	2.645654e-03
22            	2.105021e-01	1.489129e-03	2.749436e-03
23            	1.152193e-01	1.257796e-03	2.441664e-03
24            	1.181613e-01	1.216298e-03	2.388638e-03
25            	1.353954e-01	1.144308e-03	2.232246e-03
26            	1.547695e-01	1.042548e-03	2.092929e-03
27            	1.550061e-01	1.038272e-03	2.128565e-03
28            	1.050946e-01	9.934936e-04	2.076396e-03
29            	7.806091e-02	9.578694e-04	1.999626e-03
30            	8.003421e-02	9.407865e-04	1.972149e-03
31            	8.027749e-02	9.147751e-04	1.918184e-03
32            	8.224187e-02	8.964825e-04	1.896174e-03
33            	7.767281e-02	8.811629e-04	1.900248e-03
34            	6.337266e-02	8.628096e-04	1.873847e-03
35            	5.654386e-02	8.498056e-04	1.861850e-03
36            	5.374664e-02	8.449179e-04	1.849899e-03
37            	5.138468e-02	8.379701e-04	1.830779e-03
38            	5.065575e-02	8.301384e-04	1.820221e-03
39            	4.670240e-02	8.199919e-04	1.809645e-03
40            	4.209502e-02	8.121602e-04	1.809862e-03
41            	3.968269e-02	8.066247e-04	1.808726e-03
42            	3.685977e-02	8.044395e-04	1.796127e-03
43            	3.490319e-02	8.022404e-04	1.785117e-03
44            	3.374036e-02	7.962276e-04	1.777682e-03
45            	3.180416e-02	7.894626e-04	1.782729e-03
46            	2.998238e-02	7.844929e-04	1.785664e-03
47            	2.832579e-02	7.826676e-04	1.777681e-03
48            	2.652485e-02	7.819144e-04	1.764436e-03
49            	2.526197e-02	7.791363e-04	1.753283e-03
50            	2.423795e-02	7.747728e-04	1.752234e-03
51            	2.310506e-02	7.707076e-04	1.752365e-03
52            	2.211933e-02	7.677026e-04	1.745367e-03
53            	2.109920e-02	7.647709e-04	1.733898e-03
54            	2.001815e-02	7.615121e-04	1.721474e-03
55            	1.917256e-02	7.578874e-04	1.714408e-03
56            	1.847354e-02	7.539894e-04	1.707339e-03
57            	1.765693e-02	7.497322e-04	1.696511e-03
58            	1.687270e-02	7.446756e-04	1.682840e-03
59            	1.613138e-02	7.388086e-04	1.668508e-03
60            	1.544934e-02	7.322706e-04	1.657966e-03
61            	1.479307e-02	7.259671e-04	1.646989e-03
62            	1.416220e-02	7.197038e-04	1.632288e-03
63            	1.356574e-02	7.126063e-04	1.615939e-03
64            	1.301137e-02	7.043834e-04	1.598564e-03
65            	1.248431e-02	6.954942e-04	1.583751e-03
66            	1.196131e-02	6.868507e-04	1.570415e-03
67            	1.143873e-02	6.783694e-04	1.555629e-03
68            	1.091979e-02	6.696953e-04	1.539068e-03
69            	1.043337e-02	6.604364e-04	1.524432e-03
70            	1.002187e-02	6.509183e-04	1.511854e-03
71            	9.618764e-03	6.416225e-04	1.499916e-03
72            	9.193753e-03	6.326828e-04	1.486600e-03
73            	8.803818e-03	6.232787e-04	1.471787e-03
74            	8.455131e-03	6.135564e-04	1.458061e-03
75            	8.116289e-03	6.038882e-04	1.445502e-03
76            	7.794535e-03	5.944423e-04	1.432186e-03
77            	7.477003e-03	5.850511e-04	1.418948e-03
78            	7.172747e-03	5.754133e-04	1.405634e-03
79            	6.896482e-03	5.654228e-04	1.392972e-03
80            	6.640204e-03	5.553236e-04	1.380403e-03
81            	6.409743e-03	5.452546e-04	1.366563e-03
82            	6.197680e-03	5.351739e-04	1.351511e-03
83            	5.987089e-03	5.251184e-04	1.337136e-03
84            	5.785261e-03	5.147204e-04	1.322700e-03
85            	5.585417e-03	5.042863e-04	1.307760e-03
86            	5.402871e-03	4.939343e-04	1.292407e-03
87            	5.216351e-03	4.835132e-04	1.276765e-03
88            	5.034119e-03	4.729010e-04	1.261478e-03
89            	4.862438e-03	4.621397e-04	1.245111e-03
90            	4.702972e-03	4.513340e-04	1.229247e-03
91            	4.532270e-03	4.405040e-04	1.212495e-03
92            	4.371405e-03	4.296029e-04	1.196988e-03
93            	4.225017e-03	4.186694e-04	1.180810e-03
94            	4.091335e-03	4.076209e-04	1.165743e-03
95            	3.947259e-03	3.966338e-04	1.150218e-03
96            	3.791232e-03	3.859351e-04	1.134927e-03
97            	3.649925e-03	3.755124e-04	1.120387e-03
98            	3.520310e-03	3.653403e-04	1.104930e-03
99            	3.401101e-03	3.553082e-04	1.088352e-03
100           	3.301063e-03	3.456031e-04	1.073509e-03
101           	3.192083e-03	3.363490e-04	1.057192e-03
102           	3.069964e-03	3.274071e-04	1.040127e-03
103           	2.955164e-03	3.190585e-04	1.023111e-03
104           	2.849171e-03	3.110151e-04	1.006356e-03
105           	2.745929e-03	3.031988e-04	9.896101e-04
106           	2.679850e-03	2.957312e-04	9.734276e-04
107           	2.606737e-03	2.886062e-04	9.565946e-04
108           	2.516584e-03	2.820348e-04	9.394782e-04
109           	2.419156e-03	2.756773e-04	9.237886e-04
110           	2.337173e-03	2.695962e-04	9.086062e-04
111           	2.267516e-03	2.637934e-04	8.945517e-04
112           	2.214824e-03	2.582904e-04	8.798669e-04
113           	2.176994e-03	2.529944e-04	8.648958e-04
114           	2.119708e-03	2.479705e-04	8.489900e-04
115           	2.054876e-03	2.431715e-04	8.334126e-04
116           	1.999559e-03	2.384219e-04	8.184359e-04
117           	1.949804e-03	2.335847e-04	8.047608e-04
118           	1.901177e-03	2.286882e-04	7.906646e-04
119           	1.861982e-03	2.237884e-04	7.770073e-04
120           	1.834684e-03	2.189492e-04	7.626027e-04
121           	1.794888e-03	2.142014e-04	7.482529e-04
122           	1.753224e-03	2.094243e-04	7.342128e-04
123           	1.718212e-03	2.045488e-04	7.201573e-04
124           	1.680582e-03	1.996069e-04	7.067548e-04
125           	1.644008e-03	1.947529e-04	6.929822e-04
126           	1.609965e-03	1.901490e-04	6.792033e-04
127           	1.583242e-03	1.858545e-04	6.657703e-04
128           	1.551726e-03	1.818562e-04	6.520169e-04
129           	1.515673e-03	1.781014e-04	6.383905e-04
130           	1.474383e-03	1.744665e-04	6.253898e-04
131           	1.436972e-03	1.709258e-04	6.123701e-04
132           	1.400426e-03	1.674133e-04	5.994529e-04
133           	1.362183e-03	1.639590e-04	5.866102e-04
134           	1.325463e-03	1.605542e-04	5.743060e-04
135           	1.296358e-03	1.572194e-04	5.624838e-04
136           	1.268029e-03	1.539557e-04	5.511435e-04
137           	1.234004e-03	1.507260e-04	5.398022e-04
138           	1.197898e-03	1.475572e-04	5.283992e-04
139           	1.163076e-03	1.444377e-04	5.171566e-04
140           	1.129432e-03	1.413519e-04	5.061010e-04
141           	1.099159e-03	1.383204e-04	4.954641e-04
142           	1.071747e-03	1.353506e-04	4.854415e-04
143           	1.043771e-03	1.324438e-04	4.764434e-04
144           	1.020388e-03	1.296997e-04	4.677670e-04
145           	9.960637e-04	1.271230e-04	4.591418e-04
146           	9.695606e-04	1.246815e-04	4.504820e-04
147           	9.384063e-04	1.223012e-04	4.420304e-04
148           	9.074395e-04	1.199799e-04	4.339571e-04
149           	8.832659e-04	1.177360e-04	4.263482e-04
150           	8.612684e-04	1.156627e-04	4.191928e-04
151           	8.388198e-04	1.137085e-04	4.124546e-04
152           	8.164877e-04	1.118521e-04	4.060044e-04
153           	7.958763e-04	1.100648e-04	3.997267e-04
154           	7.754679e-04	1.083200e-04	3.934919e-04
155           	7.536921e-04	1.066530e-04	3.872803e-04
156           	7.284064e-04	1.050591e-04	3.815157e-04
157           	7.039125e-04	1.035071e-04	3.761487e-04
158           	6.826819e-04	1.020617e-04	3.712749e-04
159           	6.630226e-04	1.006951e-04	3.667830e-04
160           	6.423693e-04	9.938786e-05	3.628135e-04
161           	6.211062e-04	9.815983e-05	3.586797e-04
162           	6.015860e-04	9.700636e-05	3.546161e-04
163           	5.860035e-04	9.591936e-05	3.512940e-04
164           	5.714294e-04	9.488571e-05	3.479296e-04
165           	5.548751e-04	9.387073e-05	3.450413e-04
166           	5.369556e-04	9.290953e-05	3.426056e-04
167           	5.199247e-04	9.199264e-05	3.405403e-04
168           	5.030503e-04	9.112996e-05	3.388901e-04
169           	4.859998e-04	9.030046e-05	3.376080e-04
170           	4.737484e-04	8.952349e-05	3.364820e-04
171           	4.623023e-04	8.874806e-05	3.358051e-04
172           	4.512686e-04	8.796925e-05	3.355269e-04
173           	4.399272e-04	8.714376e-05	3.353292e-04
174           	4.279747e-04	8.627228e-05	3.352598e-04
175           	4.158915e-04	8.535665e-05	3.354245e-04
176           	4.043761e-04	8.439877e-05	3.356521e-04
177           	3.955705e-04	8.341627e-05	3.359998e-04
178           	3.879589e-04	8.241638e-05	3.362581e-04
179           	3.818005e-04	8.139717e-05	3.364380e-04
180           	3.749897e-04	8.032896e-05	3.363945e-04
181           	3.677228e-04	7.922425e-05	3.359998e-04
182           	3.610394e-04	7.810685e-05	3.355284e-04
183           	3.566026e-04	7.698734e-05	3.352325e-04
184           	3.527641e-04	7.585632e-05	3.347211e-04
185           	3.477128e-04	7.472402e-05	3.340800e-04
186           	3.422710e-04	7.357801e-05	3.329187e-04
187           	3.367931e-04	7.243236e-05	3.316744e-04
188           	3.309939e-04	7.129152e-05	3.301970e-04
189           	3.265674e-04	7.015416e-05	3.284879e-04
190           	3.236164e-04	6.903207e-05	3.265461e-04
191           	3.204317e-04	6.790626e-05	3.243262e-04
192           	3.164996e-04	6.679414e-05	3.221831e-04
193           	3.123976e-04	6.569390e-05	3.199288e-04
194           	3.077135e-04	6.460942e-05	3.175292e-04
195           	3.038607e-04	6.352361e-05	3.149392e-04
196           	3.012561e-04	6.246421e-05	3.117568e-04
197           	2.988906e-04	6.140467e-05	3.086047e-04
198           	2.966455e-04	6.037779e-05	3.057923e-04
199           	2.941791e-04	5.938753e-05	3.031508e-04
200           	2.898046e-04	5.847970e-05	3.003786e-04
201           	2.856567e-04	5.762152e-05	2.972965e-04
202           	2.820607e-04	5.680648e-05	2.941097e-04
203           	2.795147e-04	5.601917e-05	2.912082e-04
204           	2.768474e-04	5.524472e-05	2.883912e-04
205           	2.736381e-04	5.449090e-05	2.856051e-04
206           	2.703527e-04	5.375361e-05	2.827035e-04
207           	2.665740e-04	5.304138e-05	2.799670e-04
208           	2.622221e-04	5.237990e-05	2.772210e-04
209           	2.586732e-04	5.176305e-05	2.744570e-04
210           	2.556100e-04	5.118270e-05	2.716538e-04
211           	2.519722e-04	5.062757e-05	2.688705e-04
212           	2.467704e-04	5.008921e-05	2.661417e-04
213           	2.423626e-04	4.957205e-05	2.635242e-04
214           	2.385669e-04	4.908318e-05	2.609357e-04
215           	2.344978e-04	4.861632e-05	2.584312e-04
216           	2.294734e-04	4.818462e-05	2.559447e-04
217           	2.243505e-04	4.778221e-05	2.534696e-04
218           	2.197877e-04	4.741859e-05	2.508712e-04
219           	2.150800e-04	4.709480e-05	2.483266e-04
220           	2.105815e-04	4.680188e-05	2.458514e-04
221           	2.060228e-04	4.652553e-05	2.433540e-04
222           	2.008079e-04	4.626518e-05	2.409565e-04
223           	1.968922e-04	4.602434e-05	2.385656e-04
224           	1.928774e-04	4.579779e-05	2.361785e-04
225           	1.876776e-04	4.557576e-05	2.337259e-04
226           	1.832754e-04	4.533980e-05	2.314255e-04
227           	1.787943e-04	4.509663e-05	2.290349e-04
228           	1.745658e-04	4.486264e-05	2.266248e-04
229           	1.704350e-04	4.463479e-05	2.243387e-04
230           	1.667641e-04	4.440229e-05	2.222066e-04
231           	1.631158e-04	4.415057e-05	2.201670e-04
232           	1.590738e-04	4.388412e-05	2.181226e-04
233           	1.558834e-04	4.361238e-05	2.161479e-04
234           	1.524016e-04	4.333997e-05	2.142895e-04
235           	1.502958e-04	4.306249e-05	2.123300e-04
236           	1.475134e-04	4.277710e-05	2.105046e-04
237           	1.445836e-04	4.248277e-05	2.086323e-04
238           	1.430983e-04	4.218280e-05	2.066889e-04
239           	1.418558e-04	4.188366e-05	2.047021e-04
240           	1.401655e-04	4.157530e-05	2.027750e-04
241           	1.392900e-04	4.126023e-05	2.009356e-04
242           	1.373609e-04	4.094736e-05	1.995884e-04
243           	1.371408e-04	4.063559e-05	1.980240e-04
244           	1.370952e-04	4.032495e-05	1.964346e-04
245           	1.364085e-04	4.000118e-05	1.947165e-04
246           	1.362847e-04	3.967830e-05	1.929618e-04
247           	1.360279e-04	3.936151e-05	1.911757e-04
248           	1.363337e-04	3.904922e-05	1.893369e-04
249           	1.362584e-04	3.873247e-05	1.874043e-04
250           	1.361119e-04	3.841595e-05	1.854430e-04
251           	1.361185e-04	3.809819e-05	1.834323e-04
252           	1.360060e-04	3.778677e-05	1.814087e-04
253           	1.360686e-04	3.749512e-05	1.793505e-04
254           	1.360331e-04	3.721562e-05	1.772369e-04
255           	1.352250e-04	3.694477e-05	1.751242e-04
256           	1.358309e-04	3.668318e-05	1.729298e-04
257           	1.364290e-04	3.643107e-05	1.707601e-04
258           	1.354491e-04	3.619034e-05	1.686533e-04
259           	1.351064e-04	3.595606e-05	1.664517e-04
260           	1.353449e-04	3.572119e-05	1.642379e-04
261           	1.349016e-04	3.548726e-05	1.620391e-04
262           	1.339238e-04	3.525224e-05	1.598385e-04
263           	1.340913e-04	3.501423e-05	1.576858e-04
264           	1.333677e-04	3.477867e-05	1.555278e-04
265           	1.329206e-04	3.454333e-05	1.532399e-04
266           	1.323116e-04	3.429533e-05	1.510218e-04
267           	1.319336e-04	3.404143e-05	1.488242e-04
268           	1.322683e-04	3.378652e-05	1.466512e-04
269           	1.315989e-04	3.353801e-05	1.445007e-04
270           	1.304314e-04	3.328901e-05	1.423199e-04
271           	1.291829e-04	3.302935e-05	1.401607e-04
272           	1.284559e-04	3.275806e-05	1.379632e-04
273           	1.286601e-04	3.249612e-05	1.358009e-04
274           	1.277648e-04	3.223386e-05	1.337153e-04
275           	1.260931e-04	3.196596e-05	1.317203e-04
276           	1.249650e-04	3.169821e-05	1.296071e-04
277           	1.238977e-04	3.142263e-05	1.275179e-04
278           	1.238035e-04	3.114899e-05	1.254615e-04
279           	1.232591e-04	3.086591e-05	1.234993e-04
280           	1.220080e-04	3.059590e-05	1.215009e-04
281           	1.209884e-04	3.034317e-05	1.194464e-04
282           	1.196506e-04	3.009375e-05	1.173723e-04
283           	1.186639e-04	2.984577e-05	1.153407e-04
284           	1.174003e-04	2.959734e-05	1.134030e-04
285           	1.171266e-04	2.936320e-05	1.114311e-04
286           	1.164321e-04	2.913396e-05	1.094935e-04
287           	1.148809e-04	2.890248e-05	1.075765e-04
288           	1.132850e-04	2.866670e-05	1.056748e-04
289           	1.117104e-04	2.843007e-05	1.038143e-04
290           	1.105399e-04	2.820363e-05	1.019386e-04
291           	1.100839e-04	2.798511e-05	1.000878e-04
292           	1.086988e-04	2.776165e-05	9.832740e-05
293           	1.075234e-04	2.752896e-05	9.663331e-05
294           	1.060181e-04	2.729853e-05	9.492869e-05
295           	1.047243e-04	2.707245e-05	9.320059e-05
296           	1.036310e-04	2.685034e-05	9.150039e-05
297           	1.022674e-04	2.662548e-05	8.988761e-05
298           	1.012388e-04	2.639797e-05	8.831456e-05
299           	1.001140e-04	2.616947e-05	8.678733e-05
300           	9.868953e-05	2.594208e-05	8.526879e-05
301           	9.796829e-05	2.571808e-05	8.376438e-05
302           	9.636267e-05	2.551107e-05	8.212320e-05
303           	9.483653e-05	2.531290e-05	8.053171e-05
304           	9.353405e-05	2.511675e-05	7.908784e-05
305           	9.244223e-05	2.492248e-05	7.779016e-05
306           	9.137001e-05	2.473380e-05	7.653828e-05
307           	9.033581e-05	2.455428e-05	7.521792e-05
308           	8.918396e-05	2.437589e-05	7.384936e-05
309           	8.813271e-05	2.419946e-05	7.252341e-05
310           	8.686969e-05	2.402181e-05	7.128817e-05
311           	8.579847e-05	2.384258e-05	7.014392e-05
312           	8.486860e-05	2.366775e-05	6.903046e-05
313           	8.404413e-05	2.349746e-05	6.787162e-05
314           	8.304202e-05	2.333493e-05	6.671345e-05
315           	8.189065e-05	2.317166e-05	6.556706e-05
316           	8.093788e-05	2.300843e-05	6.452307e-05
317           	7.990981e-05	2.284628e-05	6.357961e-05
318           	7.886704e-05	2.268870e-05	6.265693e-05
319           	7.809813e-05	2.253633e-05	6.173630e-05
320           	7.728500e-05	2.238729e-05	6.086542e-05
321           	7.650748e-05	2.223540e-05	6.010739e-05
322           	7.560196e-05	2.207622e-05	5.940012e-05
323           	7.460161e-05	2.192300e-05	5.876880e-05
324           	7.369050e-05	2.177750e-05	5.824870e-05
325           	7.315733e-05	2.163911e-05	5.774538e-05
326           	7.247538e-05	2.150091e-05	5.730657e-05
327           	7.162483e-05	2.136519e-05	5.692382e-05
328           	7.061203e-05	2.123371e-05	5.658497e-05
329           	7.004564e-05	2.111082e-05	5.641545e-05
330           	6.961853e-05	2.099997e-05	5.637074e-05
331           	6.912826e-05	2.089675e-05	5.628893e-05
332           	6.857061e-05	2.078832e-05	5.607498e-05
333           	6.783238e-05	2.067974e-05	5.592353e-05
334           	6.716961e-05	2.057629e-05	5.593558e-05
335           	6.677172e-05	2.047475e-05	5.609652e-05
336           	6.646674e-05	2.037835e-05	5.626056e-05
337           	6.615861e-05	2.028305e-05	5.637648e-05
338           	6.570649e-05	2.018986e-05	5.651947e-05
339           	6.550734e-05	2.008885e-05	5.662086e-05
340           	6.510741e-05	1.999138e-05	5.675625e-05
341           	6.410765e-05	1.989788e-05	5.714814e-05
342           	6.404372e-05	1.981896e-05	5.731753e-05
343           	6.453756e-05	1.973749e-05	5.756167e-05
344           	6.410806e-05	1.965104e-05	5.779278e-05
345           	6.365042e-05	1.957136e-05	5.825843e-05
346           	6.321617e-05	1.950076e-05	5.844757e-05
347           	6.319217e-05	1.943166e-05	5.866633e-05
348           	6.322859e-05	1.936887e-05	5.899902e-05
349           	6.268322e-05	1.930634e-05	5.943227e-05
350           	6.251920e-05	1.925925e-05	5.980589e-05
351           	6.230898e-05	1.921524e-05	6.018897e-05
352           	6.196264e-05	1.917774e-05	6.042645e-05
353           	6.189137e-05	1.913934e-05	6.076818e-05
354           	6.186545e-05	1.909755e-05	6.112979e-05
355           	6.172788e-05	1.906527e-05	6.165005e-05
356           	6.118703e-05	1.903413e-05	6.218320e-05
357           	6.120474e-05	1.901332e-05	6.254805e-05
358           	6.139614e-05	1.898741e-05	6.290436e-05
359           	6.037771e-05	1.895183e-05	6.332115e-05
360           	6.035000e-05	1.892396e-05	6.378498e-05
361           	6.009400e-05	1.890932e-05	6.451047e-05
362           	6.025420e-05	1.889274e-05	6.482542e-05
363           	6.002061e-05	1.887938e-05	6.520298e-05
364           	5.956196e-05	1.887157e-05	6.573565e-05
365           	5.955055e-05	1.886832e-05	6.629949e-05
366           	5.921806e-05	1.887179e-05	6.692299e-05
367           	5.911388e-05	1.888165e-05	6.748208e-05
368           	5.942095e-05	1.889767e-05	6.793830e-05
369           	5.889842e-05	1.890723e-05	6.843133e-05
370           	5.907442e-05	1.892128e-05	6.892228e-05
371           	5.916522e-05	1.893013e-05	6.945555e-05
372           	5.924805e-05	1.894389e-05	6.996407e-05
373           	5.888180e-05	1.895659e-05	7.048263e-05
374           	5.928543e-05	1.897922e-05	7.097378e-05
375           	5.992957e-05	1.899822e-05	7.143867e-05
376           	5.976672e-05	1.900239e-05	7.172916e-05
377           	5.929013e-05	1.900297e-05	7.214092e-05
378           	5.944543e-05	1.901775e-05	7.268237e-05
379           	5.982617e-05	1.904288e-05	7.316214e-05
380           	6.102587e-05	1.906642e-05	7.355898e-05
381           	6.005187e-05	1.906694e-05	7.380676e-05
382           	5.984352e-05	1.906134e-05	7.403382e-05
383           	5.964057e-05	1.906626e-05	7.437716e-05
384           	5.964653e-05	1.908345e-05	7.477001e-05
385           	6.086539e-05	1.910708e-05	7.511841e-05
386           	6.056297e-05	1.911002e-05	7.537844e-05
387           	6.042624e-05	1.910237e-05	7.545890e-05
388           	6.018559e-05	1.910258e-05	7.567135e-05
389           	6.010992e-05	1.911260e-05	7.599829e-05
390           	6.050006e-05	1.911875e-05	7.616876e-05
391           	6.108045e-05	1.912964e-05	7.635683e-05
392           	6.048230e-05	1.912019e-05	7.637345e-05
393           	6.087694e-05	1.911487e-05	7.646192e-05
394           	6.071151e-05	1.911417e-05	7.667757e-05
395           	6.151370e-05	1.912673e-05	7.694873e-05
396           	6.168816e-05	1.912122e-05	7.687904e-05
397           	6.082572e-05	1.910803e-05	7.690035e-05
398           	6.112114e-05	1.911014e-05	7.693237e-05
399           	6.133002e-05	1.910117e-05	7.689153e-05
400           	6.117957e-05	1.910352e-05	7.712049e-05
401           	6.151994e-05	1.909399e-05	7.702442e-05
402           	6.124433e-05	1.909490e-05	7.710110e-05
403           	6.188174e-05	1.909147e-05	7.702975e-05
404           	6.178700e-05	1.907532e-05	7.680253e-05
405           	6.170369e-05	1.907432e-05	7.693987e-05
406           	6.140269e-05	1.906556e-05	7.696528e-05
407           	6.180419e-05	1.906395e-05	7.692402e-05
408           	6.139960e-05	1.905852e-05	7.665804e-05
409           	6.208990e-05	1.905736e-05	7.655842e-05
410           	6.226541e-05	1.904738e-05	7.651624e-05
411           	6.184095e-05	1.903430e-05	7.655418e-05
412           	6.209112e-05	1.903017e-05	7.645176e-05
413           	6.199765e-05	1.902919e-05	7.631278e-05
414           	6.261757e-05	1.903241e-05	7.614908e-05
415           	6.192535e-05	1.902629e-05	7.609823e-05
416           	6.191519e-05	1.901776e-05	7.594975e-05
417           	6.162709e-05	1.901011e-05	7.587113e-05
418           	6.139780e-05	1.900560e-05	7.573188e-05
419           	6.145719e-05	1.900349e-05	7.559806e-05
420           	6.136011e-05	1.899467e-05	7.538611e-05
421           	6.141776e-05	1.898945e-05	7.526991e-05
422           	6.187005e-05	1.898697e-05	7.517149e-05
423           	6.172070e-05	1.898078e-05	7.506635e-05
424           	6.214472e-05	1.897828e-05	7.488763e-05
425           	6.211645e-05	1.896121e-05	7.462470e-05
426           	6.133921e-05	1.894560e-05	7.452690e-05
427           	6.132782e-05	1.893872e-05	7.445150e-05
428           	6.144153e-05	1.894361e-05	7.428456e-05
429           	6.136482e-05	1.893599e-05	7.401169e-05
430           	6.228585e-05	1.891935e-05	7.378787e-05
431           	6.159656e-05	1.890062e-05	7.372654e-05
432           	6.174436e-05	1.888732e-05	7.363173e-05
433           	6.147965e-05	1.888462e-05	7.331308e-05
434           	6.143349e-05	1.888145e-05	7.320145e-05
435           	6.093828e-05	1.886247e-05	7.286006e-05
436           	6.141083e-05	1.884384e-05	7.266373e-05
437           	6.092942e-05	1.882889e-05	7.260962e-05
438           	6.089856e-05	1.881959e-05	7.251948e-05
439           	6.123796e-05	1.881949e-05	7.232242e-05
440           	6.068368e-05	1.879767e-05	7.194051e-05
441           	6.098889e-05	1.877864e-05	7.167487e-05
442           	6.038093e-05	1.876613e-05	7.175597e-05
443           	6.058155e-05	1.875474e-05	7.159760e-05
444           	6.042685e-05	1.873684e-05	7.117388e-05
445           	6.038926e-05	1.872181e-05	7.075653e-05
446           	5.978713e-05	1.870404e-05	7.077441e-05
447           	5.947588e-05	1.868734e-05	7.067568e-05
448           	5.975282e-05	1.867343e-05	7.049253e-05
449           	5.980921e-05	1.865915e-05	7.002280e-05
450           	5.917714e-05	1.863798e-05	6.983558e-05
451           	5.894851e-05	1.861783e-05	6.971841e-05
452           	5.885289e-05	1.860206e-05	6.960995e-05
453           	5.899049e-05	1.859214e-05	6.932877e-05
454           	5.913982e-05	1.856973e-05	6.892420e-05
455           	5.831932e-05	1.854310e-05	6.878918e-05
456           	5.864435e-05	1.852932e-05	6.881487e-05
457           	5.864070e-05	1.850841e-05	6.844644e-05
458           	5.780638e-05	1.848300e-05	6.822006e-05
459           	5.760051e-05	1.846544e-05	6.800884e-05
460           	5.720542e-05	1.844709e-05	6.775847e-05
461           	5.710006e-05	1.842639e-05	6.751747e-05
462           	5.769067e-05	1.840642e-05	6.735263e-05
463           	5.705660e-05	1.837401e-05	6.714693e-05
464           	5.712317e-05	1.834806e-05	6.699140e-05
465           	5.669288e-05	1.833373e-05	6.675187e-05
466           	5.744129e-05	1.831226e-05	6.642768e-05
467           	5.666244e-05	1.828358e-05	6.627399e-05
468           	5.642545e-05	1.825765e-05	6.623621e-05
469           	5.628627e-05	1.823603e-05	6.596438e-05
470           	5.586943e-05	1.820954e-05	6.563579e-05
471           	5.576141e-05	1.817708e-05	6.539163e-05
472           	5.573441e-05	1.815108e-05	6.528473e-05
473           	5.552902e-05	1.812980e-05	6.530926e-05
474           	5.592963e-05	1.810746e-05	6.496430e-05
475           	5.552515e-05	1.807871e-05	6.459028e-05
476           	5.480146e-05	1.804412e-05	6.440260e-05
477           	5.447913e-05	1.801258e-05	6.437666e-05
478           	5.494630e-05	1.799646e-05	6.434553e-05
479           	5.440835e-05	1.797034e-05	6.417498e-05
480           	5.417246e-05	1.793460e-05	6.371518e-05
481           	5.427997e-05	1.789883e-05	6.343658e-05
482           	5.359619e-05	1.786748e-05	6.353352e-05
483           	5.335702e-05	1.784551e-05	6.345338e-05
484           	5.275944e-05	1.781610e-05	6.317583e-05
485           	5.264839e-05	1.778874e-05	6.293127e-05
486           	5.295389e-05	1.776010e-05	6.277919e-05
487           	5.303790e-05	1.772680e-05	6.249631e-05
488           	5.253252e-05	1.768894e-05	6.236400e-05
489           	5.284730e-05	1.765840e-05	6.243013e-05
490           	5.217802e-05	1.763814e-05	6.227702e-05
491           	5.197180e-05	1.761253e-05	6.189292e-05
492           	5.243079e-05	1.758106e-05	6.163989e-05
493           	5.146778e-05	1.754015e-05	6.161919e-05
494           	5.161436e-05	1.750672e-05	6.159929e-05
495           	5.186922e-05	1.748465e-05	6.152929e-05
496           	5.182450e-05	1.745820e-05	6.113280e-05
497           	5.148888e-05	1.742579e-05	6.085574e-05
498           	5.031939e-05	1.738753e-05	6.087167e-05
499           	5.037483e-05	1.735780e-05	6.093698e-05
500           	5.026390e-05	1.732937e-05	6.068534e-05
501           	4.993140e-05	1.730359e-05	6.037017e-05
502           	4.969329e-05	1.727407e-05	6.020968e-05
503           	4.915175e-05	1.723824e-05	6.012547e-05
504           	4.891976e-05	1.720365e-05	6.004683e-05
505           	4.952622e-05	1.718246e-05	5.995737e-05
506           	4.930130e-05	1.715270e-05	5.986782e-05
507           	4.890013e-05	1.711675e-05	5.946893e-05
508           	4.895927e-05	1.708852e-05	5.935517e-05
509           	4.828983e-05	1.705663e-05	5.936593e-05
510           	4.824893e-05	1.702985e-05	5.930670e-05
511           	4.876919e-05	1.699884e-05	5.898113e-05
512           	4.788079e-05	1.696634e-05	5.899400e-05
513           	4.811638e-05	1.693868e-05	5.871529e-05
514           	4.749705e-05	1.690668e-05	5.865448e-05
515           	4.743840e-05	1.687869e-05	5.857873e-05
516           	4.788806e-05	1.685538e-05	5.831995e-05
517           	4.735501e-05	1.682144e-05	5.820234e-05
518           	4.684791e-05	1.679085e-05	5.826862e-05
519           	4.719245e-05	1.676315e-05	5.799164e-05
520           	4.657437e-05	1.673484e-05	5.794927e-05
521           	4.660355e-05	1.670460e-05	5.764219e-05
522           	4.611862e-05	1.667190e-05	5.760898e-05
523           	4.601336e-05	1.664594e-05	5.759385e-05
524           	4.612870e-05	1.662328e-05	5.736664e-05
525           	4.573889e-05	1.659389e-05	5.712232e-05
526           	4.541612e-05	1.655999e-05	5.708743e-05
527           	4.555207e-05	1.653265e-05	5.719474e-05
528           	4.529567e-05	1.650890e-05	5.698796e-05
529           	4.579969e-05	1.647887e-05	5.660596e-05
530           	4.557674e-05	1.644978e-05	5.645216e-05
531           	4.494427e-05	1.641748e-05	5.651130e-05
532           	4.510613e-05	1.639544e-05	5.664106e-05
533           	4.518635e-05	1.636952e-05	5.629116e-05
534           	4.475131e-05	1.634028e-05	5.598089e-05
535           	4.390670e-05	1.630724e-05	5.592826e-05
536           	4.398083e-05	1.627875e-05	5.603553e-05
537           	4.446506e-05	1.625961e-05	5.591585e-05
538           	4.449719e-05	1.623141e-05	5.553346e-05
539           	4.423044e-05	1.619928e-05	5.532915e-05
540           	4.359987e-05	1.616551e-05	5.541629e-05
541           	4.352745e-05	1.613863e-05	5.548187e-05
542           	4.356045e-05	1.611965e-05	5.521720e-05
543           	4.426920e-05	1.609301e-05	5.483702e-05
544           	4.323418e-05	1.605788e-05	5.471827e-05
545           	4.334596e-05	1.602462e-05	5.483374e-05
546           	4.301652e-05	1.600214e-05	5.483021e-05
547           	4.286572e-05	1.597723e-05	5.459362e-05
548           	4.321493e-05	1.594731e-05	5.420823e-05
549           	4.227866e-05	1.591250e-05	5.418751e-05
550           	4.225933e-05	1.588421e-05	5.420786e-05
551           	4.245962e-05	1.586139e-05	5.395229e-05
552           	4.273610e-05	1.583408e-05	5.375458e-05
553           	4.173404e-05	1.579783e-05	5.376020e-05