/*--------------------------------*- C++ -*----------------------------------*\
  =========                 |
  \\      /  F ield         | OpenFOAM: The Open Source CFD Toolbox
   \\    /   O peration     | Website:  https://openfoam.org
    \\  /    A nd           | Version:  7
     \\/     M anipulation  |
\*---------------------------------------------------------------------------*/
FoamFile
{
    version     2.0;
    format      ascii;
    class       volScalarField;
    location    "800";
    object      nut;
}
// * * * * * * * * * * * * * * * * * * * * * * * * * * * * * * * * * * * * * //

dimensions      [0 2 -1 0 0 0 0];

internalField   nonuniform List<scalar> 
23052
(
5.20698e-06
5.20688e-06
5.20835e-06
5.20701e-06
5.2084e-06
5.20946e-06
5.20706e-06
5.2083e-06
5.20915e-06
5.20942e-06
5.20706e-06
5.2082e-06
5.20891e-06
5.20914e-06
5.20881e-06
5.2082e-06
5.20703e-06
5.20805e-06
5.20866e-06
5.20885e-06
5.20854e-06
5.208e-06
5.20769e-06
5.20811e-06
5.20698e-06
5.2079e-06
5.20843e-06
5.20858e-06
5.2083e-06
5.20785e-06
5.20765e-06
5.20815e-06
5.20925e-06
5.20693e-06
5.20775e-06
5.2082e-06
5.20833e-06
5.20808e-06
5.20771e-06
5.20765e-06
5.20825e-06
5.20929e-06
5.2106e-06
5.20687e-06
5.20759e-06
5.20799e-06
5.20809e-06
5.20788e-06
5.2076e-06
5.20769e-06
5.20836e-06
5.20942e-06
5.21063e-06
5.21192e-06
5.20681e-06
5.20744e-06
5.2078e-06
5.20788e-06
5.2077e-06
5.20752e-06
5.20775e-06
5.20849e-06
5.20955e-06
5.21073e-06
5.21193e-06
5.21316e-06
5.20676e-06
5.20731e-06
5.20762e-06
5.20769e-06
5.20755e-06
5.20748e-06
5.20784e-06
5.20863e-06
5.20968e-06
5.21083e-06
5.212e-06
5.21315e-06
5.21431e-06
5.20671e-06
5.20718e-06
5.20746e-06
5.20753e-06
5.20744e-06
5.20748e-06
5.20795e-06
5.20878e-06
5.20982e-06
5.21093e-06
5.21206e-06
5.21319e-06
5.21429e-06
5.2154e-06
5.20666e-06
5.20708e-06
5.20732e-06
5.20739e-06
5.20735e-06
5.20752e-06
5.20808e-06
5.20894e-06
5.20995e-06
5.21103e-06
5.21213e-06
5.21322e-06
5.21431e-06
5.21537e-06
5.21643e-06
5.20663e-06
5.20699e-06
5.2072e-06
5.20728e-06
5.20731e-06
5.20761e-06
5.20823e-06
5.2091e-06
5.21009e-06
5.21114e-06
5.2122e-06
5.21326e-06
5.21432e-06
5.21537e-06
5.2164e-06
5.21741e-06
5.2066e-06
5.20692e-06
5.20711e-06
5.2072e-06
5.20732e-06
5.20772e-06
5.20839e-06
5.20926e-06
5.21023e-06
5.21124e-06
5.21227e-06
5.2133e-06
5.21434e-06
5.21536e-06
5.21638e-06
5.21737e-06
5.21834e-06
5.2066e-06
5.20687e-06
5.20705e-06
5.20716e-06
5.20737e-06
5.20785e-06
5.20856e-06
5.20942e-06
5.21036e-06
5.21134e-06
5.21234e-06
5.21335e-06
5.21436e-06
5.21537e-06
5.21636e-06
5.21734e-06
5.21828e-06
5.21921e-06
5.20662e-06
5.20685e-06
5.20701e-06
5.20716e-06
5.20747e-06
5.20801e-06
5.20873e-06
5.20958e-06
5.21049e-06
5.21145e-06
5.21242e-06
5.21341e-06
5.21439e-06
5.21537e-06
5.21635e-06
5.2173e-06
5.21825e-06
5.21915e-06
5.22004e-06
5.20666e-06
5.20685e-06
5.207e-06
5.20721e-06
5.20759e-06
5.20817e-06
5.2089e-06
5.20973e-06
5.21062e-06
5.21155e-06
5.2125e-06
5.21346e-06
5.21443e-06
5.21539e-06
5.21634e-06
5.21728e-06
5.2182e-06
5.2191e-06
5.21997e-06
5.22082e-06
5.2067e-06
5.20686e-06
5.20703e-06
5.2073e-06
5.20774e-06
5.20834e-06
5.20907e-06
5.20988e-06
5.21075e-06
5.21165e-06
5.21258e-06
5.21352e-06
5.21446e-06
5.21541e-06
5.21634e-06
5.21726e-06
5.21816e-06
5.21905e-06
5.21992e-06
5.22075e-06
5.22156e-06
5.20673e-06
5.20689e-06
5.2071e-06
5.20743e-06
5.20789e-06
5.20851e-06
5.20923e-06
5.21002e-06
5.21087e-06
5.21175e-06
5.21266e-06
5.21358e-06
5.21451e-06
5.21543e-06
5.21634e-06
5.21725e-06
5.21813e-06
5.219e-06
5.21985e-06
5.22069e-06
5.22149e-06
5.22227e-06
5.20676e-06
5.20695e-06
5.2072e-06
5.20756e-06
5.20805e-06
5.20866e-06
5.20938e-06
5.21016e-06
5.21099e-06
5.21186e-06
5.21274e-06
5.21365e-06
5.21455e-06
5.21546e-06
5.21635e-06
5.21724e-06
5.21811e-06
5.21896e-06
5.2198e-06
5.22062e-06
5.22142e-06
5.22219e-06
5.22293e-06
5.20678e-06
5.20702e-06
5.20731e-06
5.2077e-06
5.2082e-06
5.20882e-06
5.20952e-06
5.21029e-06
5.21111e-06
5.21196e-06
5.21283e-06
5.21371e-06
5.2146e-06
5.21549e-06
5.21637e-06
5.21723e-06
5.21809e-06
5.21893e-06
5.21975e-06
5.22056e-06
5.22135e-06
5.22212e-06
5.22285e-06
5.22356e-06
5.2068e-06
5.20709e-06
5.20742e-06
5.20783e-06
5.20834e-06
5.20896e-06
5.20966e-06
5.21042e-06
5.21122e-06
5.21206e-06
5.21291e-06
5.21378e-06
5.21465e-06
5.21552e-06
5.21638e-06
5.21723e-06
5.21807e-06
5.2189e-06
5.21971e-06
5.2205e-06
5.22128e-06
5.22204e-06
5.22277e-06
5.22348e-06
5.22416e-06
5.20682e-06
5.20716e-06
5.20751e-06
5.20795e-06
5.20848e-06
5.2091e-06
5.20979e-06
5.21054e-06
5.21133e-06
5.21215e-06
5.213e-06
5.21385e-06
5.2147e-06
5.21556e-06
5.2164e-06
5.21724e-06
5.21807e-06
5.21888e-06
5.21967e-06
5.22046e-06
5.22122e-06
5.22196e-06
5.22269e-06
5.2234e-06
5.22407e-06
5.22473e-06
5.20684e-06
5.20722e-06
5.20761e-06
5.20806e-06
5.2086e-06
5.20923e-06
5.20992e-06
5.21066e-06
5.21144e-06
5.21225e-06
5.21308e-06
5.21392e-06
5.21476e-06
5.21559e-06
5.21643e-06
5.21725e-06
5.21806e-06
5.21886e-06
5.21964e-06
5.22041e-06
5.22116e-06
5.2219e-06
5.22261e-06
5.22331e-06
5.22399e-06
5.22464e-06
5.22527e-06
5.20686e-06
5.20728e-06
5.2077e-06
5.20817e-06
5.20872e-06
5.20935e-06
5.21004e-06
5.21078e-06
5.21155e-06
5.21235e-06
5.21316e-06
5.21399e-06
5.21481e-06
5.21563e-06
5.21645e-06
5.21726e-06
5.21806e-06
5.21885e-06
5.21962e-06
5.22037e-06
5.22111e-06
5.22184e-06
5.22254e-06
5.22323e-06
5.2239e-06
5.22455e-06
5.22518e-06
5.22578e-06
5.20688e-06
5.20733e-06
5.20778e-06
5.20828e-06
5.20884e-06
5.20947e-06
5.21016e-06
5.21089e-06
5.21166e-06
5.21244e-06
5.21325e-06
5.21406e-06
5.21487e-06
5.21568e-06
5.21648e-06
5.21728e-06
5.21806e-06
5.21884e-06
5.2196e-06
5.22034e-06
5.22107e-06
5.22178e-06
5.22248e-06
5.22315e-06
5.22382e-06
5.22446e-06
5.22509e-06
5.22569e-06
5.22627e-06
5.20689e-06
5.20738e-06
5.20786e-06
5.20837e-06
5.20895e-06
5.20959e-06
5.21027e-06
5.211e-06
5.21176e-06
5.21254e-06
5.21333e-06
5.21413e-06
5.21492e-06
5.21572e-06
5.21651e-06
5.2173e-06
5.21807e-06
5.21883e-06
5.21958e-06
5.22031e-06
5.22103e-06
5.22173e-06
5.22242e-06
5.22309e-06
5.22374e-06
5.22437e-06
5.22499e-06
5.2256e-06
5.22617e-06
5.22674e-06
5.20691e-06
5.20743e-06
5.20793e-06
5.20847e-06
5.20905e-06
5.2097e-06
5.21039e-06
5.21111e-06
5.21186e-06
5.21263e-06
5.21341e-06
5.2142e-06
5.21498e-06
5.21577e-06
5.21655e-06
5.21732e-06
5.21808e-06
5.21883e-06
5.21957e-06
5.22029e-06
5.221e-06
5.22169e-06
5.22236e-06
5.22302e-06
5.22366e-06
5.22429e-06
5.2249e-06
5.2255e-06
5.22608e-06
5.22664e-06
5.22718e-06
5.20692e-06
5.20747e-06
5.208e-06
5.20855e-06
5.20915e-06
5.2098e-06
5.21049e-06
5.21121e-06
5.21196e-06
5.21272e-06
5.21349e-06
5.21427e-06
5.21504e-06
5.21581e-06
5.21658e-06
5.21734e-06
5.21809e-06
5.21883e-06
5.21956e-06
5.22027e-06
5.22097e-06
5.22165e-06
5.22231e-06
5.22296e-06
5.2236e-06
5.22422e-06
5.22482e-06
5.22541e-06
5.22598e-06
5.22655e-06
5.22708e-06
5.22761e-06
5.20693e-06
5.20752e-06
5.20807e-06
5.20864e-06
5.20925e-06
5.2099e-06
5.2106e-06
5.21131e-06
5.21205e-06
5.21281e-06
5.21357e-06
5.21433e-06
5.2151e-06
5.21586e-06
5.21662e-06
5.21737e-06
5.21811e-06
5.21883e-06
5.21955e-06
5.22025e-06
5.22094e-06
5.22161e-06
5.22227e-06
5.22291e-06
5.22353e-06
5.22414e-06
5.22474e-06
5.22532e-06
5.22589e-06
5.22645e-06
5.22699e-06
5.22751e-06
5.22802e-06
5.20695e-06
5.20755e-06
5.20813e-06
5.20872e-06
5.20934e-06
5.21e-06
5.2107e-06
5.21141e-06
5.21215e-06
5.21289e-06
5.21365e-06
5.2144e-06
5.21516e-06
5.21591e-06
5.21666e-06
5.2174e-06
5.21812e-06
5.21884e-06
5.21955e-06
5.22024e-06
5.22092e-06
5.22158e-06
5.22223e-06
5.22286e-06
5.22348e-06
5.22408e-06
5.22467e-06
5.22524e-06
5.2258e-06
5.22635e-06
5.22689e-06
5.22741e-06
5.22791e-06
5.22841e-06
5.20696e-06
5.20759e-06
5.20819e-06
5.20879e-06
5.20943e-06
5.2101e-06
5.21079e-06
5.21151e-06
5.21224e-06
5.21298e-06
5.21372e-06
5.21447e-06
5.21522e-06
5.21596e-06
5.2167e-06
5.21743e-06
5.21814e-06
5.21885e-06
5.21955e-06
5.22023e-06
5.2209e-06
5.22155e-06
5.22219e-06
5.22281e-06
5.22342e-06
5.22402e-06
5.2246e-06
5.22517e-06
5.22572e-06
5.22626e-06
5.22679e-06
5.22731e-06
5.22782e-06
5.2283e-06
5.22879e-06
5.20697e-06
5.20763e-06
5.20824e-06
5.20887e-06
5.20951e-06
5.21019e-06
5.21088e-06
5.2116e-06
5.21233e-06
5.21306e-06
5.2138e-06
5.21454e-06
5.21528e-06
5.21601e-06
5.21674e-06
5.21746e-06
5.21817e-06
5.21887e-06
5.21955e-06
5.22022e-06
5.22088e-06
5.22152e-06
5.22215e-06
5.22277e-06
5.22337e-06
5.22396e-06
5.22453e-06
5.2251e-06
5.22564e-06
5.22618e-06
5.2267e-06
5.22721e-06
5.22771e-06
5.22821e-06
5.22868e-06
5.22915e-06
5.20698e-06
5.20766e-06
5.2083e-06
5.20894e-06
5.20959e-06
5.21027e-06
5.21097e-06
5.21169e-06
5.21241e-06
5.21314e-06
5.21388e-06
5.21461e-06
5.21534e-06
5.21606e-06
5.21678e-06
5.21749e-06
5.21819e-06
5.21888e-06
5.21956e-06
5.22022e-06
5.22087e-06
5.2215e-06
5.22213e-06
5.22273e-06
5.22333e-06
5.22391e-06
5.22447e-06
5.22503e-06
5.22557e-06
5.2261e-06
5.22662e-06
5.22712e-06
5.22762e-06
5.2281e-06
5.22858e-06
5.22904e-06
5.2295e-06
5.20698e-06
5.20769e-06
5.20835e-06
5.209e-06
5.20967e-06
5.21036e-06
5.21106e-06
5.21177e-06
5.2125e-06
5.21322e-06
5.21395e-06
5.21468e-06
5.2154e-06
5.21612e-06
5.21683e-06
5.21753e-06
5.21822e-06
5.2189e-06
5.21956e-06
5.22022e-06
5.22086e-06
5.22149e-06
5.2221e-06
5.2227e-06
5.22329e-06
5.22386e-06
5.22442e-06
5.22497e-06
5.2255e-06
5.22602e-06
5.22653e-06
5.22703e-06
5.22752e-06
5.22801e-06
5.22848e-06
5.22894e-06
5.22939e-06
5.22984e-06
5.20699e-06
5.20772e-06
5.20839e-06
5.20906e-06
5.20974e-06
5.21044e-06
5.21114e-06
5.21186e-06
5.21258e-06
5.2133e-06
5.21402e-06
5.21474e-06
5.21546e-06
5.21617e-06
5.21687e-06
5.21756e-06
5.21825e-06
5.21892e-06
5.21957e-06
5.22022e-06
5.22085e-06
5.22147e-06
5.22208e-06
5.22267e-06
5.22325e-06
5.22381e-06
5.22437e-06
5.22491e-06
5.22544e-06
5.22595e-06
5.22646e-06
5.22695e-06
5.22744e-06
5.22791e-06
5.22838e-06
5.22884e-06
5.22929e-06
5.22972e-06
5.23016e-06
5.207e-06
5.20775e-06
5.20844e-06
5.20912e-06
5.20981e-06
5.21051e-06
5.21122e-06
5.21194e-06
5.21266e-06
5.21337e-06
5.21409e-06
5.21481e-06
5.21552e-06
5.21622e-06
5.21692e-06
5.2176e-06
5.21828e-06
5.21894e-06
5.21959e-06
5.22022e-06
5.22085e-06
5.22146e-06
5.22206e-06
5.22264e-06
5.22321e-06
5.22377e-06
5.22432e-06
5.22485e-06
5.22537e-06
5.22588e-06
5.22638e-06
5.22687e-06
5.22735e-06
5.22782e-06
5.22828e-06
5.22874e-06
5.22919e-06
5.22963e-06
5.23005e-06
5.23048e-06
5.20701e-06
5.20777e-06
5.20848e-06
5.20918e-06
5.20988e-06
5.21059e-06
5.2113e-06
5.21201e-06
5.21273e-06
5.21345e-06
5.21416e-06
5.21487e-06
5.21558e-06
5.21628e-06
5.21696e-06
5.21764e-06
5.21831e-06
5.21896e-06
5.2196e-06
5.22023e-06
5.22085e-06
5.22145e-06
5.22204e-06
5.22262e-06
5.22318e-06
5.22374e-06
5.22428e-06
5.2248e-06
5.22532e-06
5.22582e-06
5.22632e-06
5.2268e-06
5.22727e-06
5.22774e-06
5.22819e-06
5.22864e-06
5.22908e-06
5.22952e-06
5.22995e-06
5.23036e-06
5.23078e-06
5.20702e-06
5.2078e-06
5.20853e-06
5.20924e-06
5.20994e-06
5.21066e-06
5.21137e-06
5.21209e-06
5.21281e-06
5.21352e-06
5.21423e-06
5.21494e-06
5.21564e-06
5.21633e-06
5.21701e-06
5.21768e-06
5.21834e-06
5.21898e-06
5.21962e-06
5.22024e-06
5.22085e-06
5.22144e-06
5.22203e-06
5.2226e-06
5.22316e-06
5.2237e-06
5.22423e-06
5.22476e-06
5.22526e-06
5.22576e-06
5.22625e-06
5.22673e-06
5.2272e-06
5.22766e-06
5.22811e-06
5.22855e-06
5.22899e-06
5.22942e-06
5.22984e-06
5.23026e-06
5.23067e-06
5.23108e-06
5.20702e-06
5.20782e-06
5.20856e-06
5.20929e-06
5.21001e-06
5.21072e-06
5.21144e-06
5.21216e-06
5.21288e-06
5.21359e-06
5.2143e-06
5.215e-06
5.2157e-06
5.21638e-06
5.21706e-06
5.21772e-06
5.21837e-06
5.21901e-06
5.21964e-06
5.22025e-06
5.22085e-06
5.22144e-06
5.22202e-06
5.22258e-06
5.22313e-06
5.22367e-06
5.2242e-06
5.22471e-06
5.22521e-06
5.22571e-06
5.22619e-06
5.22666e-06
5.22713e-06
5.22758e-06
5.22803e-06
5.22846e-06
5.2289e-06
5.22932e-06
5.22974e-06
5.23015e-06
5.23057e-06
5.23096e-06
5.23137e-06
5.20703e-06
5.20785e-06
5.2086e-06
5.20934e-06
5.21007e-06
5.21079e-06
5.21151e-06
5.21224e-06
5.21295e-06
5.21367e-06
5.21437e-06
5.21507e-06
5.21576e-06
5.21644e-06
5.2171e-06
5.21776e-06
5.2184e-06
5.21904e-06
5.21966e-06
5.22026e-06
5.22086e-06
5.22144e-06
5.22201e-06
5.22257e-06
5.22311e-06
5.22364e-06
5.22416e-06
5.22467e-06
5.22517e-06
5.22566e-06
5.22613e-06
5.2266e-06
5.22706e-06
5.22751e-06
5.22795e-06
5.22838e-06
5.22881e-06
5.22923e-06
5.22964e-06
5.23005e-06
5.23046e-06
5.23086e-06
5.23125e-06
5.23165e-06
5.20703e-06
5.20787e-06
5.20864e-06
5.20938e-06
5.21012e-06
5.21085e-06
5.21158e-06
5.21231e-06
5.21302e-06
5.21373e-06
5.21444e-06
5.21513e-06
5.21582e-06
5.21649e-06
5.21715e-06
5.2178e-06
5.21844e-06
5.21906e-06
5.21968e-06
5.22028e-06
5.22087e-06
5.22144e-06
5.222e-06
5.22255e-06
5.22309e-06
5.22362e-06
5.22413e-06
5.22463e-06
5.22513e-06
5.22561e-06
5.22608e-06
5.22654e-06
5.22699e-06
5.22744e-06
5.22787e-06
5.2283e-06
5.22872e-06
5.22914e-06
5.22955e-06
5.22995e-06
5.23035e-06
5.23075e-06
5.23115e-06
5.23153e-06
5.23193e-06
5.20704e-06
5.20789e-06
5.20867e-06
5.20943e-06
5.21018e-06
5.21092e-06
5.21165e-06
5.21237e-06
5.21309e-06
5.2138e-06
5.2145e-06
5.21519e-06
5.21587e-06
5.21654e-06
5.2172e-06
5.21784e-06
5.21847e-06
5.21909e-06
5.2197e-06
5.22029e-06
5.22088e-06
5.22144e-06
5.222e-06
5.22254e-06
5.22308e-06
5.2236e-06
5.2241e-06
5.2246e-06
5.22509e-06
5.22556e-06
5.22603e-06
5.22648e-06
5.22693e-06
5.22737e-06
5.2278e-06
5.22823e-06
5.22864e-06
5.22905e-06
5.22946e-06
5.22986e-06
5.23026e-06
5.23065e-06
5.23104e-06
5.23143e-06
5.23181e-06
5.2322e-06
5.20704e-06
5.2079e-06
5.2087e-06
5.20948e-06
5.21023e-06
5.21098e-06
5.21171e-06
5.21244e-06
5.21316e-06
5.21387e-06
5.21457e-06
5.21525e-06
5.21593e-06
5.21659e-06
5.21724e-06
5.21788e-06
5.21851e-06
5.21912e-06
5.21972e-06
5.22031e-06
5.22089e-06
5.22145e-06
5.222e-06
5.22254e-06
5.22306e-06
5.22358e-06
5.22408e-06
5.22457e-06
5.22505e-06
5.22552e-06
5.22598e-06
5.22643e-06
5.22687e-06
5.22731e-06
5.22773e-06
5.22815e-06
5.22857e-06
5.22897e-06
5.22937e-06
5.22977e-06
5.23016e-06
5.23055e-06
5.23094e-06
5.23132e-06
5.23171e-06
5.23208e-06
5.23247e-06
5.20705e-06
5.20792e-06
5.20874e-06
5.20952e-06
5.21028e-06
5.21104e-06
5.21178e-06
5.21251e-06
5.21323e-06
5.21393e-06
5.21463e-06
5.21531e-06
5.21599e-06
5.21665e-06
5.21729e-06
5.21793e-06
5.21855e-06
5.21915e-06
5.21975e-06
5.22033e-06
5.2209e-06
5.22146e-06
5.222e-06
5.22253e-06
5.22305e-06
5.22356e-06
5.22406e-06
5.22454e-06
5.22502e-06
5.22548e-06
5.22594e-06
5.22638e-06
5.22682e-06
5.22725e-06
5.22767e-06
5.22808e-06
5.22849e-06
5.22889e-06
5.22929e-06
5.22968e-06
5.23007e-06
5.23045e-06
5.23084e-06
5.23122e-06
5.2316e-06
5.23198e-06
5.23235e-06
5.23274e-06
5.20705e-06
5.20794e-06
5.20877e-06
5.20956e-06
5.21033e-06
5.21109e-06
5.21184e-06
5.21257e-06
5.21329e-06
5.214e-06
5.21469e-06
5.21537e-06
5.21604e-06
5.2167e-06
5.21734e-06
5.21797e-06
5.21858e-06
5.21919e-06
5.21978e-06
5.22035e-06
5.22092e-06
5.22147e-06
5.222e-06
5.22253e-06
5.22304e-06
5.22355e-06
5.22404e-06
5.22452e-06
5.22499e-06
5.22545e-06
5.2259e-06
5.22634e-06
5.22677e-06
5.22719e-06
5.22761e-06
5.22802e-06
5.22842e-06
5.22882e-06
5.22921e-06
5.2296e-06
5.22998e-06
5.23036e-06
5.23074e-06
5.23112e-06
5.23149e-06
5.23187e-06
5.23225e-06
5.23261e-06
5.233e-06
5.20706e-06
5.20796e-06
5.2088e-06
5.2096e-06
5.21038e-06
5.21115e-06
5.2119e-06
5.21263e-06
5.21335e-06
5.21406e-06
5.21475e-06
5.21543e-06
5.2161e-06
5.21675e-06
5.21739e-06
5.21801e-06
5.21862e-06
5.21922e-06
5.2198e-06
5.22037e-06
5.22093e-06
5.22148e-06
5.22201e-06
5.22253e-06
5.22304e-06
5.22353e-06
5.22402e-06
5.22449e-06
5.22496e-06
5.22541e-06
5.22586e-06
5.22629e-06
5.22672e-06
5.22714e-06
5.22755e-06
5.22796e-06
5.22835e-06
5.22875e-06
5.22913e-06
5.22952e-06
5.22989e-06
5.23027e-06
5.23065e-06
5.23102e-06
5.23139e-06
5.23176e-06
5.23214e-06
5.23251e-06
5.23287e-06
5.23326e-06
5.20706e-06
5.20798e-06
5.20883e-06
5.20964e-06
5.21043e-06
5.2112e-06
5.21195e-06
5.21269e-06
5.21341e-06
5.21412e-06
5.21481e-06
5.21549e-06
5.21615e-06
5.2168e-06
5.21743e-06
5.21805e-06
5.21866e-06
5.21925e-06
5.21983e-06
5.2204e-06
5.22095e-06
5.22149e-06
5.22202e-06
5.22253e-06
5.22303e-06
5.22352e-06
5.224e-06
5.22447e-06
5.22493e-06
5.22538e-06
5.22582e-06
5.22625e-06
5.22667e-06
5.22709e-06
5.2275e-06
5.2279e-06
5.22829e-06
5.22868e-06
5.22906e-06
5.22944e-06
5.22981e-06
5.23019e-06
5.23056e-06
5.23092e-06
5.23129e-06
5.23166e-06
5.23203e-06
5.2324e-06
5.23277e-06
5.23313e-06
5.23351e-06
5.20707e-06
5.20799e-06
5.20885e-06
5.20968e-06
5.21047e-06
5.21125e-06
5.21201e-06
5.21275e-06
5.21347e-06
5.21418e-06
5.21487e-06
5.21555e-06
5.21621e-06
5.21685e-06
5.21748e-06
5.2181e-06
5.2187e-06
5.21929e-06
5.21986e-06
5.22042e-06
5.22097e-06
5.2215e-06
5.22202e-06
5.22253e-06
5.22303e-06
5.22352e-06
5.22399e-06
5.22446e-06
5.22491e-06
5.22535e-06
5.22579e-06
5.22621e-06
5.22663e-06
5.22704e-06
5.22744e-06
5.22784e-06
5.22823e-06
5.22861e-06
5.22899e-06
5.22936e-06
5.22973e-06
5.2301e-06
5.23047e-06
5.23083e-06
5.2312e-06
5.23156e-06
5.23193e-06
5.23229e-06
5.23266e-06
5.23303e-06
5.23338e-06
5.23377e-06
5.20707e-06
5.20801e-06
5.20888e-06
5.20971e-06
5.21052e-06
5.2113e-06
5.21206e-06
5.2128e-06
5.21353e-06
5.21424e-06
5.21493e-06
5.2156e-06
5.21626e-06
5.2169e-06
5.21753e-06
5.21814e-06
5.21874e-06
5.21932e-06
5.21989e-06
5.22045e-06
5.22099e-06
5.22152e-06
5.22203e-06
5.22254e-06
5.22303e-06
5.22351e-06
5.22398e-06
5.22444e-06
5.22489e-06
5.22533e-06
5.22576e-06
5.22618e-06
5.22659e-06
5.227e-06
5.22739e-06
5.22778e-06
5.22817e-06
5.22855e-06
5.22892e-06
5.22929e-06
5.22966e-06
5.23002e-06
5.23039e-06
5.23075e-06
5.23111e-06
5.23147e-06
5.23183e-06
5.23219e-06
5.23255e-06
5.23291e-06
5.23328e-06
5.23363e-06
5.23402e-06
5.20708e-06
5.20802e-06
5.2089e-06
5.20975e-06
5.21056e-06
5.21135e-06
5.21211e-06
5.21286e-06
5.21359e-06
5.21429e-06
5.21498e-06
5.21566e-06
5.21631e-06
5.21695e-06
5.21758e-06
5.21819e-06
5.21878e-06
5.21936e-06
5.21992e-06
5.22047e-06
5.22101e-06
5.22153e-06
5.22205e-06
5.22254e-06
5.22303e-06
5.22351e-06
5.22397e-06
5.22443e-06
5.22487e-06
5.22531e-06
5.22573e-06
5.22615e-06
5.22655e-06
5.22695e-06
5.22735e-06
5.22773e-06
5.22811e-06
5.22849e-06
5.22886e-06
5.22922e-06
5.22959e-06
5.22995e-06
5.23031e-06
5.23066e-06
5.23102e-06
5.23137e-06
5.23173e-06
5.23208e-06
5.23244e-06
5.2328e-06
5.23316e-06
5.23353e-06
5.23388e-06
5.23426e-06
5.20708e-06
5.20804e-06
5.20893e-06
5.20978e-06
5.2106e-06
5.21139e-06
5.21216e-06
5.21291e-06
5.21364e-06
5.21435e-06
5.21504e-06
5.21571e-06
5.21637e-06
5.217e-06
5.21763e-06
5.21823e-06
5.21882e-06
5.21939e-06
5.21995e-06
5.2205e-06
5.22103e-06
5.22155e-06
5.22206e-06
5.22255e-06
5.22304e-06
5.22351e-06
5.22397e-06
5.22442e-06
5.22486e-06
5.22529e-06
5.22571e-06
5.22612e-06
5.22652e-06
5.22692e-06
5.2273e-06
5.22768e-06
5.22806e-06
5.22843e-06
5.2288e-06
5.22916e-06
5.22952e-06
5.22987e-06
5.23023e-06
5.23058e-06
5.23093e-06
5.23128e-06
5.23163e-06
5.23199e-06
5.23234e-06
5.2327e-06
5.23305e-06
5.23341e-06
5.23378e-06
5.23413e-06
5.23451e-06
5.20708e-06
5.20805e-06
5.20895e-06
5.20981e-06
5.21064e-06
5.21144e-06
5.21221e-06
5.21297e-06
5.2137e-06
5.21441e-06
5.2151e-06
5.21577e-06
5.21642e-06
5.21705e-06
5.21767e-06
5.21827e-06
5.21886e-06
5.21943e-06
5.21999e-06
5.22053e-06
5.22106e-06
5.22157e-06
5.22207e-06
5.22256e-06
5.22304e-06
5.22351e-06
5.22396e-06
5.22441e-06
5.22484e-06
5.22527e-06
5.22568e-06
5.22609e-06
5.22649e-06
5.22688e-06
5.22726e-06
5.22764e-06
5.22801e-06
5.22838e-06
5.22874e-06
5.2291e-06
5.22945e-06
5.2298e-06
5.23015e-06
5.2305e-06
5.23085e-06
5.2312e-06
5.23154e-06
5.23189e-06
5.23224e-06
5.23259e-06
5.23295e-06
5.2333e-06
5.23366e-06
5.23402e-06
5.23438e-06
5.23476e-06
5.20709e-06
5.20806e-06
5.20898e-06
5.20984e-06
5.21068e-06
5.21148e-06
5.21226e-06
5.21302e-06
5.21375e-06
5.21446e-06
5.21515e-06
5.21582e-06
5.21647e-06
5.2171e-06
5.21772e-06
5.21832e-06
5.2189e-06
5.21947e-06
5.22002e-06
5.22056e-06
5.22108e-06
5.22159e-06
5.22209e-06
5.22257e-06
5.22305e-06
5.22351e-06
5.22396e-06
5.2244e-06
5.22483e-06
5.22525e-06
5.22566e-06
5.22606e-06
5.22646e-06
5.22684e-06
5.22722e-06
5.2276e-06
5.22796e-06
5.22832e-06
5.22868e-06
5.22904e-06
5.22939e-06
5.22974e-06
5.23008e-06
5.23043e-06
5.23077e-06
5.23111e-06
5.23146e-06
5.2318e-06
5.23215e-06
5.23249e-06
5.23284e-06
5.23319e-06
5.23355e-06
5.2339e-06
5.23427e-06
5.23462e-06
5.235e-06
5.20709e-06
5.20808e-06
5.209e-06
5.20988e-06
5.21072e-06
5.21153e-06
5.21231e-06
5.21307e-06
5.2138e-06
5.21451e-06
5.2152e-06
5.21587e-06
5.21652e-06
5.21715e-06
5.21777e-06
5.21836e-06
5.21894e-06
5.2195e-06
5.22005e-06
5.22059e-06
5.22111e-06
5.22161e-06
5.22211e-06
5.22259e-06
5.22306e-06
5.22351e-06
5.22396e-06
5.22439e-06
5.22482e-06
5.22524e-06
5.22564e-06
5.22604e-06
5.22643e-06
5.22681e-06
5.22719e-06
5.22755e-06
5.22792e-06
5.22828e-06
5.22863e-06
5.22898e-06
5.22933e-06
5.22967e-06
5.23001e-06
5.23035e-06
5.23069e-06
5.23103e-06
5.23137e-06
5.23171e-06
5.23205e-06
5.2324e-06
5.23274e-06
5.23309e-06
5.23344e-06
5.23379e-06
5.23415e-06
5.23451e-06
5.23487e-06
5.23525e-06
5.20709e-06
5.20809e-06
5.20902e-06
5.20991e-06
5.21075e-06
5.21157e-06
5.21236e-06
5.21312e-06
5.21385e-06
5.21457e-06
5.21526e-06
5.21592e-06
5.21657e-06
5.2172e-06
5.21781e-06
5.21841e-06
5.21898e-06
5.21954e-06
5.22009e-06
5.22062e-06
5.22113e-06
5.22164e-06
5.22213e-06
5.2226e-06
5.22307e-06
5.22352e-06
5.22396e-06
5.22439e-06
5.22481e-06
5.22522e-06
5.22562e-06
5.22602e-06
5.2264e-06
5.22678e-06
5.22715e-06
5.22752e-06
5.22787e-06
5.22823e-06
5.22858e-06
5.22892e-06
5.22927e-06
5.22961e-06
5.22995e-06
5.23028e-06
5.23062e-06
5.23095e-06
5.23129e-06
5.23163e-06
5.23196e-06
5.2323e-06
5.23264e-06
5.23298e-06
5.23333e-06
5.23368e-06
5.23403e-06
5.23439e-06
5.23476e-06
5.23511e-06
5.2355e-06
5.2071e-06
5.2081e-06
5.20904e-06
5.20994e-06
5.21079e-06
5.21161e-06
5.2124e-06
5.21317e-06
5.2139e-06
5.21462e-06
5.21531e-06
5.21598e-06
5.21662e-06
5.21725e-06
5.21786e-06
5.21845e-06
5.21902e-06
5.21958e-06
5.22012e-06
5.22065e-06
5.22116e-06
5.22166e-06
5.22214e-06
5.22262e-06
5.22308e-06
5.22353e-06
5.22396e-06
5.22439e-06
5.22481e-06
5.22521e-06
5.22561e-06
5.226e-06
5.22638e-06
5.22675e-06
5.22712e-06
5.22748e-06
5.22783e-06
5.22818e-06
5.22853e-06
5.22887e-06
5.22921e-06
5.22955e-06
5.22988e-06
5.23022e-06
5.23055e-06
5.23088e-06
5.23121e-06
5.23154e-06
5.23188e-06
5.23221e-06
5.23255e-06
5.23288e-06
5.23323e-06
5.23357e-06
5.23392e-06
5.23428e-06
5.23463e-06
5.235e-06
5.23536e-06
5.23574e-06
5.2071e-06
5.20811e-06
5.20906e-06
5.20996e-06
5.21082e-06
5.21165e-06
5.21245e-06
5.21321e-06
5.21395e-06
5.21467e-06
5.21536e-06
5.21603e-06
5.21667e-06
5.2173e-06
5.21791e-06
5.21849e-06
5.21907e-06
5.21962e-06
5.22016e-06
5.22068e-06
5.22119e-06
5.22168e-06
5.22217e-06
5.22263e-06
5.22309e-06
5.22353e-06
5.22397e-06
5.22439e-06
5.2248e-06
5.2252e-06
5.2256e-06
5.22598e-06
5.22636e-06
5.22673e-06
5.22709e-06
5.22745e-06
5.2278e-06
5.22814e-06
5.22849e-06
5.22882e-06
5.22916e-06
5.22949e-06
5.22982e-06
5.23015e-06
5.23048e-06
5.23081e-06
5.23113e-06
5.23146e-06
5.23179e-06
5.23212e-06
5.23245e-06
5.23279e-06
5.23313e-06
5.23347e-06
5.23381e-06
5.23416e-06
5.23452e-06
5.23488e-06
5.23525e-06
5.23561e-06
5.23599e-06
5.2071e-06
5.20813e-06
5.20908e-06
5.20999e-06
5.21086e-06
5.21169e-06
5.21249e-06
5.21326e-06
5.214e-06
5.21472e-06
5.21541e-06
5.21608e-06
5.21672e-06
5.21735e-06
5.21795e-06
5.21854e-06
5.21911e-06
5.21966e-06
5.22019e-06
5.22071e-06
5.22122e-06
5.22171e-06
5.22219e-06
5.22265e-06
5.2231e-06
5.22354e-06
5.22397e-06
5.22439e-06
5.2248e-06
5.2252e-06
5.22558e-06
5.22596e-06
5.22634e-06
5.2267e-06
5.22706e-06
5.22741e-06
5.22776e-06
5.2281e-06
5.22844e-06
5.22878e-06
5.22911e-06
5.22944e-06
5.22976e-06
5.23009e-06
5.23041e-06
5.23074e-06
5.23106e-06
5.23138e-06
5.23171e-06
5.23204e-06
5.23236e-06
5.23269e-06
5.23303e-06
5.23336e-06
5.23371e-06
5.23405e-06
5.2344e-06
5.23476e-06
5.23512e-06
5.23549e-06
5.23585e-06
5.23624e-06
5.20711e-06
5.20814e-06
5.2091e-06
5.21002e-06
5.21089e-06
5.21173e-06
5.21253e-06
5.2133e-06
5.21405e-06
5.21477e-06
5.21546e-06
5.21612e-06
5.21677e-06
5.21739e-06
5.218e-06
5.21858e-06
5.21915e-06
5.2197e-06
5.22023e-06
5.22075e-06
5.22125e-06
5.22174e-06
5.22221e-06
5.22267e-06
5.22312e-06
5.22355e-06
5.22398e-06
5.22439e-06
5.2248e-06
5.22519e-06
5.22557e-06
5.22595e-06
5.22632e-06
5.22668e-06
5.22704e-06
5.22738e-06
5.22773e-06
5.22807e-06
5.2284e-06
5.22873e-06
5.22906e-06
5.22938e-06
5.22971e-06
5.23003e-06
5.23035e-06
5.23067e-06
5.23099e-06
5.23131e-06
5.23163e-06
5.23195e-06
5.23228e-06
5.2326e-06
5.23293e-06
5.23327e-06
5.2336e-06
5.23394e-06
5.23429e-06
5.23464e-06
5.235e-06
5.23536e-06
5.23574e-06
5.2361e-06
5.23649e-06
5.20711e-06
5.20815e-06
5.20912e-06
5.21004e-06
5.21092e-06
5.21177e-06
5.21257e-06
5.21335e-06
5.2141e-06
5.21481e-06
5.21551e-06
5.21617e-06
5.21682e-06
5.21744e-06
5.21804e-06
5.21863e-06
5.21919e-06
5.21974e-06
5.22027e-06
5.22078e-06
5.22128e-06
5.22176e-06
5.22223e-06
5.22269e-06
5.22313e-06
5.22357e-06
5.22399e-06
5.2244e-06
5.22479e-06
5.22518e-06
5.22557e-06
5.22594e-06
5.2263e-06
5.22666e-06
5.22701e-06
5.22736e-06
5.2277e-06
5.22803e-06
5.22836e-06
5.22869e-06
5.22901e-06
5.22934e-06
5.22965e-06
5.22997e-06
5.23029e-06
5.2306e-06
5.23092e-06
5.23124e-06
5.23155e-06
5.23187e-06
5.23219e-06
5.23251e-06
5.23284e-06
5.23317e-06
5.2335e-06
5.23384e-06
5.23418e-06
5.23453e-06
5.23488e-06
5.23524e-06
5.23561e-06
5.23598e-06
5.23635e-06
5.23674e-06
5.20711e-06
5.20816e-06
5.20914e-06
5.21007e-06
5.21096e-06
5.2118e-06
5.21261e-06
5.21339e-06
5.21414e-06
5.21486e-06
5.21556e-06
5.21622e-06
5.21687e-06
5.21749e-06
5.21809e-06
5.21867e-06
5.21923e-06
5.21978e-06
5.22031e-06
5.22082e-06
5.22131e-06
5.22179e-06
5.22226e-06
5.22271e-06
5.22315e-06
5.22358e-06
5.22399e-06
5.2244e-06
5.2248e-06
5.22518e-06
5.22556e-06
5.22593e-06
5.22629e-06
5.22664e-06
5.22699e-06
5.22733e-06
5.22767e-06
5.228e-06
5.22833e-06
5.22865e-06
5.22897e-06
5.22929e-06
5.2296e-06
5.22992e-06
5.23023e-06
5.23054e-06
5.23085e-06
5.23116e-06
5.23148e-06
5.23179e-06
5.23211e-06
5.23243e-06
5.23275e-06
5.23307e-06
5.2334e-06
5.23374e-06
5.23408e-06
5.23442e-06
5.23477e-06
5.23512e-06
5.23548e-06
5.23585e-06
5.23623e-06
5.2366e-06
5.23699e-06
5.20712e-06
5.20817e-06
5.20916e-06
5.2101e-06
5.21099e-06
5.21184e-06
5.21266e-06
5.21344e-06
5.21419e-06
5.21491e-06
5.2156e-06
5.21627e-06
5.21692e-06
5.21754e-06
5.21814e-06
5.21872e-06
5.21928e-06
5.21982e-06
5.22034e-06
5.22085e-06
5.22134e-06
5.22182e-06
5.22228e-06
5.22273e-06
5.22317e-06
5.22359e-06
5.224e-06
5.22441e-06
5.2248e-06
5.22518e-06
5.22555e-06
5.22592e-06
5.22628e-06
5.22663e-06
5.22697e-06
5.22731e-06
5.22764e-06
5.22797e-06
5.22829e-06
5.22861e-06
5.22893e-06
5.22924e-06
5.22955e-06
5.22986e-06
5.23017e-06
5.23048e-06
5.23079e-06
5.2311e-06
5.23141e-06
5.23172e-06
5.23203e-06
5.23234e-06
5.23266e-06
5.23298e-06
5.23331e-06
5.23364e-06
5.23397e-06
5.23431e-06
5.23466e-06
5.23501e-06
5.23536e-06
5.23573e-06
5.2361e-06
5.23648e-06
5.23685e-06
5.23724e-06
5.20712e-06
5.20818e-06
5.20918e-06
5.21012e-06
5.21102e-06
5.21187e-06
5.21269e-06
5.21348e-06
5.21423e-06
5.21496e-06
5.21565e-06
5.21632e-06
5.21696e-06
5.21758e-06
5.21818e-06
5.21876e-06
5.21932e-06
5.21986e-06
5.22038e-06
5.22088e-06
5.22137e-06
5.22185e-06
5.22231e-06
5.22275e-06
5.22318e-06
5.22361e-06
5.22401e-06
5.22441e-06
5.2248e-06
5.22518e-06
5.22555e-06
5.22591e-06
5.22627e-06
5.22661e-06
5.22695e-06
5.22729e-06
5.22762e-06
5.22794e-06
5.22826e-06
5.22858e-06
5.22889e-06
5.2292e-06
5.22951e-06
5.22981e-06
5.23012e-06
5.23042e-06
5.23073e-06
5.23103e-06
5.23134e-06
5.23164e-06
5.23195e-06
5.23226e-06
5.23258e-06
5.23289e-06
5.23322e-06
5.23354e-06
5.23387e-06
5.23421e-06
5.23455e-06
5.23489e-06
5.23525e-06
5.23561e-06
5.23597e-06
5.23634e-06
5.23672e-06
5.2371e-06
5.23749e-06
5.20712e-06
5.20819e-06
5.20919e-06
5.21014e-06
5.21105e-06
5.21191e-06
5.21273e-06
5.21352e-06
5.21428e-06
5.215e-06
5.2157e-06
5.21637e-06
5.21701e-06
5.21763e-06
5.21823e-06
5.2188e-06
5.21936e-06
5.2199e-06
5.22042e-06
5.22092e-06
5.2214e-06
5.22187e-06
5.22233e-06
5.22277e-06
5.2232e-06
5.22362e-06
5.22403e-06
5.22442e-06
5.22481e-06
5.22518e-06
5.22555e-06
5.22591e-06
5.22626e-06
5.2266e-06
5.22694e-06
5.22727e-06
5.22759e-06
5.22791e-06
5.22823e-06
5.22854e-06
5.22885e-06
5.22916e-06
5.22946e-06
5.22976e-06
5.23006e-06
5.23037e-06
5.23067e-06
5.23097e-06
5.23127e-06
5.23157e-06
5.23188e-06
5.23218e-06
5.23249e-06
5.23281e-06
5.23313e-06
5.23345e-06
5.23377e-06
5.23411e-06
5.23444e-06
5.23478e-06
5.23513e-06
5.23549e-06
5.23585e-06
5.23621e-06
5.23659e-06
5.23697e-06
5.23735e-06
5.23774e-06
5.20713e-06
5.2082e-06
5.20921e-06
5.21017e-06
5.21108e-06
5.21194e-06
5.21277e-06
5.21356e-06
5.21432e-06
5.21505e-06
5.21574e-06
5.21641e-06
5.21706e-06
5.21768e-06
5.21827e-06
5.21885e-06
5.2194e-06
5.21994e-06
5.22045e-06
5.22095e-06
5.22144e-06
5.2219e-06
5.22236e-06
5.2228e-06
5.22322e-06
5.22364e-06
5.22404e-06
5.22443e-06
5.22481e-06
5.22518e-06
5.22555e-06
5.2259e-06
5.22625e-06
5.22659e-06
5.22692e-06
5.22725e-06
5.22757e-06
5.22789e-06
5.2282e-06
5.22851e-06
5.22882e-06
5.22912e-06
5.22942e-06
5.22972e-06
5.23001e-06
5.23031e-06
5.23061e-06
5.2309e-06
5.2312e-06
5.2315e-06
5.2318e-06
5.23211e-06
5.23241e-06
5.23272e-06
5.23304e-06
5.23336e-06
5.23368e-06
5.23401e-06
5.23434e-06
5.23468e-06
5.23502e-06
5.23537e-06
5.23573e-06
5.23609e-06
5.23646e-06
5.23683e-06
5.23722e-06
5.2376e-06
5.238e-06
5.20713e-06
5.20821e-06
5.20923e-06
5.21019e-06
5.2111e-06
5.21198e-06
5.21281e-06
5.2136e-06
5.21436e-06
5.21509e-06
5.21579e-06
5.21646e-06
5.2171e-06
5.21772e-06
5.21832e-06
5.21889e-06
5.21944e-06
5.21997e-06
5.22049e-06
5.22099e-06
5.22147e-06
5.22193e-06
5.22238e-06
5.22282e-06
5.22324e-06
5.22365e-06
5.22405e-06
5.22444e-06
5.22482e-06
5.22519e-06
5.22555e-06
5.2259e-06
5.22624e-06
5.22658e-06
5.22691e-06
5.22723e-06
5.22755e-06
5.22787e-06
5.22817e-06
5.22848e-06
5.22878e-06
5.22908e-06
5.22938e-06
5.22967e-06
5.22997e-06
5.23026e-06
5.23055e-06
5.23085e-06
5.23114e-06
5.23144e-06
5.23173e-06
5.23203e-06
5.23234e-06
5.23264e-06
5.23295e-06
5.23327e-06
5.23358e-06
5.23391e-06
5.23424e-06
5.23457e-06
5.23491e-06
5.23526e-06
5.23561e-06
5.23597e-06