/*--------------------------------*- C++ -*----------------------------------*\
  =========                 |
  \\      /  F ield         | OpenFOAM: The Open Source CFD Toolbox
   \\    /   O peration     | Website:  https://openfoam.org
    \\  /    A nd           | Version:  7
     \\/     M anipulation  |
\*---------------------------------------------------------------------------*/
FoamFile
{
    version     2.0;
    format      ascii;
    class       volScalarField;
    location    "800";
    object      p;
}
// * * * * * * * * * * * * * * * * * * * * * * * * * * * * * * * * * * * * * //

dimensions      [0 2 -2 0 0 0 0];

internalField   nonuniform List<scalar> 
23052
(
37.582
35.2824
24.0807
33.7726
25.1711
27.5677
32.6963
25.6377
26.8649
28.3176
31.9178
25.8338
26.4794
28.408
29.1339
29.9688
31.3253
25.9041
26.2343
28.3496
29.0229
29.9762
31.1826
32.1395
30.8563
25.9242
26.0583
28.2359
28.9435
29.9273
31.0881
32.1366
33.338
30.4691
25.9282
25.9188
28.1029
28.8663
29.8505
31.0024
32.0882
33.2937
34.4571
30.1396
25.9297
25.8018
27.9661
28.7834
29.7606
30.914
32.02
33.2088
34.4271
35.6805
29.847
25.9334
25.7004
27.8309
28.6939
29.6626
30.8186
31.937
33.12
34.3483
35.6376
36.9223
29.5794
25.9387
25.6113
27.6992
28.5988
29.5585
30.7158
31.8428
33.0238
34.2578
35.5443
36.8795
38.2254
29.3312
25.944
25.5311
27.5708
28.4991
29.4496
30.6055
31.7392
32.9192
34.1563
35.4433
36.7812
38.1766
39.5705
29.0915
25.9474
25.4579
27.4449
28.3956
29.3362
30.4884
31.6267
32.8062
34.0449
35.3328
36.6734
38.0691
39.519
40.9696
28.8602
25.9458
25.3898
27.3207
28.2887
29.2187
30.3652
31.5061
32.685
33.9242
35.2131
36.5551
37.9528
39.4046
40.914
42.4195
28.6325
25.9378
25.3244
27.1972
28.1784
29.097
30.236
31.3782
32.5559
33.7948
35.0843
36.4273
37.8262
39.2809
40.7919
42.3606
43.9249
28.4044
25.9213
25.2601
27.0732
28.0644
28.9714
30.1012
31.2431
32.4189
33.6568
34.9464
36.2899
37.69
39.1465
40.6606
42.2316
43.8625
45.4866
28.1767
25.8951
25.1952
26.9478
27.9463
28.8418
29.9609
31.101
32.2745
33.5105
34.7997
36.1433
37.5441
39.0022
40.5183
42.0931
43.7266
45.4211
47.1079
27.9485
25.8586
25.1282
26.8204
27.8236
28.7076
29.8151
30.9523
32.1224
33.3562
34.6444
35.9877
37.3887
38.8479
40.3659
41.9433
43.581
45.2786
47.0392
48.7909
27.7166
25.8106
25.0579
26.6899
27.6962
28.5688
29.6638
30.7969
31.9632
33.1938
34.4807
35.8231
37.224
38.6839
40.2033
41.7831
43.4238
45.1262
46.8902
48.7192
50.5385
27.4799
25.7504
24.983
26.5558
27.5633
28.425
29.5069
30.635
31.7971
33.0239
34.3086
35.6498
37.0501
38.5103
40.0307
41.6124
43.2559
44.9618
46.7313
48.564
50.4637
52.3536
27.241
25.6777
24.9024
26.4173
27.4246
28.2761
29.3442
30.4667
31.6237
32.8464
34.1285
35.4678
36.8672
38.3272
39.8483
41.4314
43.0772
44.7864
46.5599
48.3986
50.3026
52.2757
54.2388
26.9979
25.593
24.8157
26.2738
27.2797
28.1216
29.1759
30.2917
31.4434
32.6613
33.9403
35.2775
36.6754
38.1348
39.6561
41.2402
42.8879
44.5999
46.377
48.2203
50.1309
52.1086
54.158
56.1976
26.7488
25.4956
24.7223
26.125
27.1283
27.9611
29.0016
30.1103
31.2562
32.4689
33.7442
35.0788
36.4749
37.9333
39.4544
41.0391
42.6882
44.4025
46.1829
48.0303
49.9458
51.9308
53.9851
56.1136
58.2328
26.4951
25.3854
24.6212
25.9705
26.9702
27.7946
28.8212
29.9222
31.0621
32.2692
33.5404
34.8719
36.2658
37.7227
39.2432
40.8281
42.4782
44.1943
45.9774
47.8285
49.7487
51.7391
53.8012
55.935
58.1457
60.3478
26.238
25.2627
24.5122
25.8099
26.8051
27.6219
28.6346
29.7276
30.8611
32.0622
33.3289
34.6569
36.0481
37.5032
39.0227
40.6074
42.258
43.9755
45.7609
47.6152
49.5395
51.535
53.603
55.7451
57.9615
60.2575
62.5457
25.975
25.1278
24.3951
25.6429
26.6329
27.4426
28.4418
29.5264
30.6531
31.848
33.1097
34.4339
35.8221
37.275
38.793
40.377
42.0278
43.7463
45.5335
47.3904
49.3183
51.3183
53.3919
55.5403
57.7654
60.0676
62.4522
64.8301
25.7078
24.9806
24.2695
25.4695
26.4535
27.2565
28.2425
29.3185
30.4384
31.6266
32.8831
34.203
35.5877
37.038
38.5543
40.1372
41.7878
43.5068
45.2953
47.1544
49.0854
51.0894
53.1679
55.3224
57.5542
59.8655
62.2565
64.7331
67.2043
25.4358
24.8217
24.1352
25.2893
26.2666
27.0637
28.0367
29.1038
30.2166
31.3981
32.649
33.9644
35.3453
36.7926
38.3066
39.8881
41.5379
43.257
45.0464
46.9073
48.8408
50.8483
52.9312
55.091
57.3294
59.6477
62.0484
64.5317
67.1036
69.6717
25.159
24.6513
23.9922
25.1023
26.0724
26.864
27.8243
28.8825
29.9881
31.1626
32.4075
33.718
35.0947
36.5387
38.0501
39.6297
41.2784
42.9972
44.7871
46.6492
48.5848
50.5952
52.682
54.8466
57.0906
59.4159
61.8241
64.3174
66.8964
69.5672
72.2356
24.8782
24.4698
23.8404
24.9086
25.8707
26.6573
27.6054
28.6544
29.7527
30.92
32.1587
33.464
34.8362
36.2764
37.7849
39.3623
41.0095
42.7275
44.5173
46.3802
48.3174
50.3303
52.4204
54.5892
56.8385
59.1698
61.5853
64.0864
66.6759
69.3539
72.1272
74.8997
24.5924
24.2775
23.6798
24.7079
25.6616
26.4435
27.3799
28.4196
29.5105
30.6705
31.9028
33.2025
34.5699
36.006
37.5111
39.0859
40.7311
42.4479
44.2374
46.1006
48.0389
50.0538
52.1466
54.3191
56.5729
58.9098
61.3317
63.8406
66.4381
69.1271
71.9079
74.7872
77.6676
24.3029
24.0744
23.5103
24.5003
25.4452
26.2228
27.1477
28.1782
29.2615
30.414
31.6396
32.9335
34.2958
35.7275
37.2289
38.8006
40.4435
42.1587
43.9473
45.8103
47.7493
49.7656
51.8608
54.0364
56.2942
58.636
61.0638
63.5794
66.1851
68.8826
71.6747
74.5617
77.5507
80.5427
24.0092
23.8614
23.3321
24.2859
25.2215
25.9951
26.9089
27.93
29.0058
30.1507
31.3694
32.6572
34.0141
35.441
36.9383
38.5066
40.1468
41.86
43.6472
45.5097
47.4488
49.4661
51.563
53.7412
56.0025
58.3487
60.7817
63.3036
65.9164
68.6222
71.4232
74.322
77.3189
80.4211
83.5285
23.7114
23.6387
23.1453
24.0647
24.9906
25.7604
26.6636
27.6753
28.7434
29.8807
31.0922
32.3737
33.7248
35.1466
36.6395
38.2039
39.8411
41.5518
43.3372
45.1987
47.1376
49.1552
51.2535
53.4338
55.6979
58.0479
60.4856
63.0131
65.6324
68.3457
71.1553
74.0633
77.0723
80.183
83.4021
86.6284
23.4097
23.4066
22.95
23.8368
24.7527
25.5188
26.4117
27.4141
28.4744
29.6039
30.8081
32.083
33.4281
34.8445
36.3325
37.8929
39.5264
41.2343
43.0176
44.8776
46.8157
48.8334
50.9323
53.1141
55.3807
57.7339
60.1756
62.7081
65.3333
68.0535
70.871
73.7878
76.8064
79.9294
83.1575
86.4972
89.8465
23.1047
23.1655
22.7463
23.6022
24.5078
25.2705
26.1535
27.1465
28.1989
29.3205
30.5172
31.7853
33.1241
34.5347
36.0176
37.5734
39.2031
40.9076
42.6883
44.5464
46.4832
48.5004
50.5996
52.7825
55.051
57.4068
59.852
62.3889
65.0194
67.7458
70.5703
73.4954
76.5233
79.6561
82.8968
86.2459
89.7101
93.1859
22.7962
22.9158
22.5343
23.3612
24.2561
25.0154
25.8888
26.8724
27.917
29.0306
30.2196
31.4806
32.8128
34.2174
35.6948
37.2457
38.8711
40.572
42.3495
44.2052
46.1404
48.1566
50.2556
52.439
54.7087
57.0666
59.5149
62.0555
64.6907
67.4227
70.2538
73.1863
76.2226
79.3652
82.616
85.9781
89.4519
93.0442
96.65
22.4846
22.6579
22.3144
23.1137
23.9978
24.7538
25.6179
26.5922
27.6288
28.7343
29.9155
31.1691
32.4945
33.8927
35.3643
36.9099
38.5305
40.2273
42.0014
43.8543
45.7873
47.802
49.9003
52.0837
54.3541
56.7137
59.1644
61.7082
64.3474
67.0845
69.9214
72.8608
75.9049
79.0562
82.3169
85.6896
89.1767
92.779
96.503
100.243
22.1695
22.3923
22.0867
22.86
23.733
24.4858
25.3408
26.3057
27.3343
28.4317
29.6048
30.8509
32.1692
33.5607
35.0261
36.5661
38.1816
39.8739
41.6441
43.4937
45.4241
47.4369
49.5338
51.7167
53.9875
56.348
58.8005
61.347
63.9897
66.7311
69.5734
72.5189
75.5701
78.7296
81.9994
85.3823
88.8805
92.4964
96.2308
100.09
103.968
21.8514
22.1192
21.8513
22.6002
23.4619
24.2114
25.0577
26.0133
27.0337
28.1228
29.2878
30.5261
31.8371
33.2216
34.6805
36.2144
37.8245
39.5118
41.2777
43.1235
45.0508
47.0612
49.1565
51.3383
53.6088
55.9698
58.4235
60.9721
63.6178
66.3628
69.2098
72.1609
75.2186
78.3855
81.6638
85.0561
88.5648
92.1922
95.9408
99.8109
103.809
107.828
21.5306
21.839
21.6084
22.3346
23.1848
23.9309
24.7687
25.7149
26.7271
27.8079
28.9646
30.1949
31.4982
32.8755
34.3275
35.8551
37.4592
39.1412
40.9023
42.7439
44.6676
46.6751
48.7681
50.9485
53.2182
55.5791
58.0336
60.5836
63.2317
65.9799
68.8308
71.7869
74.8505
78.0241
81.3102
84.7113
88.2298
91.8682
95.6285
99.5133
103.523
107.664
111.828
21.2077
21.5521
21.3585
22.0631
22.9017
23.6444
24.4739
25.4109
26.4147
27.4871
28.6352
29.8574
31.1527
32.5225
33.9673
35.4881
37.086
38.7622
40.5181
42.3551
44.2747
46.2788
48.369
50.5474
52.8157
55.1761
57.6307
60.1817
62.8315
65.5824
68.4367
71.3971
74.4658
77.6456
80.9388
84.3481
87.8757
91.5242
95.296
99.1928
103.218
107.37
111.657
115.97
20.8814
21.2588
21.1015
21.786
22.6129
23.3521
24.1735
25.1012
26.0966
27.1605
28.2999
29.5136
30.8009
32.1627
33.6
35.1137
36.705
38.375
40.1252
41.9571
43.8722
45.8724
47.9594
50.1351
52.4015
54.7608
57.215
59.7665
62.4174
65.1703
68.0275
70.9915
74.0649
77.2501
80.5497
83.9664
87.5027
91.1607
94.943
98.8517
102.889
107.057
111.357
115.793
120.258
20.5528
20.9596
20.8379
21.5036
22.3187
23.0542
23.8677
24.786
25.773
26.8281
27.9588
29.1638
30.4427
31.7963
33.2258
34.732
36.3162
37.9796
39.7237
41.55
43.4602
45.456
47.5392
49.7119
51.9759
54.3334
56.7867
59.3379
61.9895
64.7438
67.6032
70.5704
73.6477
76.8379
80.1434
83.5667
87.1105
90.7775
94.5697
98.4897
102.539
106.721
111.036
115.486
120.075
124.695
20.2222
20.6547
20.5678
21.2159
22.0191
22.7509
23.5565
24.4656
25.4439
26.4903
27.612
28.8082
30.0783
31.4235
32.8448
34.3432
35.9199
37.5763
39.3139
41.1341
43.0388
45.0297
47.1087
49.2777
51.5387
53.8941
56.3458
58.8963
61.5479
64.303
67.164
70.1337
73.2144
76.4089
79.7195
83.1492
86.7001
90.375
94.1765
98.1067
102.168
106.362
110.692
115.158
119.761
124.507
129.286
19.8899
20.3445
20.2915
20.9232
21.7144
22.4423
23.2403
24.14
25.1096
26.1472
27.2596
28.4467
29.7079
31.0443
32.4571
33.9473
35.5161
37.1651
38.8957
40.7095
42.6082
44.5937
46.6679
48.8327
51.0903
53.4428
55.8925
58.4416
61.0927
63.848
66.7101
69.6817
72.7652
75.9632
79.2784
82.7136
86.271
89.9535
93.7634
97.7032
101.776
105.982
110.325
114.805
119.426
124.186
129.091
134.032
19.5553
20.0293
20.0092
20.6257
21.4049
22.1286
22.9191
23.8094
24.7703
25.7988
26.9019
28.0797
29.3317
30.6591
32.0629
33.5446
35.1052
36.7463
38.4694
40.2763
42.1686
44.1481
46.217
48.3771
50.6306
52.9798
55.4269
57.9741
60.624
63.379
66.2416
69.2144
72.3
75.5011
78.8202
82.2601
85.8235
89.5128
93.3306
97.2795
101.362
105.58
109.935
114.43
119.065
123.844
128.764
133.831
138.938
19.2187
19.7095
19.7213
20.3235
21.0907
21.8102
22.5931
23.4741
24.426
25.4454
26.539
27.7073
28.9498
30.2678
31.6625
33.1352
34.6871
36.32
38.0352
39.8346
41.7199
43.6931
45.7561
47.911
50.16
52.5052
54.9491
57.4937
60.1419
62.8959
65.7583
68.7318
71.819
75.0225
78.3449
81.7891
85.3576
89.0531
92.8782
96.8354
100.927
105.155
109.523
114.031
118.681
123.476
128.415
133.499
138.731
144.006
18.8809
19.3853
19.4279
20.0168
20.7721
21.487
22.2626
23.1342
24.077
25.0871
26.171
27.3295
28.5623
29.8706
31.2558
32.7192
34.2621
35.8862
37.5931
39.3846
41.2625
43.2287
45.2854
47.4345
49.6783
52.019
54.4591
57.0007
59.6464
62.3989
65.2605
68.2342
71.3221
74.5274
77.8527
81.3005
84.8735
88.5746
92.4062
96.371
100.472
104.71
109.088
113.609
118.274
123.083
128.04
133.143
138.393
143.794
149.24
18.5412
19.0572
19.1292
19.7059
20.4492
21.1594
21.9276
22.7899
23.7234
24.7241
25.7981
26.9467
28.1695
29.4678
30.8432
32.2968
33.8303
35.4453
37.1434
38.9265
40.7964
42.7552
44.8049
46.9477
49.1858
51.5215
53.9571
56.4951
59.1378
61.8882
64.7484
67.7214
70.8097
74.0162
77.3433
80.7942
84.3712
88.0772
91.9148
95.8865
99.9952
104.243
108.632
113.164
117.842
122.667
127.639
132.761
138.031
143.451
149.022
154.642
18.2001
18.7253
18.8256
19.3909
20.1224
20.8276
21.5884
22.4412
23.3654
24.3566
25.4206
26.5589
27.7715
29.0595
30.4246
31.8682
33.3919
34.9973
36.6862
38.4604
40.3219
42.2727
44.315
46.4509
48.6826
51.0126
53.4432
55.977
58.6162
61.3636
64.222
67.1936
70.2817
73.4886
76.8172
80.2703
83.8506
87.5609
91.4039
95.3822
99.4981
103.754
108.153
112.697
117.387
122.226
127.214
132.352
137.642
143.084
148.675
154.42
160.217
17.8578
18.3899
18.5174
19.0721
19.7917
20.4918
21.2452
22.0885
23.0033
23.9847
25.0385
26.1664
27.3684
28.6459
30.0004
31.4336
32.947
34.5424
36.2215
37.9865
39.839
41.7813
43.8155
45.9439
48.1688
50.4926
52.9176
55.4464
58.0814
60.8255
63.6812
66.6512
69.7381
72.9449
76.2743
79.729
83.3119
87.0259
90.8735
94.8576
98.9804
103.245
107.653
112.207
116.909
121.761
126.763
131.919
137.227
142.688
148.303
154.07
159.99
165.966
17.5141
18.0514
18.2047
18.7496
19.4574
20.1521
20.8982
21.732
22.6371
23.6086
24.652
25.7692
26.9604
28.227
29.5707
30.9931
32.4958
34.0808
35.7498
37.5048
39.3479
41.2812
43.3069
45.4272
47.6447
49.9616
52.3804
54.9037
57.5339
60.2738
63.1262
66.0937
69.179
72.3852
75.7146
79.1704
82.7554
86.4723
90.3239
94.3128
98.442
102.714
107.13
111.694
116.407
121.272
126.289
131.46
136.785
142.267
147.902
153.693
159.637
165.735
171.891
17.1694
17.71
17.8877
18.4236
19.1197
19.8088
20.5475
21.3717
22.2671
23.2285
24.2613
25.3676
26.5478
27.8032
29.1357
30.5469
32.0386
33.6127
35.271
37.0157
38.8488
40.7725
42.7891
44.9009
47.1103
49.4197
51.8317
54.3487
56.9736
59.7088
62.5572
65.5215
68.6046
71.8091
75.1383
78.5943
82.1807
85.9
89.7548
93.7483
97.8828
102.161
106.586
111.159
115.882
120.758
125.789
130.975
136.318
141.817
147.474
153.288
159.257
165.38
171.657
177.997
16.8237
17.366
17.5668
18.0944
18.7788
19.462
20.1934
21.008
21.8934
22.8446
23.8667
24.9618
26.1306
27.3746
28.6955
30.0952
31.5754
33.1381
34.7854
36.5192
38.3419
40.2555
42.2623
44.365
46.5657
48.867
51.2715
53.7818
56.4006
59.1304
61.9742
64.9348
68.0148
71.2173
74.5452
78.001
81.5879
85.3089
89.1664
93.1636
97.3031
101.587
106.019
110.601
115.334
120.222
125.265
130.465
135.824
141.341
147.018
152.854
158.847
164.998
171.302
177.76
184.284
16.4773
17.0196
17.2423
17.762
18.435
19.1121
19.836
20.6409
21.5163
22.4571
23.4682
24.552
25.7091
26.9413
28.2503
29.6381
31.1064
32.6574
34.2931
36.0156
37.8272
39.7302
41.7269
43.8196
46.0112
48.3037
50.7002
53.203
55.815
58.5388
61.3774
64.3334
67.4099
70.6094
73.9354
77.3903
80.9773
84.6992
88.5588
92.559
96.7026
100.992
105.431
110.02
114.763
119.661
124.716
129.93
135.304
140.839
146.534
152.392
158.409
164.585
170.919
177.406
184.047
190.755
16.1301
16.671
16.9143
17.4268
18.0884
18.7591
19.4755
20.2707
21.1359
22.0662
23.066
24.1382
25.2835
26.5035
27.8004
29.1758
30.6319
32.1707
33.7943
35.5051
37.3051
39.1968
41.1827
43.2651
45.4467
47.73
50.1177
52.6125
55.2169
57.9341
60.7668
63.7175
66.7896
69.9858
73.3092
76.7623
80.3487
84.0708
87.9318
91.9344
96.0816
100.376
104.82
109.417
114.168
119.076
124.142
129.369
134.758
140.309
146.024
151.901
157.941
164.142
170.504
177.022
183.694
190.519
197.414
15.7823
16.3206
16.583
17.0888
17.7392
18.4034
19.1121
19.8975
20.7524
21.6719
22.6604
23.7208
24.8539
26.0615
27.3458
28.7086
30.1519
31.6781
33.2892
34.9877
36.7756
38.6556
40.6301
42.7016
44.8727
47.146
49.5243
52.0103
54.6067
57.3163
60.1423
63.0874
66.1542
69.3464
72.6663
76.1171
79.7021
83.4238
87.2854
91.2899
95.4398
99.7382
104.187
108.791
113.549
118.467
123.544
128.783
134.186
139.753
145.485
151.382
157.444
163.67
170.058
176.607
183.312
190.169
197.178
204.261
15.4337
15.9686
16.2488
16.7483
17.3876
18.045
18.7461
19.5216
20.366
21.2746
22.2516
23.2998
24.4205
25.6154
26.8867
28.2365
29.6668
31.1799
32.778
34.4636
36.239
38.1067
40.0692
42.1291
44.2891
46.5518
48.9201
51.3966
53.9843
56.6859
59.5044
62.4428
65.504
68.6911
72.0071
75.4549
79.0377
82.7582
86.6197
90.6251
94.7772
99.0789
103.533
108.141
112.908
117.833
122.921
128.172
133.588
139.17
144.919
150.835
156.918
163.168
169.582
176.16
182.897
189.79
196.834
204.027
211.296
15.0849
15.6151
15.9119
16.4055
17.0339
17.6843
18.3775
19.1431
19.9768
20.8744
21.8395
22.8755
23.9835
25.1654
26.4235
27.7598
29.1766
30.6762
32.2609
33.9332
35.6954
37.5503
39.5002
41.548
43.6962
45.9477
48.3051
50.7716
53.3498
56.0425
58.853
61.7841
64.8387
68.0202
71.3314
74.7754
78.3552
82.074
85.9347
89.9403
94.0938
98.398
102.856
107.47
112.242
117.176
122.273
127.535
132.963
138.559
144.324
150.259
156.363
162.636
169.076
175.681
182.449
189.377
196.459
203.69
211.068
218.523
14.7357
15.2604
15.5724
16.0606
16.6781
17.3213
18.0067
18.7622
19.5852
20.4714
21.4246
22.448
23.5431
24.7117
25.9561
27.2787
28.6816
30.1672
31.738
33.3965
35.1451
36.9865
38.9234
40.9583
43.0941
45.3337
47.6797
50.1354
52.7033
55.3865
58.1882
61.1112
64.1586
67.3337
70.6394
74.0788
77.6549
81.3712
85.2303
89.2355
93.3897
97.6957
102.157
106.775
111.553
116.494
121.599
126.871
132.312
137.922
143.703
149.655
155.779
162.073
168.538
175.171
181.969
188.931
196.05
203.322
210.74
218.301
225.943
14.3863
14.9046
15.2305
15.7138
16.3205
16.9563
17.6337
18.3791
19.1911
20.066
21.007
22.0176
23.0994
24.2544
25.4849
26.7933
28.1819
29.6532
31.2096
32.8538
34.5882
36.4156
38.3387
40.3602
42.4831
44.71
47.0441
49.4881
52.0451
54.7181
57.5103
60.4244
63.4639
66.6317
69.9311
73.3651
76.9369
80.6497
84.5065
88.5104
92.6646
96.9719
101.435
106.057
110.84
115.788
120.901
126.182
131.634
137.257
143.053
149.022
155.165
161.481
167.969
174.629
181.457
188.451
195.606
202.918
210.38
217.986
225.728
233.555
14.0367
14.5481
14.8867
15.3651
15.9614
16.5895
17.2587
17.994
18.7949
19.6581
20.5868
21.5843
22.6527
23.7937
25.01
26.3039
27.6778
29.1343
30.6758
32.3052
34.0249
35.8378
37.7465
39.7541
41.8633
44.0769
46.3983
48.8301
51.3754
54.0373
56.8192
59.7239
62.7545
65.9143
69.2067
72.6344
76.201
79.9099
83.7633
87.7654
91.9187
96.2261
100.691
105.316
110.104
115.056
120.177
125.468
130.929
136.565
142.375
148.36
154.521
160.858
167.37
174.055
180.912
187.937
195.128
202.479
209.984
217.637
225.427
233.352
241.361
13.6869
14.191
14.541
15.0149
15.6007
16.221
16.882
17.6071
18.3967
19.2481
20.1642
21.1486
22.2031
23.33
24.5316
25.8106
27.1694
28.6107
30.1369
31.7509
33.4554
35.2532
37.147
39.1399
41.2348
43.4346
45.7424
48.1613
50.6942
53.3444
56.1151
59.0093
62.0305
65.1815
68.4661
71.887
75.4474
79.1512
83.001
87.0002
91.1519
95.4589
99.9246
104.551
109.343
114.301
119.428
124.726
130.198
135.845
141.669
147.669
153.848
160.204
166.739
173.449
180.334
187.39
194.616
202.004
209.551
217.249
225.092
233.068
241.173
249.361
13.3373
13.8335
14.1936
14.6632
15.2388
15.8511
16.5037
17.2184
17.9967
18.8361
19.7395
20.7103
21.7508
22.8632
24.05
25.3137
26.657
28.0826
29.593
31.1912
32.8799
34.662
36.5403
38.518
40.5979
42.7831
45.0768
47.4819
50.0018
52.6395
55.3982
58.2813
61.2921
64.4336
67.7093
71.1224
74.6764
78.3742
82.2192
86.2146
90.3642
94.6699
99.1356
103.764
108.558
113.52
118.653
123.959
129.439
135.097
140.933
146.949
153.145
159.52
166.076
172.811
179.723
186.81
194.068
201.494
209.082
216.826
224.717
232.748
240.908
249.19
257.554
12.9877
13.4758
13.8449
14.3103
14.8759
15.4799
16.124
16.8283
17.5951
18.4223
19.3127
20.2698
21.2961
22.3936
23.5651
24.8133
26.1407
27.5502
29.0444
30.6263
32.2987
34.0645
35.9268
37.8885
39.9529
42.1228
44.4016
46.7923
49.2982
51.9226
54.6689
57.5399
60.5393
63.6705
66.9368
70.3413
73.8874
77.5787
81.4182
85.4091
89.5551
93.8589
98.3239
102.953
107.749
112.714
117.852
123.164
128.654
134.322
140.169
146.199
152.411
158.806
165.382
172.14
179.079
186.195
193.486
200.948
208.576
216.364
224.304
232.388
240.607
248.948
257.403
265.94
12.6382
13.118
13.4949
13.9563
14.512
15.1076
15.7431
16.4368
17.192
18.0068
18.8841
19.8273
20.839
21.9215
23.0774
24.3096
25.6207
27.0137
28.4912
30.0563
31.7118
33.4609
35.3065
37.2517
39.2998
41.4537
43.7169
46.0925
48.5838
51.1941
53.9268
56.7852
59.7725
62.8926
66.1484
69.5434
73.0809
76.7645
80.5977
84.5834
88.7251
93.0263
97.4894
102.118
106.915
111.883
117.025
122.344
127.84
133.517
139.377
145.419
151.647
158.059
164.656
171.437
178.401
185.546
192.869
200.366
208.034
215.864
223.852
231.988
240.265
248.668
257.188
265.813
274.516
12.2891
12.7603
13.1439
13.6014
14.1473
14.7344
15.3611
16.0442
16.7876
17.5899
18.4538
19.3829
20.3798
21.4469
22.587
23.8028
25.0973
26.4733
27.9336
29.4814
31.1197
32.8513
34.6796
36.6078
38.6389
40.7762
43.0231
45.3828
47.8587
50.4541
53.1725
56.0172
58.9918
62.0996
65.3441
68.7287
72.2571
75.9323
79.7582
83.7374
87.8744
92.1712
96.6321
101.26
106.057
111.027
116.172
121.495
126.999
132.684
138.554
144.61
150.852
157.281
163.897
170.7
177.689
184.862
192.216
199.748
207.453
215.327
223.361
231.549
239.881
248.347
256.934
265.628
274.418
283.282
11.9403
12.4028
12.7921
13.2457
13.782
14.3605
14.9782
15.6506
16.3821
17.1717
18.0221
18.9368
19.9186
20.9701
22.094
23.2932
24.5706
25.9292
27.3719
28.9019
30.5223
32.2361
34.0465
35.9569
37.9704
40.0904
42.3202
44.6632
47.123
49.7028
52.4062
55.2364
58.1972
61.2919
64.5244
67.8977
71.4158
75.0817
78.8992
82.8716
87.0024
91.2948
95.7522
100.377
105.174
110.145
115.293
120.62
126.13
131.823
137.703
143.77
150.025
156.471
163.106
169.931
176.943
184.143
191.528
199.093
206.837
214.752
222.831
231.07
239.457
247.984
256.636
265.403
274.268
283.218
292.236
11.5921
12.0458
12.4396
12.8895
13.4163
13.9859
14.5946
15.2562
15.9756
16.7524
17.5891
18.4892
19.4557
20.4913
21.5986
22.7808
24.0408
25.3816
26.8063
28.3181
29.92
31.6154
33.4073
35.2993
37.2946
39.3965
41.6086
43.9343
46.377
48.9403
51.6278
54.4427
57.3889
60.4699
63.6892
67.0504
70.5572
74.2127
78.0212
81.9855
86.1094
90.396
94.8491
99.4716
104.267
109.238
114.387
119.718
125.232
130.932
136.821
142.899
149.168
155.628
162.281
169.127
176.163
183.389
190.803
198.402
206.182
214.138
222.263
230.55
238.992
247.578
256.296
265.133
274.076
283.106
292.211
301.375
11.2442
11.6894
12.0868
12.5328
13.0503
13.611
14.2104
14.8612
15.5684
16.3322
17.1549
18.0403
18.9912
20.0105
21.1011
22.266
23.5082
24.8308
26.237
27.73
29.313
30.9893
32.7623
34.6352
36.6116
38.6948
40.8884
43.196
45.621
48.1669
50.8377
53.6364
56.5671
59.6332
62.8386
66.1866
69.6812
73.3258
77.1239
81.0793
85.1952
89.4756
93.9233
98.5418
103.335
108.304
113.455
118.788
124.306
130.012
135.909
141.997
148.278
154.753
161.423
168.288
175.347
182.599
190.042
197.673
205.488
213.484
221.653
229.99
238.484
247.129
255.912
264.819
273.838
282.952
292.142
301.395
310.695
10.897
11.3337
11.7337
12.1758
12.6842
13.2358
13.8258
14.4656
15.1605
15.9111
16.7198
17.5901
18.5253
19.5282
20.6016
21.7488
22.9729
24.2769
25.6642
27.138
28.7015
30.3582
32.1116
33.9649
35.9217
37.9855
40.1599
42.4485
44.855
47.3828
50.0359
52.8178
55.732
58.7825
61.9728
65.3068
68.7882
72.4206
76.2077
80.153
84.2602
88.5329
92.9744
97.5884
102.377
107.346
112.495
117.83
123.352
129.063
134.966
141.064
147.356
153.846
160.532
167.415
174.496
181.772
189.243
196.906
204.756
212.791
221.004
229.387
237.935
246.637
255.483
264.46
273.554
282.749
292.03
301.374
310.767
320.192
10.5504
10.9789
11.3806
11.8188
12.3182
12.8605
13.441
14.0697
14.7522
15.4894
16.2838
17.139
18.0582
19.0443
20.1003
21.2296
22.4351
23.7201
25.088
26.5421
28.0857
29.7224
31.4554
33.2885
35.2251
37.2688
39.4233
41.6923
44.0793
46.5883
49.2228
51.9869
54.8838
57.9177
61.0922
64.4111
67.8783
71.4976
75.2727
79.2069
83.3043
87.5684
92.0024
96.6105
101.395
106.36
111.509
116.844
122.368
128.084
133.993
140.099
146.402
152.904
159.606
166.507
173.609
180.91
188.407
196.1
203.986
212.057
220.313
228.744
237.343
246.102
255.01
264.055
273.223
282.499
291.867
301.307
310.798
320.323
329.862
10.2046
10.6251
11.0276
11.4618
11.9522
12.4853
13.0561
13.6736
14.3436
15.0673
15.8473
16.6871
17.59
18.5591
19.5975
20.7083
21.895
23.1607
24.5088
25.9427
27.4659
29.0819
30.7942
32.6064
34.5221
36.545
38.6789
40.9274
43.2944
45.7835
48.3987
51.1438
54.0226
57.0391
60.1965
63.4997
66.9517
70.557
74.3186
78.241
82.3273
86.5818
91.0075
95.6085
100.388
105.35
110.496
115.83
121.356
127.075
132.989
139.102
145.415
151.929
158.645
165.564
172.685
180.009
187.534
195.256
203.174
211.284
219.581
228.057
236.707
245.522
254.492
263.604
272.845
282.202
291.656
301.19
310.783
320.412
330.059
339.699
9.85965
10.2724
10.6749
11.1049
11.5866
12.1102
12.6713
13.2775
13.9348
14.6449
15.4102
16.2344
17.121
18.0728
19.0932
20.1855
21.3529
22.5988
23.9267
25.34
26.8423
28.4371
30.128
31.9187
33.8129
35.8143
37.9268
40.1542
42.5002
44.9688
47.5637
50.289
53.1487
56.1465
59.2864
62.5725
66.0084
69.5984
73.3459
77.2549
81.3297
85.5732
89.99
94.5828
99.3559
104.312
109.455
114.788
120.314
126.035
131.954
138.073
144.394
150.92
157.649
164.585
171.725
179.071
186.621
194.372
202.322
210.469
218.806
227.329
236.028
244.898
253.928
263.106
272.42
281.855
291.395
301.022
310.715
320.453
330.211
339.97
349.697
9.51559
9.92087
10.3226
10.7484
11.2214
11.7355
12.2866
12.8815
13.526
14.2223
14.9728
15.7813
16.6512
17.5855
18.5877
19.661
20.8089
22.0347
23.342
24.7342
26.2151
27.7881
29.4571
31.2257
33.0977
35.077
37.1674
39.3728
41.697
44.1442
46.718
49.4227
52.2624
55.2407
58.3618
61.6298
65.0485
68.6222
72.3544
76.2493
80.311
84.5429
88.9492
93.533
98.2985
103.249
108.387
113.718
119.242
124.965
130.887
137.011
143.341
149.876
156.618
163.569
170.728
178.094
185.669
193.448
201.43
209.612
217.989
226.556
235.306
244.228
253.318
262.561
271.947
281.46
291.084
300.803
310.595
320.44
330.315
340.192
350.051
359.849
9.17253
9.57076
9.97101
10.3923
10.8568
11.3614
11.9023
12.4858
13.1174
13.7997
14.5353
15.3279
16.1808
17.0975
18.0811
19.1352
20.2632
21.4685
22.7547
24.1255
25.5844
27.1353
28.7818
30.5276
32.3769
34.3333
36.4008
38.5835
40.8852
43.31
45.8621
48.5452
51.3637
54.3217
57.4231
60.672
64.0725
67.6286
71.3445
75.2242
79.2718
83.4908
87.8853
92.4591
97.2156
102.159
107.292
112.619
118.142
123.864
129.788
135.917
142.253
148.797
155.551
162.516
169.692
177.08
184.677
192.484
200.497
208.713
217.129
225.738
234.536
243.514
252.661
261.969
271.425
281.015
290.723
300.532
310.423
320.374
330.363
340.364
350.349
360.296
370.147
8.83047
9.2221
9.6202
10.0369
10.4929
10.9878
11.5186
12.0905
12.7091
13.3773
14.0979
14.8743
15.7101
16.6088
17.5737
18.6083
19.716
20.9005
22.1653
23.5141
24.9506
26.4787
28.1022
29.8248
31.6506
33.5835
35.6275
37.7866
40.065
42.4667
44.996
47.6568
50.4531
53.3896
56.4703
59.699
63.0803
66.6181
70.3166
74.1798
78.2118
82.417
86.7986
91.361
96.1075
101.043
106.169
111.491
117.011
122.732
128.657
134.79
141.131
147.682
154.447
161.425
168.618
176.024
183.645
191.477
199.521
207.771
216.224
224.876
233.721
242.751
251.956
261.328
270.853
280.519
290.31
300.209
310.197
320.254
330.356
340.478
350.595
360.676
370.698
380.582
8.48963
8.87504
9.27031
9.68219
10.1298
10.6151
11.1355
11.6957
12.3012
12.9552
13.6605
14.4206
15.2392
16.1197
17.0656
18.0803
19.1675
20.3308
21.5738
22.9003
24.3139
25.8188
27.4186
29.1174
30.9191
32.8278
34.8475
36.9825
39.2366
41.6144
44.1199
46.7573
49.531
52.4449
55.5037
58.7112
62.0722
65.5906
69.2704
73.1161
77.1315
81.3215
85.6892
90.2389
94.9745
99.9001
105.019
110.334
115.85
121.569
127.494
133.628
139.974
146.533
153.307
160.297
167.505
174.93
182.571
190.429
198.502
206.785
215.275
223.969
232.86
241.94
251.203
260.637
270.231
279.972
289.845
299.833
309.918
320.079
330.293
340.536
350.782
361.002
371.165
381.247
391.145
8.15001
8.52964
8.92156
9.32836
9.76767
10.2432
10.7532
11.3015
11.8939
12.5336
13.2235
13.9671
14.7683
15.6304
16.557
17.5516
18.618
19.7597
20.9805
22.2841
23.6746
25.1557
26.7313
28.4057
30.1827
32.0665
34.0613
36.1712
38.4004
40.7534
43.2343
45.8475
48.5972
51.4876
54.5236
57.7091
61.0484
64.546
68.2062
72.0332
76.0311
80.2044
84.557
89.093
93.8165
98.7312
103.841
109.149
114.659
120.375
126.298
132.433
138.782
145.347
152.129
159.131
166.352
173.794
181.457
189.339
197.439
205.753
214.281
223.015
231.951
241.082
250.4
259.896
269.558
279.373
289.327
299.403
309.583
319.847
330.173
340.536
350.911
361.268
371.578
381.81
391.936
401.825
7.81171
8.18604
8.574
8.97554
9.4066
9.87232
10.3717
10.9082
11.4873
12.1125
12.7869
13.5139
14.2974
15.1409
16.048
17.0223
18.0675
19.1873
20.3855
21.6661
23.0328
24.4896
26.0406
27.6899
29.4416
31.2999
33.269
35.3531
37.5567
39.8839
42.3394
44.9274
47.6522
50.5183
53.5302
56.6924
60.0093
63.485
67.1242
70.9312
74.9105
79.066
83.4022
87.9233
92.6329
97.5353
102.635
107.934
113.438
119.149
125.07
131.204
137.555
144.124
150.914
157.925
165.16
172.618
180.3
188.205
196.332
204.677
213.239
222.013
230.994
240.174
249.548
259.104
268.832
278.721
288.755
298.918
309.193
319.56
329.996
340.478
350.98
361.474
371.93
382.317
392.601
402.754
412.61
7.47483
7.84433
8.22786
8.62386
9.0467
9.50261
9.99127
10.5159
11.0816
11.6922
12.3509
13.0611
13.8268
14.6515
15.5389
16.4925
17.5163
18.6139
19.7892
21.0462
22.3887
23.8208
25.3467
26.9703
28.6961
30.5282
32.4708
34.5286
36.7056
39.0064
41.4354
43.9972
46.6964
49.537
52.5241
55.6617
58.9547
62.4077
66.025
69.8106
73.7697
77.9064
82.225
86.7295
91.4246
96.3136
101.401
106.691
112.186
117.891
123.809
129.942
136.293
142.865
149.661
156.681
163.927
171.4
179.101
187.027
195.179
203.555
212.151
220.963
229.987
239.217
248.644
258.26
268.054
278.014
288.127
298.377
308.746
319.214
329.76
340.361
350.989
361.619
372.22
382.761
393.209
403.529
413.692
423.488
7.13944
7.50458
7.8832
8.2734
8.68809
9.13413
9.61202
10.1246
10.6768
11.2727
11.9156
12.609
13.3567
14.1624
15.0297
15.9625
16.9646
18.0397
19.1917
20.4247
21.7426
23.1495
24.6497
26.2472
27.9465
29.7517
31.6673
33.6978
35.8475
38.121
40.5228
43.0576
45.7297
48.5441
51.5052
54.6173
57.8855
61.3143
64.9082
68.6717
72.6093
76.7259
81.0253
85.5122
90.1907
95.0654
100.14
105.418
110.904
116.602
122.514
128.644
134.995
141.57
148.369
155.397
162.654
170.141
177.858
185.806
193.982
202.386
211.015
219.864
228.931
238.208
247.687
257.362
267.221
277.253
287.444
297.779
308.241
318.81
329.465
340.182
350.938
361.702
372.448
383.142
393.753
404.245
414.583
424.736
434.445
6.80571
7.16683
7.54017
7.92433
8.33084
8.76712
9.23406
9.73446
10.2731
10.8543
11.4812
12.1575
12.887
13.6736
14.5208
15.4325
16.4125
17.4648
18.5932
19.8018
21.0947
22.476
23.95
25.5209
27.193
28.9707
30.8586
32.861
34.9827
37.228
39.6018
42.1086
44.7529
47.5398
50.4739
53.5595
56.8015
60.2051
63.7744
67.5142
71.4293
75.5244
79.8032
84.2715
88.9321
93.7909
98.8512
104.117
109.592
115.281
121.186
127.312
133.661
140.235
147.039
154.073
161.339
168.838
176.571
184.538
192.738
201.169
209.83
218.716
227.823
237.146
246.678
256.41