/*--------------------------------*- C++ -*----------------------------------*\
  =========                 |
  \\      /  F ield         | OpenFOAM: The Open Source CFD Toolbox
   \\    /   O peration     | Website:  https://openfoam.org
    \\  /    A nd           | Version:  7
     \\/     M anipulation  |
\*---------------------------------------------------------------------------*/
FoamFile
{
    version     2.0;
    format      ascii;
    class       surfaceScalarField;
    location    "800";
    object      phi;
}
// * * * * * * * * * * * * * * * * * * * * * * * * * * * * * * * * * * * * * //

dimensions      [0 3 -1 0 0 0 0];

internalField   nonuniform List<scalar> 
45794
(
-0.295237
0.042695
-0.293575
0.0452215
-0.28366
0.0409845
-0.29181
0.0477644
-0.281928
0.0434889
-0.272103
0.0395134
-0.289915
0.0502102
-0.280132
0.0459688
-0.270504
0.0418902
-0.261119
0.0379691
-0.287857
0.0526016
-0.278205
0.0482833
-0.268749
0.0442136
-0.259548
0.0403186
-0.250571
0.03651
-0.241764
0.0329247
-0.285744
0.0549829
-0.27624
0.0506361
-0.266946
0.0464796
-0.25789
0.0425554
-0.249065
0.0388121
-0.240403
0.0351489
-0.231959
0.0316705
-0.223707
0.00208208
-0.283432
0.0571551
-0.274132
0.0528757
-0.265045
0.0487354
-0.256141
0.0447308
-0.247416
0.0409061
-0.238902
0.0373114
-0.230659
0.033849
-0.222552
0.0305155
-0.21463
0.00208158
-0.281126
0.0594162
-0.271984
0.0550072
-0.263003
0.0508334
-0.254252
0.0468464
-0.245724
0.0430394
-0.237409
0.0394133
-0.229216
0.0358685
-0.221256
0.0325524
-0.213482
0.029367
-0.205906
0.00210086
-0.278629
0.0614677
-0.269694
0.0571256
-0.260917
0.0529218
-0.252321
0.0489027
-0.243941
0.0450635
-0.235726
0.0413559
-0.22768
0.037878
-0.219916
0.0345291
-0.212239
0.0313099
-0.204773
0.0282338
-0.197492
0.00211021
-0.27609
0.0635564
-0.267362
0.0591356
-0.258693
0.054901
-0.250298
0.0508983
-0.242067
0.0470281
-0.23405
0.043388
-0.226152
0.0398279
-0.218485
0.0364463
-0.210903
0.0331933
-0.203581
0.0301179
-0.196423
0.0271651
-0.189433
0.00211967
-0.273512
0.0655359
-0.264891
0.0610853
-0.256475
0.0569185
-0.248234
0.0528372
-0.240153
0.0489842
-0.232234
0.0452121
-0.224483
0.0417189
-0.216911
0.0382547
-0.209525
0.0350674
-0.202325
0.031938
-0.195275
0.0289702
-0.188396
0.0261284
-0.181693
0.00212898
-0.270749
0.0674077
-0.262332
0.0629774
-0.254121
0.0587311
-0.245981
0.0546656
-0.238098
0.050783
-0.230328
0.0470781
-0.222774
0.0435025
-0.215297
0.0401044
-0.208103
0.0368332
-0.200972
0.0337142
-0.194059
0.0307214
-0.187295
0.0278692
-0.180701
0.0251369
-0.174269
0.00213814
-0.267998
0.0692683
-0.259735
0.0648104
-0.251676
0.0605321
-0.243738
0.056488
-0.236005
0.0525719
-0.22838
0.048835
-0.220922
0.0452264
-0.213639
0.041845
-0.20654
0.0385413
-0.199561
0.0354224
-0.192769
0.0324246
-0.18613
0.0295566
-0.179645
0.0268133
-0.173316
0.0241837
-0.167136
0.00214247
-0.265112
0.0710227
-0.257051
0.0665845
-0.249194
0.0623281
-0.241456
0.0582506
-0.233821
0.0543039
-0.226393
0.0505847
-0.219081
0.0469939
-0.211942
0.0435286
-0.204935
0.0402399
-0.198108
0.0370876
-0.191421
0.0340748
-0.184892
0.0311864
-0.178516
0.0284268
-0.172293
0.0257905
-0.166219
0.0232668
-0.1603
0.00215173
-0.262189
0.0727662
-0.254329
0.068301
-0.246624
0.0640144
-0.239036
0.0599077
-0.231549
0.0559789
-0.224267
0.0521784
-0.217099
0.0486028
-0.210103
0.0451555
-0.20329
0.0418834
-0.196564
0.038696
-0.190001
0.0356677
-0.183586
0.0327687
-0.177327
0.0299978
-0.171211
0.0273448
-0.165238
0.0248089
-0.159417
0.0223846
-0.153735
0.00215605
-0.259184
0.0743567
-0.251475
0.0699116
-0.243918
0.065595
-0.236528
0.0615064
-0.229238
0.0575968
-0.222102
0.053813
-0.215126
0.0502058
-0.208274
0.0467738
-0.201552
0.043418
-0.194931
0.0402511
-0.188514
0.0372091
-0.182222
0.0343036
-0.176075
0.0315169
-0.170065
0.0288521
-0.164197
0.0263038
-0.158475
0.0238668
-0.152885
0.0215353
-0.147436
0.00216528
-0.256093
0.0759366
-0.248583
0.0714647
-0.241224
0.0672176
-0.233983
0.0630505
-0.22684
0.0591082
-0.219897
0.0553919
-0.213067
0.0517532
-0.206307
0.0482388
-0.199725
0.0449467
-0.193264
0.0417506
-0.186971
0.0387074
-0.180795
0.0357825
-0.174761
0.032989
-0.168861
0.0303125
-0.163097
0.0277521
-0.157474
0.0253023
-0.151976
0.0229576
-0.146618
0.0207174
-0.141385
0.00216957
-0.25292
0.0774628
-0.245608
0.0729616
-0.238445
0.0686862
-0.231353
0.0645871
-0.224403
0.0606134
-0.217605
0.0568161
-0.210868
0.0531928
-0.204298
0.0497435
-0.197857
0.0463704
-0.191527
0.0432095
-0.185365
0.0401445
-0.179307
0.0372187
-0.173388
0.0344098
-0.167598
0.0317263
-0.161938
0.0291538
-0.156413
0.0266913
-0.151012
0.0243383
-0.145745
0.0220844
-0.140601
0.019934
-0.13559
0.00217862
-0.249714
0.078933
-0.242597
0.0744521
-0.235581
0.0700975
-0.228684
0.0660169
-0.221878
0.0620628
-0.215274
0.0582825
-0.208678
0.0546265
-0.202251
0.0511458
-0.1959
0.0477868
-0.189757
0.0446005
-0.183692
0.0415374
-0.177763
0.038601
-0.171953
0.0357844
-0.166278
0.0330895
-0.160721
0.0305095
-0.155298
0.0280391
-0.149998
0.0256778
-0.144817
0.0234103
-0.139763
0.0212458
-0.134835
0.0191789
-0.130022
0.00218288
-0.246474
0.0802974
-0.239454
0.07579
-0.232682
0.0715535
-0.22598
0.0673936
-0.219318
0.0634566
-0.212806
0.0595954
-0.206403
0.0560072
-0.200115
0.0524912
-0.193953
0.0491986
-0.187927
0.0459572
-0.181972
0.0428798
-0.176161
0.0399352
-0.170466
0.0371137
-0.164905
0.0344116
-0.159456
0.0318243
-0.15413
0.0293411
-0.148926
0.0269667
-0.14384
0.0247002
-0.138874
0.0225217
-0.134029
0.0204403
-0.129294
0.0184506
-0.124681
0.00219202
-0.243102
0.0816086
-0.236326
0.0771699
-0.229698
0.072806
-0.223141
0.0687144
-0.216672
0.0647477
-0.210301
0.0609518
-0.204088
0.0572802
-0.19794
0.053832
-0.191916
0.0504547
-0.185983
0.0472549
-0.180194
0.0441791
-0.174503
0.0412216
-0.168929
0.0383981
-0.163475
0.0356838
-0.158134
0.033089
-0.152908
0.0306028
-0.147805
0.0282199
-0.142808
0.025935
-0.137931
0.0237571
-0.133169
0.0216611
-0.128515
0.0196614
-0.123978
0.0177477
-0.119551
0.00219133
-0.239649
0.0828638
-0.233115
0.0783973
-0.226632
0.0741033
-0.220316
0.0699808
-0.213989
0.0660314
-0.207809
0.0622553
-0.201736
0.0586008
-0.195728
0.0550678
-0.189805
0.0517209
-0.184035
0.0485057
-0.178361
0.0454221
-0.17279
0.0424662
-0.167338
0.0396308
-0.161993
0.0369159
-0.156757
0.0343075
-0.151634
0.0318143
-0.146625
0.029423
-0.141727
0.0271391
-0.136938
0.0249421
-0.132258
0.0228465
-0.127696
0.0208419
-0.123234
0.0189178
-0.118882
0.0170788
-0.114638
0.00220029
-0.236212
0.0841156
-0.229871
0.0796198
-0.223579
0.0753448
-0.217407
0.0711941
-0.211221
0.0672124
-0.205182
0.063404
-0.199246
0.0597653
-0.193426
0.0562989
-0.187672
0.0529344
-0.182027
0.0497136
-0.176477
0.0466219
-0.17103
0.0436618
-0.165693
0.0408208
-0.16046
0.0380976
-0.155335
0.0354935
-0.150317
0.0329913
-0.145407
0.0305962
-0.140602
0.0282985
-0.135901
0.0261022
-0.131313
0.0239969
-0.126826
0.0219773
-0.12244
0.0200478
-0.118162
0.0181981
-0.113992
0.0164327
-0.109916
0.00220445
-0.232745
0.0852646
-0.226546
0.0807905
-0.220446
0.0764862
-0.214413
0.0723517
-0.208415
0.0683888
-0.202567
0.0645976
-0.19682
0.0609774
-0.191087
0.0574264
-0.185459
0.0540861
-0.179959
0.0508662
-0.17454
0.0477766
-0.169217
0.0448096
-0.163996
0.0419654
-0.158879
0.0392402
-0.15386
0.0366229
-0.148946
0.0341221
-0.144135
0.0317194
-0.139424
0.0294181
-0.134815
0.0272126
-0.130308
0.0250977
-0.125902
0.0230731
-0.121601
0.0211381
-0.117402
0.0192875
-0.1133
0.0175061
-0.109292
0.0158082
-0.105386
0.00220357
-0.229146
0.0863605
-0.223187
0.0819055
-0.217226
0.0775706
-0.211384
0.0734563
-0.205577
0.0695134
-0.199916
0.0657383
-0.194257
0.0620348
-0.188661
0.0585518
-0.183234
0.0552013
-0.177844
0.051971
-0.172552
0.0488782
-0.167356
0.0459156
-0.162258
0.0430708
-0.157253
0.0403388
-0.152344
0.0377245
-0.147535
0.0352118
-0.142817
0.0328042
-0.138198
0.0304932
-0.133681
0.0282837
-0.129265
0.0261691
-0.124944
0.0241391
-0.120722
0.0221938
-0.116597
0.0203325
-0.112562
0.0185499
-0.108631
0.0168455
-0.104792
0.0152141
-0.101043
0.00220767
-0.225565
0.0874033
-0.219747
0.0829205
-0.213976
0.0786556
-0.208324
0.0745106
-0.202703
0.0705825
-0.19718
0.0667765
-0.191658
0.0631398
-0.186267
0.0596403
-0.180944
0.0562623
-0.175684
0.0530415
-0.170526
0.0499446
-0.165453
0.0469753
-0.160471
0.0441286
-0.155575
0.0413934
-0.150777
0.0387709
-0.14607
0.0362598
-0.141456
0.0338502
-0.136935
0.0315408
-0.132514
0.0293256
-0.128182
0.0272011
-0.123941
0.0251662
-0.119798
0.0232152
-0.115751
0.0213481
-0.111789
0.0195593
-0.107925
0.0178435
-0.104152
0.0162053
-0.100468
0.0146393
-0.0968751
0.0022165
-0.221904
0.0883946
-0.216274
0.0839308
-0.21069
0.0796353
-0.205226
0.0755575
-0.199794
0.0716013
-0.194359
0.0677617
-0.189022
0.0641398
-0.183766
0.060639
-0.178588
0.0572841
-0.173481
0.0540593
-0.168451
0.0509669
-0.163505
0.0479958
-0.158638
0.0451423
-0.153857
0.0424101
-0.149173
0.0397894
-0.144569
0.0372701
-0.140052
0.0348559
-0.135626
0.0325419
-0.131296
0.0303235
-0.127051
0.0281945
-0.122894
0.0261543
-0.118834
0.0242028
-0.11486
0.0223249
-0.110976
0.0205347
-0.107178
0.0188124
-0.103476
0.0171673
-0.0998519
0.0155894
-0.0963187
0.0140829
-0.0928739
0.00222053
-0.218212
0.0893342
-0.212771
0.0848909
-0.207374
0.0806144
-0.202048
0.0764576
-0.196753
0.0725163
-0.191501
0.0687438
-0.18635
0.0650895
-0.18124
0.0616133
-0.1762
0.0582508
-0.171225
0.0550279
-0.166326
0.0519338
-0.161505
0.0489672
-0.156759
0.0461169
-0.152097
0.0433829
-0.147516
0.040754
-0.143016
0.0382365
-0.138606
0.035824
-0.134277
0.0335067
-0.130038
0.0312832
-0.125876
0.0291489
-0.121808
0.0271085
-0.117827
0.0251465
-0.11393
0.0232725
-0.110122
0.0214713
-0.106396
0.0197523
-0.102759
0.0180955
-0.0991999
0.0165152
-0.0957309
0.0150015
-0.0923398
0.0135488
-0.0890337
0.00221953
-0.214439
0.0901713
-0.209185
0.0857483
-0.203975
0.0814922
-0.198835
0.0774014
-0.193774
0.0734789
-0.188658
0.0696729
-0.183642
0.0660361
-0.178685
0.0625349
-0.173769
0.059182
-0.168936
0.0559614
-0.164168
0.0528706
-0.159468
0.0498973
-0.154842
0.0470501
-0.150298
0.0443179
-0.145826
0.0416921
-0.141434
0.0391714
-0.137119
0.0367494
-0.132886
0.0344325
-0.12874
0.0322093
-0.124668
0.030075
-0.120689
0.0280295
-0.116785
0.0260668
-0.112965
0.0241818
-0.109229
0.0223791
-0.105573
0.0206487
-0.102002
0.0189948
-0.0985119
0.0174075
-0.0951019
0.0158863
-0.0917692
0.0144308
-0.0885257
0.0130408
-0.0853496
0.00222349
-0.210636
0.0910575
-0.205618
0.0866039
-0.200592
0.0823655
-0.195636
0.0782936
-0.190662
0.0742895
-0.185731
0.0705519
-0.18088
0.0669113
-0.176065
0.0634162
-0.1713
0.0600667
-0.166603
0.0568495
-0.161966
0.0537596
-0.157392
0.0507945
-0.152889
0.0479442
-0.148455
0.0452066
-0.144089
0.0425813
-0.139807
0.0400659
-0.135594
0.037647
-0.131462
0.0353256
-0.127406
0.0330978
-0.123423
0.0309638
-0.119526
0.0289119
-0.115704
0.0269487
-0.111961
0.0250628
-0.108301
0.0232539
-0.104716
0.0215217
-0.101214
0.019861
-0.0977883
0.0182713
-0.0944369
0.0167426
-0.0911672
0.0152843
-0.0879764
0.0138815
-0.0848571
0.0125483
-0.0818164
0.00222728
-0.206851
0.0918439
-0.201969
0.0874093
-0.197129
0.0831403
-0.192309
0.0790377
-0.187519
0.0751504
-0.18277
0.0713285
-0.178066
0.0677374
-0.173412
0.0642583
-0.168794
0.0609099
-0.164235
0.0576987
-0.159723
0.0546058
-0.155277
0.051644
-0.150892
0.0487983
-0.146576
0.0460648
-0.142326
0.043444
-0.138147
0.0409206
-0.134029
0.0385008
-0.129994
0.0361797
-0.126034
0.0339537
-0.122139
0.0318138
-0.118325
0.0297626
-0.114585
0.0277933
-0.110923
0.0259107
-0.107333
0.0240953
-0.103823
0.0223613
-0.100391
0.0206986
-0.0970242
0.0190969
-0.0937411
0.0175754
-0.090534
0.0161094
-0.0873956
0.0147035
-0.084333
0.0133573
-0.0813435
0.0120754
-0.078429
0.00223115
-0.202986
0.0925775
-0.19829
0.0881646
-0.193634
0.0839145
-0.188997
0.0798283
-0.184389
0.0759076
-0.179774
0.0721542
-0.175267
0.0685296
-0.170725
0.0650504
-0.166249
0.061713
-0.161823
0.0584975
-0.157445
0.0554206
-0.153128
0.0524571
-0.14886
0.049612
-0.144655
0.0468781
-0.140519
0.0442578
-0.136439
0.0417362
-0.132432
0.0393231
-0.128491
0.0369975
-0.124625
0.0347706
-0.120816
0.0326311
-0.11709
0.030579
-0.113437
0.0286142
-0.109851
0.0267207
-0.106332
0.0249089
-0.102896
0.0231683
-0.0995279
0.0214984
-0.0962298
0.0199042
-0.0930146
0.0183704
-0.0898602
0.0169016
-0.0867835
0.0154973
-0.0837773
0.0141477
-0.0808387
0.0128525
-0.0779699
0.0116163
-0.0751727
0.00223484
-0.199043
0.0932139
-0.19453
0.0888174
-0.190104
0.0846347
-0.185651
0.0805688
-0.181226
0.0766657
-0.176793
0.0729271
-0.172387
0.069274
-0.167996
0.0658009
-0.163664
0.0624657
-0.159372
0.0592626
-0.15513
0.0561827
-0.150935
0.0532274
-0.14679
0.0503869
-0.142702
0.0476586
-0.138676
0.0450352
-0.134705
0.042524
-0.130797
0.0401015
-0.126957
0.0377889
-0.123182
0.0355549
-0.119466
0.0334207
-0.115823
0.0313641
-0.11225
0.0293921
-0.10874
0.0275037
-0.105301
0.0256897
-0.101939
0.0239522
-0.0986399
0.0222804
-0.0954101
0.0206787
-0.0922525
0.0191421
-0.0891601
0.0176704
-0.0861402
0.0162582
-0.0831853
0.0149054
-0.0803023
0.0136114
-0.0774837
0.0123663
-0.0747313
0.0111749
-0.0720471
0.00223377
-0.195118
0.093897
-0.190837
0.0895208
-0.186546
0.0852591
-0.182224
0.0812081
-0.17798
0.0773226
-0.173683
0.0735556
-0.169438
0.0699782
-0.165237
0.066515
-0.161049
0.0631859
-0.156898
0.0599911
-0.152782
0.0569146
-0.148713
0.0539614
-0.144686
0.0511228
-0.140719
0.048404
-0.136803
0.0457848
-0.132937
0.0432669
-0.129128
0.0408549
-0.125386
0.0385302
-0.121697
0.0363042
-0.11808
0.0341691
-0.114522
0.0321201
-0.11103
0.0301436
-0.107601
0.0282531
-0.104235
0.0264382
-0.100943
0.0246937
-0.0977123
0.0230247
-0.0945505
0.0214207
-0.0914554
0.0198815
-0.0884249
0.0184069
-0.0854613
0.0169915
-0.0825622
0.0156352
-0.0797345
0.0143375
-0.0769659
0.0130936
-0.0742679
0.0119029
-0.0716278
0.0107556
-0.0690522
0.00223736
-0.191163
0.094483
-0.187066
0.0901258
-0.182954
0.0859287
-0.178862
0.0818967
-0.174751
0.0779792
-0.170599
0.0742383
-0.166523
0.070641
-0.162447
0.0671876
-0.158402
0.0638683
-0.154384
0.060672
-0.150399
0.0576088
-0.146459
0.0546602
-0.142553
0.0518286
-0.138702
0.0491055
-0.134889
0.0464909
-0.131134
0.0439821
-0.127433
0.0415719
-0.123783
0.0392527
-0.120198
0.0370307
-0.116663
0.0348863
-0.113189
0.0328364
-0.109778
0.0308688
-0.106429
0.0289711
-0.103141
0.0271592
-0.0999231
0.0254179
-0.0967603
0.0237417
-0.093661
0.0221353
-0.0906328
0.0205981
-0.0876637
0.0191204
-0.0847563
0.017702
-0.0819178
0.016347
-0.0791403
0.015041
-0.0764214
0.0137931
-0.0737678
0.0125935
-0.0711765
0.0114515
-0.0686492
0.0103525
-0.0661828
0.0022409
-0.187179
0.0950686
-0.183262
0.0906793
-0.17933
0.0865026
-0.17537
0.0824373
-0.171414
0.0785595
-0.167469
0.0748497
-0.163549
0.0712637
-0.159626
0.0678201
-0.155721
0.0645056
-0.151838
0.0613227
-0.147992
0.0582643
-0.144173
0.0553227
-0.140386
0.0524931
-0.136649
0.0497756
-0.13295
0.0471665
-0.129303
0.0446596
-0.125701
0.04225
-0.122149
0.0399376
-0.118655
0.0377099
-0.11521
0.035578
-0.111827
0.0335236
-0.108497
0.0315552
-0.105226
0.0296664
-0.102019
0.0278487
-0.0988695
0.0261056
-0.0957738
0.0244314
-0.0927466
0.0228273
-0.0897802
0.0212826
-0.0868676
0.019802
-0.0840209
0.018385
-0.0812375
0.0170218
-0.0785102
0.0157169
-0.0758505
0.01447
-0.0732458
0.0132711
-0.070703
0.01212
-0.068219
0.0110214
-0.0657906
0.00996029
-0.0634194
0.00223968
-0.183162
0.0955532
-0.179376
0.0911829
-0.175675
0.0870238
-0.171895
0.0830271
-0.168117
0.0791407
-0.164332
0.0754224
-0.16055
0.0718512
-0.156775
0.0684125
-0.153007
0.0651065
-0.149266
0.0619334
-0.145546
0.058877
-0.141851
0.0559425
-0.138189
0.0531261
-0.134573
0.0504169
-0.130985
0.0478098
-0.12744
0.0453035
-0.123941
0.0428993
-0.120489
0.0405898
-0.117086
0.0383688
-0.113733
0.0362326
-0.110436
0.0341872
-0.107189
0.0322152
-0.103997
0.0303255
-0.100863
0.0285105
-0.0977847
0.0267639
-0.0947619
0.0250938
-0.0918027
0.0234874
-0.0888977
0.0219448
-0.0860509
0.0204659
-0.0832646
0.0190458
-0.0805365
0.0176839
-0.0778637
0.0163752
-0.0752531
0.0151195
-0.0726924
0.0139166
-0.070198
0.012766
-0.067757
0.011658
-0.0653712
0.010602
-0.0630471
0.00958798
-0.0607716
0.00223829
-0.179068
0.0959918
-0.175512
0.0916888
-0.17199
0.0874976
-0.168387
0.0835159
-0.164757
0.079667
-0.161151
0.07596
-0.157521
0.0723937
-0.153893
0.0689698
-0.150272
0.0656773
-0.146667
0.0625077
-0.143077
0.0594646
-0.139508
0.0565335
-0.135966
0.0537192
-0.132463
0.0510169
-0.128982
0.0484141
-0.12555
0.0459196
-0.122152
0.0435147
-0.118797
0.041207
-0.115485
0.0389889
-0.112227
0.036863
-0.109014
0.0348106
-0.105847
0.0328453
-0.10274
0.0309584
-0.0996787
0.0291412
-0.0966728
0.0273986
-0.0937236
0.0257257
-0.0908295
0.0241206
-0.0879856
0.0225753
-0.0851994
0.0210933
-0.0824733
0.0196746
-0.0797999
0.0183092
-0.0771813
0.0170016
-0.0746246
0.0157468
-0.0721174
0.0145446
-0.0696662
0.0133849
-0.0672729
0.0122819
-0.0649296
0.0112163
-0.0626474
0.0102023
-0.0604135
0.00922996
-0.0582389
0.00224645
-0.174993
0.0964301
-0.171666
0.092146
-0.168272
0.0879711
-0.164861
0.0839722
-0.161391
0.0801496
-0.157942
0.0764574
-0.154467
0.072906
-0.150987
0.0694871
-0.147506
0.0662044
-0.144037
0.0630468
-0.140577
0.0600073
-0.137136
0.0570931
-0.133718
0.0542858
-0.130328
0.0515842
-0.126959
0.0489946
-0.12363
0.0464945
-0.120334
0.0441014
-0.11708
0.0417979
-0.113864
0.0395853
-0.110695
0.0374573
-0.107566
0.0354152
-0.104488
0.0334514
-0.101453
0.0315587
-0.0984695
0.0297491
-0.0955422
0.0280106
-0.0926592
0.0263341
-0.0898314
0.0247275
-0.0870487
0.0231837
-0.0843277
0.0217035
-0.0816615
0.0202815
-0.0790426
0.0189173
-0.0764782
0.017606
-0.0739702
0.0163471
-0.0715113
0.0151407
-0.0691079
0.0139862
-0.0667622
0.0128741
-0.0644658
0.0118182
-0.0622255
0.0107944
-0.0600282
0.00981691
-0.0578898
0.00888079
-0.0557973
0.00224506
-0.170888
0.0968198
-0.167739
0.0925035
-0.164521
0.0883947
-0.161309
0.0844183
-0.15801
0.0805907
-0.154707
0.0769148
-0.151385
0.0733747
-0.148055
0.0699742
-0.144719
0.0667
-0.141384
0.0635523
-0.138053
0.0605234
-0.134738
0.0576091
-0.131438
0.0548125
-0.12816
0.0521179
-0.124909
0.0495338
-0.121686
0.0470506
-0.118496
0.0446568
-0.115332
0.0423539
-0.112211
0.0401455
-0.109131
0.0380217
-0.106091
0.0359824
-0.103092
0.0340191
-0.100139
0.0321377
-0.097238
0.0303272
-0.0943783
0.0285852
-0.0915663
0.0269177
-0.0888046
0.0253073
-0.0860917
0.0237705
-0.0834311
0.0222871
-0.0808197
0.0208617
-0.0782599
0.0194987
-0.0757493
0.0181885
-0.0732947
0.0169306
-0.0708888
0.0157246
-0.068533
0.0145658
-0.0662297
0.0134538
-0.0639753
0.0123836
-0.0617717
0.0113645
-0.0596205
0.0103867
-0.0575181
0.00944528
-0.0554661
0.00854955
-0.053461
0.00224827
-0.166797
0.0972105
-0.163831
0.0929118
-0.160809
0.0887921
-0.157731
0.0848171
-0.154597
0.0810058
-0.151455
0.0773385
-0.148282
0.0738119
-0.145101
0.0704213
-0.141901
0.0671557
-0.138706
0.0640213
-0.135503
0.0610023
-0.132317
0.0581022
-0.129138
0.055309
-0.125978
0.05263
-0.122838
0.0500467
-0.119716
0.0475641
-0.116621
0.0451759
-0.113563
0.0428872
-0.11054
0.0406829
-0.107551
0.0385646
-0.104594
0.0365245
-0.101678
0.034569
-0.0988069
0.0326867
-0.0959746
0.0308742
-0.0931908
0.0291398
-0.0904485
0.0274674
-0.0877529
0.025866
-0.0851052
0.0243208
-0.0825049
0.0228444
-0.0799576
0.0214251
-0.0774518
0.0200536
-0.0749949
0.0187443
-0.0725935
0.0174872
-0.0702353
0.016277
-0.0679269
0.0151186
-0.0656707
0.0140068
-0.0634629
0.0129414
-0.0613056
0.0119174
-0.0591905
0.0109345
-0.0571241
0.00999266
-0.0551076
0.00908677
-0.0531376
0.00822612
-0.0512202
0.00224662
-0.162646
0.0974559
-0.159844
0.0932231
-0.157012
0.0891147
-0.154109
0.0851695
-0.151159
0.0813794
-0.148177
0.0777284
-0.14516
0.0742167
-0.142124
0.0708347
-0.139068
0.0675888
-0.136005
0.0644554
-0.132932
0.0614497
-0.129871
0.0585568
-0.126811
0.0557756
-0.123767
0.0530986
-0.120734
0.0505259
-0.117722
0.0480526
-0.114732
0.045675
-0.111772
0.0433855
-0.10884
0.0411868
-0.105939
0.0390713
-0.10307
0.0370404
-0.100236
0.0350827
-0.0974426
0.0332046
-0.0946925
0.0314047
-0.0919834
0.0296668
-0.0893086
0.0279999
-0.0866826
0.0263972
-0.0840996
0.0248604
-0.0815635
0.0233795
-0.0790707
0.0219574
-0.0766187
0.020592
-0.0742247
0.0192835
-0.0718713
0.0180222
-0.0695607
0.0168127
-0.0673045
0.0156546
-0.065095
0.0145428
-0.0629287
0.0134727
-0.0608079
0.0124437
-0.0587337
0.0114606
-0.0567077
0.0105182
-0.0547314
0.00961645
-0.0528012
0.00875041
-0.0509088
0.00791478
-0.0490651
0.0022498
-0.158492
0.0977494
-0.155884
0.0934958
-0.153213
0.0894235
-0.150488
0.0854946
-0.147704
0.0817144
-0.144876
0.0780783
-0.142015
0.0745829
-0.139122
0.0712144
-0.136209
0.0679757
-0.133279
0.064862
-0.130344
0.0618671
-0.127404
0.0589826
-0.124466
0.0562121
-0.121538
0.0535458
-0.118614
0.0509788
-0.115709
0.0485124
-0.112822
0.0461427
-0.109957
0.0438601
-0.10712
0.0416657
-0.104305
0.0395531
-0.101525
0.0375264
-0.0987775
0.0355814
-0.0960659
0.0337061
-0.093387
0.0318991
-0.0907441
0.0301654
-0.0881439
0.0285021
-0.0855827
0.0268999
-0.0830657
0.0253633
-0.0805881
0.0238849
-0.0781594
0.0224682
-0.0757652
0.0211039
-0.0734243
0.0197916
-0.0711236
0.0185357
-0.0688652
0.0173266
-0.0666561
0.0161642
-0.0644883
0.0150479
-0.0623684
0.0139825
-0.0602933
0.0129581
-0.0582645
0.0119745
-0.0562741
0.0110269
-0.0543328
0.0101197
-0.0524375
0.00925267
-0.0505795
0.00842107
-0.0487701
0.00761975
-0.0470003
0.002248
-0.154314
0.0979446
-0.151889
0.0937546
-0.149407
0.0896899
-0.146847
0.0857823
-0.144232
0.082022
-0.141564
0.0784022
-0.138849
0.0749126
-0.136103
0.071564
-0.133334
0.0683388
-0.130537
0.0652336
-0.127732
0.0622508
-0.124915
0.0593784
-0.122098
0.0566136
-0.119279
0.053953
-0.116466
0.051398
-0.113671
0.0489409
-0.110888
0.0465782
-0.108118
0.0443035
-0.105377
0.0421169
-0.102654
0.0400148
-0.0999626
0.0379909
-0.0972914
0.0360403
-0.0946573
0.0341728
-0.092058
0.0323771
-0.0894961
0.0306511
-0.0869655
0.028987
-0.0844704
0.0273898
-0.0820168
0.025851
-0.0796038
0.024379
-0.0772277
0.0229533
-0.0748918
0.0215948
-0.0726085
0.0202881
-0.0703602
0.0190282
-0.068149
0.0178195
-0.0659915
0.016662
-0.0638699
0.0155458
-0.0617912
0.0144707
-0.059757
0.0134461
-0.0577638
0.0124574
-0.0558183
0.0115188
-0.0539169
0.010611
-0.0520562
0.00973836
-0.0502278
0.008901
-0.0484523
0.00810332
-0.0467163
0.00733574
-0.045021
0.00224613
-0.150149
0.0981901
-0.147916
0.0939712
-0.14558
0.0899277
-0.143194
0.0860363
-0.140742
0.0822923
-0.138227
0.0786847
-0.135668
0.0752213
-0.133072
0.0718812
-0.130438
0.0686682
-0.127776
0.0655788
-0.125103
0.0626045
-0.122407
0.0597428
-0.119711
0.0569914
-0.117013
0.0543478
-0.11431
0.0517971
-0.111617
0.0493444
-0.108933
0.0469859
-0.106261
0.0447205
-0.103613
0.0425395
-0.100979
0.0404417
-0.0983685
0.0384207
-0.0957882
0.0364877
-0.0932352
0.0346181
-0.0907119
0.0328267
-0.0882148
0.0310959
-0.085754
0.0294395
-0.0833285
0.0278452
-0.0809432
0.0263162
-0.0785935
0.0248407
-0.0762758
0.0234271
-0.0740029
0.0220644
-0.0717674
0.0207537
-0.0695665
0.0194944
-0.0674119
0.0182911
-0.0653009
0.017129
-0.0632256
0.0160178
-0.0611928
0.0149474
-0.059204
0.0139177
-0.0572511
0.0129333
-0.0553455
0.0119846
-0.0534741
0.011076
-0.0516478
0.0102026
-0.0498584
0.00936897
-0.0481215
0.0085702
-0.0464143
0.00780127
-0.0447474
0.00706222
-0.043122
0.00224891
-0.14595
0.0983266
-0.143877
0.0941518
-0.141742
0.0901332
-0.139521
0.0862553
-0.137232
0.0825262
-0.134878
0.0789434
-0.132468
0.075485
-0.130014
0.0721634
-0.12752
0.0689639
-0.124996
0.065888
-0.122449
0.0629245
-0.119884
0.0600812
-0.117306
0.0573379
-0.114716
0.0546951
-0.112123
0.05216
-0.109538
0.0497179
-0.106959
0.0473701
-0.104385
0.0451103
-0.101828
0.0429359
-0.0992855
0.0408459
-0.0967658
0.038839
-0.0942679
0.0369004
-0.091786
0.0350386
-0.0893424
0.0332486
-0.0869199
0.0315318
-0.0845337
0.0298756
-0.0821717
0.0282827
-0.0798511
0.0267531
-0.0775599
0.0252826
-0.0753041
0.023869
-0.0730841
0.0225083
-0.0709065
0.0212034
-0.0687623
0.0199495
-0.0666591
0.0187416
-0.0645895
0.0175797
-0.0625651
0.0164685
-0.060573
0.0153979
-0.0586294
0.0143728
-0.0567167
0.0133834
-0.054846
0.0124339
-0.0530188
0.0115294
-0.0512269
0.0106551
-0.0494763
0.00982048
-0.0477635
0.00901098
-0.046085
0.0082409
-0.0444513
0.00750513
-0.0428586
0.0067988
-0.0412939
0.00224698
-0.14174
0.0984614
-0.139852
0.094301
-0.137885
0.090295
-0.135838
0.0864496
-0.133715
0.0827391
-0.131513
0.0791613
-0.129255
0.07573
-0.126949
0.0724206
-0.124598
0.0692409
-0.122209
0.0661771
-0.119788
0.0632271
-0.117346
0.0603869
-0.114883
0.0576583
-0.112408
0.0550298
-0.109928
0.0525005
-0.107447
0.050069
-0.10497
0.0477292
-0.102492
0.0454773
-0.100028
0.0433099
-0.0975725
0.0412228
-0.0951387
0.0392189
-0.0927219
0.037293
-0.0903233
0.0354377
-0.0879544
0.0336506
-0.085608
0.0319366
-0.0832852
0.0302833
-0.0809978
0.0287017
-0.0787392
0.0271708
-0.0765099
0.0257031
-0.0743139
0.0242924
-0.0721523
0.0229372
-0.0700299
0.0216318
-0.0679375
0.0203787
-0.0658809
0.0191713
-0.0638623
0.0180144
-0.0618836
0.0168982
-0.0599369
0.0158324
-0.0580335
0.014802
-0.0561607
0.0138168
-0.0543343
0.0128717
-0.0525417
0.0119567
-0.0507839
0.0110863
-0.049072
0.0102508
-0.047388
0.00944494
-0.0457474
0.00867346
-0.0441467
0.00793626
-0.0425772
0.00722375
-0.0410402
0.00654508
-0.0395507
0.00224954
-0.137499
0.0985612
-0.135803
0.094413
-0.134023
0.0904394
-0.132142
0.086599
-0.130175
0.0829097
-0.128134
0.0793603
-0.126031
0.0759376
-0.123867
0.0726481
-0.12165
0.0694729
-0.119391
0.0664227
-0.117104
0.0634934
-0.114786
0.0606666
-0.112443
0.0579475
-0.110081
0.055331
-0.107714
0.052816
-0.10534
0.0503938
-0.102956
0.0480548
-0.10058
0.0458171
-0.0982067
0.0436562
-0.0958424
0.0415798
-0.0934996
0.0395837
-0.0911625
0.0376594
-0.0888449
0.0358146
-0.0865506
0.0340339
-0.0842775
0.0323202
-0.0820232
0.0306746
-0.0798041
0.0290896
-0.0776053
0.0275678
-0.0754394
0.0261003
-0.0733053
0.0246945
-0.071198
0.0233381
-0.0691291
0.0220363
-0.067088
0.0207823
-0.0650871
0.0195848
-0.0631192
0.0184281
-0.0611861
0.0173169
-0.0592846
0.0162459
-0.0574212
0.0152201
-0.0555931
0.0142344
-0.0538061
0.0132886
-0.0520476
0.0123776
-0.0503286
0.0115014
-0.0486456
0.01066
-0.0469997
0.0098625
-0.0453923
0.00908978
-0.0438196
0.00834637
-0.0422732
0.00763224
-0.0407732
0.00695672
-0.0393063
0.00630066
-0.0378685
0.00224727
-0.133277
0.0986161
-0.131753
0.094511
-0.130153
0.0905429
-0.128433
0.086731
-0.126632
0.0830552
-0.124745
0.0795208
-0.122787
0.0761166
-0.120769
0.0728392
-0.118691
0.0696889
-0.116573
0.0666544
-0.114413
0.063731
-0.112209
0.0609163
-0.10999
0.0582129
-0.107739
0.0556058
-0.10548
0.0530966
-0.103209
0.0506851
-0.100931
0.0483688
-0.098651
0.0461256
-0.0963699
0.0439803
-0.0941015
0.0419153
-0.0918384
0.0399186
-0.089581
0.0380022
-0.0873431
0.0361576
-0.0851222
0.0343862
-0.0829238
0.0326802
-0.0807441
0.0310411
-0.0785871
0.0294576
-0.0764566
0.0279409
-0.0743562
0.0264846
-0.0722791
0.0250741
-0.0702302
0.0237267
-0.0682183
0.0224273
-0.066232
0.0211804
-0.0642778
0.0199731
-0.0623555
0.0188212
-0.0604677
0.0177098
-0.0586111
0.0166434
-0.0567925
0.0156173
-0.0550038
0.0146308
-0.053256
0.0136843
-0.0515365
0.0127774
-0.0498562
0.0119053
-0.0482067
0.0110625
-0.046594
0.0102543
-0.0450148
0.00948505
-0.0434701
0.00874028
-0.0419609
0.00803403
-0.0404883
0.0073473
-0.039039
0.00668945
-0.0376328
0.00606502
-0.0362613
0.00224959
-0.129031
0.0986509
-0.127701
0.0945643
-0.12626
0.0906178
-0.124716
0.0868257
-0.123075
0.0831747
-0.121349
0.0796588
-0.11954
0.0762732
-0.117665
0.073013
-0.115727
0.0698748
-0.113736
0.0668525
-0.111701
0.0639426
-0.109625
0.0611473
-0.107522
0.0584483
-0.105385
0.0558583
-0.103239
0.0533647
-0.101074
0.0509613
-0.0988915
0.0486458
-0.0967039
0.0464218
-0.0945224
0.0442781
-0.0923386
0.0422175
-0.0901553
0.0402322
-0.0879874
0.038325
-0.0858291
0.0364883
-0.0836879
0.0347233
-0.0815579
0.0330203
-0.0794515
0.0313876
-0.0773614
0.0298154
-0.0752979
0.0282989
-0.073256
0.0268406
-0.071236
0.0254414
-0.0692489
0.0240928
-0.0672864
0.0227949
-0.0653522
0.0215474
-0.0634479
0.0203504
-0.0615762
0.0191937
-0.0597335
0.018087
-0.0579217
0.0170204
-0.0561477
0.0159985
-0.054403
0.0150165
-0.0526895
0.0140643
-0.0510088
0.0131565
-0.0493621
0.0122833
-0.0477506
0.0114492
-0.0461713
0.0106397
-0.0446248
0.0098642
-0.0431078
0.00912274
-0.0416308
0.00841023
-0.0401807
0.00772652
-0.0387632
0.00707152
-0.0373885
0.00644516
-0.0360341
0.0058379
-0.0347148
0.0022472
-0.124786
0.0986543
-0.123623
0.0945727
-0.122361
0.0906653
-0.120993
0.0868944
-0.11951
0.0832606
-0.117939
0.0797646
-0.116279
0.0763975
-0.114542
0.0731495
-0.112742
0.0700285
-0.11089
0.0670283
-0.108981
0.0641328
-0.107027
0.0613447
-0.105037
0.0586628
-0.103019
0.0560822
-0.100977
0.0535966
-0.0989132
0.0512039
-0.0968315
0.0489013
-0.0947498
0.0466916
-0.0926578
0.0445572
-0.0905601
0.0424996
-0.0884663
0.0405285
-0.0863844
0.0386292
-0.0843044
0.0368003
-0.0822366
0.035037
-0.0801786
0.033344
-0.0781392
0.031708
-0.0761125
0.0301387
-0.074116
0.0286335
-0.072136
0.0271789
-0.0701766
0.0257813
-0.0682453
0.0244378
-0.0663348
0.0231413
-0.0644562
0.0218989
-0.0626024
0.020702
-0.0607765
0.0195507
-0.0589836
0.0184437
-0.0572163
0.0173816
-0.0554864
0.0163591
-0.0537809
0.0153765
-0.0521064
0.0144334
-0.0504691
0.0135246
-0.0488558
0.0126503
-0.0472775
0.0118102
-0.045731
0.0110089
-0.0442172
0.0102321
-0.0427328
0.00948919
-0.0412832
0.0087751
-0.0398603
0.00808975
-0.0384743
0.00743765
-0.0371216
0.00680462
-0.0357936
0.00620457
-0.0345004
0.00562345
-0.0332383
0.00224923
-0.12053
0.0986192
-0.119557
0.0945878
-0.118474
0.0906855
-0.11726
0.0869331
-0.115937
0.0833206
-0.114518
0.0798404
-0.113006
0.0764918
-0.111413
0.0732686
-0.109756
0.0701635
-0.10803
0.0671691
-0.106243
0.0642907
-0.104419
0.0615247
-0.10255
0.0588572
-0.100642
0.056286
-0.0987058
0.0538112
-0.0967493
0.0514328
-0.0947685
0.0491409
-0.0927813
0.0469328
-0.090774
0.0448078
-0.0887708
0.0427679
-0.0867666
0.0407999
-0.0847568
0.0389009
-0.0827551
0.0370799
-0.0807593
0.035323
-0.0787809
0.0336393
-0.0768098
0.0320146
-0.0748551
0.0304505
-0.0729192
0.028942
-0.0709978
0.0274952
-0.0691003
0.0261026
-0.0672295