/*--------------------------------*- C++ -*----------------------------------*\
  =========                 |
  \\      /  F ield         | OpenFOAM: The Open Source CFD Toolbox
   \\    /   O peration     | Website:  https://openfoam.org
    \\  /    A nd           | Version:  7
     \\/     M anipulation  |
\*---------------------------------------------------------------------------*/
FoamFile
{
    version     2.0;
    format      ascii;
    class       volVectorField;
    location    "800";
    object      U;
}
// * * * * * * * * * * * * * * * * * * * * * * * * * * * * * * * * * * * * * //

dimensions      [0 1 -1 0 0 0 0];

internalField   nonuniform List<vector> 
23052
(
(49.5744 12.9517 -2.84871e-17)
(49.6032 12.9738 0)
(49.6581 13.1196 1.18081e-17)
(49.6239 12.997 0)
(49.6501 13.118 4.71487e-17)
(49.6247 13.1147 6.27161e-18)
(49.6359 13.0202 1.23285e-17)
(49.6476 13.1211 6.12753e-19)
(49.6338 13.1261 -6.68503e-18)
(49.6308 13.1051 2.14496e-17)
(49.644 13.0422 8.83397e-17)
(49.6489 13.1271 -7.30954e-17)
(49.6396 13.1361 -1.32344e-17)
(49.6295 13.1129 1.41954e-17)
(49.6188 13.109 7.65371e-18)
(49.6082 13.0988 8.28285e-18)
(49.6493 13.0628 -1.78696e-18)
(49.651 13.1348 0)
(49.6435 13.1455 -8.8179e-17)
(49.6298 13.1217 1.37871e-17)
(49.6192 13.1177 2.27714e-17)
(49.6059 13.1078 2.44633e-17)
(49.5877 13.0946 -2.11394e-18)
(49.5696 13.0867 0)
(49.6531 13.0819 1.6716e-17)
(49.6533 13.1433 1.19567e-16)
(49.6463 13.1548 1.00573e-16)
(49.6308 13.131 -5.6516e-17)
(49.6194 13.1264 -1.21207e-16)
(49.6048 13.1171 -6.54127e-17)
(49.5868 13.1046 8.72196e-18)
(49.5685 13.0921 -2.36383e-18)
(49.5453 13.0826 1.42529e-21)
(49.6559 13.0996 -1.21328e-16)
(49.6553 13.1523 -1.19504e-16)
(49.6486 13.164 -5.08322e-17)
(49.632 13.1405 4.21936e-17)
(49.6194 13.1352 -1.5158e-17)
(49.604 13.1264 4.91793e-17)
(49.5858 13.1143 -8.97684e-18)
(49.5664 13.1021 0)
(49.5444 13.0883 0)
(49.5205 13.0789 0)
(49.658 13.1159 1.81874e-17)
(49.657 13.1613 0)
(49.6504 13.173 2.48522e-17)
(49.6332 13.1501 2.70084e-17)
(49.6196 13.144 -4.49725e-17)
(49.6035 13.1357 -4.87434e-17)
(49.5848 13.124 -8.74383e-17)
(49.5649 13.1122 -1.89309e-17)
(49.5428 13.099 0)
(49.5194 13.0848 -2.22926e-17)
(49.493 13.0748 -2.69687e-20)
(49.6598 13.131 -2.36758e-16)
(49.6583 13.1703 0)
(49.652 13.1819 0)
(49.6342 13.1596 -1.1119e-16)
(49.6197 13.1528 1.35134e-16)
(49.6031 13.1449 8.10559e-17)
(49.584 13.1336 7.00552e-17)
(49.5636 13.1221 -3.76577e-17)
(49.5412 13.1095 -1.00762e-17)
(49.5174 13.0958 3.35179e-17)
(49.4919 13.081 -2.71102e-17)
(49.4641 13.0708 2.45301e-20)
(49.6613 13.145 1.90458e-16)
(49.6593 13.179 0)
(49.6533 13.1906 -1.71164e-16)
(49.6351 13.1689 8.30695e-17)
(49.6199 13.1617 0)
(49.6029 13.154 1.12452e-16)
(49.5833 13.1431 -1.71148e-17)
(49.5624 13.132 7.54144e-17)
(49.5398 13.1199 0)
(49.5156 13.1067 5.53269e-17)
(49.4899 13.0925 1.21954e-17)
(49.463 13.0772 6.49769e-18)
(49.4336 13.0667 0)
(49.6627 13.1579 -3.68322e-17)
(49.6602 13.1874 5.13148e-17)
(49.6544 13.199 -2.49456e-17)
(49.6359 13.1781 -2.66778e-17)
(49.6201 13.1705 2.93315e-17)
(49.6027 13.1631 -4.83333e-19)
(49.5827 13.1525 1.38413e-16)
(49.5614 13.1418 -1.90682e-17)
(49.5385 13.1302 -8.09897e-17)
(49.5141 13.1175 -1.36923e-19)
(49.4882 13.1038 4.79412e-17)
(49.4609 13.0891 0)
(49.4325 13.0734 -3.44425e-18)
(49.4016 13.0626 0)
(49.6641 13.1699 -2.33598e-16)
(49.6609 13.1956 0)
(49.6553 13.2071 1.71289e-16)
(49.6366 13.1871 2.66118e-17)
(49.6203 13.1792 0)
(49.6025 13.172 -2.55201e-16)
(49.5822 13.1619 -1.38406e-16)
(49.5606 13.1515 1.89898e-17)
(49.5374 13.1403 1.00766e-16)
(49.5127 13.1281 -6.60368e-17)
(49.4866 13.115 -1.54257e-19)
(49.4591 13.1009 -6.38823e-17)
(49.4304 13.0858 7.08693e-18)
(49.4005 13.0696 1.89379e-17)
(49.3683 13.0585 -3.65234e-20)
(49.6654 13.1811 -4.49841e-17)
(49.6614 13.2034 -4.76804e-17)
(49.656 13.2149 2.54447e-17)
(49.6372 13.1959 5.44616e-17)
(49.6205 13.1878 0)
(49.6024 13.1809 5.20661e-19)
(49.5818 13.1711 0)
(49.5598 13.1611 -1.48463e-16)
(49.5364 13.1504 -7.9588e-17)
(49.5114 13.1387 2.21415e-17)
(49.4851 13.1261 -1.30087e-16)
(49.4574 13.1125 1.15116e-16)
(49.4285 13.098 4.11879e-17)
(49.3984 13.0824 -1.4782e-17)
(49.3672 13.0658 -8.16053e-18)
(49.3336 13.0544 4.0479e-20)
(49.6667 13.1914 2.3383e-16)
(49.662 13.2109 1.96852e-16)
(49.6567 13.2223 4.96764e-17)
(49.6378 13.2044 -2.65119e-17)
(49.6206 13.1962 -2.90812e-17)
(49.6023 13.1896 1.5937e-16)
(49.5814 13.1802 -3.4877e-17)
(49.5592 13.1706 6.21256e-19)
(49.5355 13.1603 1.00612e-16)
(49.5103 13.1491 6.5154e-17)
(49.4838 13.137 7.09e-17)
(49.4559 13.124 -3.83989e-17)
(49.4268 13.1101 -1.09663e-16)
(49.3965 13.0951 7.08626e-18)
(49.365 13.0791 -7.96913e-18)
(49.3325 13.0621 4.32648e-18)
(49.2977 13.0504 -4.25245e-20)
(49.668 13.2011 -1.94075e-16)
(49.6624 13.218 -1.94215e-16)
(49.6572 13.2295 1.00571e-16)
(49.6383 13.2126 -2.77998e-17)
(49.6208 13.2044 2.35222e-16)
(49.6022 13.1981 1.26226e-16)
(49.5811 13.1892 -2.04823e-16)
(49.5586 13.1799 1.84354e-16)
(49.5347 13.1701 -1.5921e-16)
(49.5093 13.1594 -1.29644e-16)
(49.4826 13.1479 2.37568e-17)
(49.4546 13.1354 -7.51874e-17)
(49.4253 13.122 6.88262e-17)
(49.3948 13.1077 -1.46067e-17)
(49.3631 13.0923 2.43249e-17)
(49.3303 13.0759 0)
(49.2965 13.0583 1.41284e-17)
(49.2604 13.0463 4.7131e-20)
(49.6694 13.2101 2.41484e-16)
(49.6629 13.2249 0)
(49.6577 13.2364 5.07964e-17)
(49.6387 13.2206 -2.43129e-16)
(49.6209 13.2125 -2.36732e-16)
(49.6022 13.2065 -1.58593e-16)
(49.5809 13.198 2.72629e-16)
(49.5581 13.1891 -1.19643e-18)
(49.534 13.1798 7.30493e-19)
(49.5085 13.1696 0)
(49.4815 13.1586 2.28756e-17)
(49.4533 13.1467 7.61037e-17)
(49.4239 13.1339 -4.06879e-17)
(49.3932 13.1201 -5.84644e-17)
(49.3614 13.1054 0)
(49.3284 13.0896 -9.02213e-20)
(49.2943 13.0727 -9.2933e-18)
(49.2593 13.0546 5.2433e-18)
(49.2219 13.0423 -4.95295e-20)
(49.6707 13.2185 -3.00938e-16)
(49.6634 13.2315 1.44173e-16)
(49.6582 13.2429 0)
(49.6392 13.2282 3.83369e-16)
(49.6211 13.2204 -2.89347e-17)
(49.6022 13.2147 6.31222e-17)
(49.5807 13.2067 3.27768e-17)
(49.5578 13.1982 0)
(49.5335 13.1894 1.97887e-16)
(49.5077 13.1797 -1.70867e-16)
(49.4806 13.1692 0)
(49.4523 13.1578 -9.99924e-17)
(49.4226 13.1456 0)
(49.3918 13.1325 8.83304e-17)
(49.3598 13.1183 3.17154e-17)
(49.3266 13.1032 -1.03637e-16)
(49.2924 13.0869 6.54489e-17)
(49.257 13.0695 -2.01492e-17)
(49.2207 13.0509 -2.75613e-17)
(49.1821 13.0382 -1.84638e-21)
(49.6721 13.2264 4.26316e-16)
(49.6639 13.2377 -1.98809e-16)
(49.6586 13.2492 0)
(49.6396 13.2356 5.43299e-17)
(49.6212 13.228 0)
(49.6022 13.2227 -3.19667e-17)
(49.5806 13.2152 -1.34917e-16)
(49.5575 13.2072 1.46013e-16)
(49.533 13.1988 0)
(49.5071 13.1896 1.71117e-16)
(49.4799 13.1796 0)
(49.4513 13.1689 7.46487e-17)
(49.4216 13.1572 -2.74916e-17)
(49.3906 13.1447 2.97815e-17)
(49.3584 13.1311 -1.42422e-16)
(49.3251 13.1166 1.71808e-17)
(49.2906 13.101 -5.63622e-17)
(49.2551 13.0843 5.07446e-17)
(49.2184 13.0664 -1.84247e-19)
(49.1809 13.0472 1.80373e-17)
(49.141 13.0342 1.13409e-19)
(49.6735 13.2337 -3.44923e-16)
(49.6644 13.2437 -4.40556e-16)
(49.659 13.2552 -2.4741e-16)
(49.64 13.2427 -1.1183e-18)
(49.6214 13.2355 -2.80325e-17)
(49.6022 13.2305 0)
(49.5805 13.2235 6.77277e-17)
(49.5572 13.216 -1.8236e-16)
(49.5326 13.2081 0)
(49.5066 13.1994 0)
(49.4792 13.19 -1.8339e-16)
(49.4505 13.1797 2.52926e-17)
(49.4206 13.1687 -8.08641e-17)
(49.3895 13.1567 5.83001e-17)
(49.3572 13.1438 3.22086e-17)
(49.3237 13.1299 8.59704e-17)
(49.2891 13.115 0)
(49.2533 13.099 -2.05377e-17)
(49.2165 13.0818 4.3628e-17)
(49.1786 13.0633 1.16694e-17)
(49.1398 13.0436 -1.26808e-17)
(49.0986 13.0301 5.98621e-21)
(49.675 13.2406 3.86147e-16)
(49.665 13.2495 8.36116e-16)
(49.6595 13.2609 8.20694e-20)
(49.6404 13.2496 -2.18276e-16)
(49.6216 13.2427 2.63534e-16)
(49.6023 13.2382 1.87318e-16)
(49.5805 13.2317 0)
(49.5571 13.2246 1.094e-16)
(49.5323 13.2172 0)
(49.5062 13.209 1.2599e-16)
(49.4787 13.2002 3.66475e-16)
(49.4499 13.1905 0)
(49.4198 13.18 8.10722e-17)
(49.3886 13.1687 0)
(49.3561 13.1564 -1.56249e-16)
(49.3225 13.1431 0)
(49.2877 13.1289 -1.81502e-17)
(49.2518 13.1135 0)
(49.2147 13.097 -5.45979e-17)
(49.1766 13.0793 -1.20133e-17)
(49.1374 13.0603 0)
(49.0973 13.0399 -7.09266e-18)
(49.0548 13.026 -6.49139e-20)
(49.6764 13.247 7.36781e-18)
(49.6656 13.255 -7.89863e-16)
(49.6599 13.2664 1.48292e-16)
(49.6409 13.2561 5.30415e-17)
(49.6219 13.2498 -2.3497e-16)
(49.6024 13.2456 -2.82206e-16)
(49.5805 13.2397 -2.35716e-16)
(49.557 13.2331 -2.90749e-16)
(49.5321 13.2262 0)
(49.5059 13.2186 -1.69614e-16)
(49.4782 13.2102 -3.20366e-16)
(49.4493 13.2011 1.96878e-16)
(49.4192 13.1912 0)
(49.3878 13.1805 1.15235e-16)
(49.3552 13.1688 1.57256e-16)
(49.3214 13.1562 0)
(49.2865 13.1426 7.32911e-17)
(49.2504 13.1279 9.97717e-17)
(49.2132 13.1121 2.20061e-17)
(49.1748 13.0951 1.15321e-17)
(49.1354 13.0769 -4.48942e-19)
(49.0949 13.0572 0)
(49.0535 13.0362 -1.5284e-17)
(49.0095 13.0218 -7.26183e-20)
(49.6778 13.2529 4.20767e-16)
(49.6663 13.2602 3.94446e-16)
(49.6603 13.2717 -2.49415e-16)
(49.6413 13.2625 0)
(49.6221 13.2566 5.93133e-17)
(49.6026 13.2529 3.17925e-17)
(49.5806 13.2475 2.70148e-16)
(49.557 13.2414 3.97895e-16)
(49.532 13.235 0)
(49.5057 13.2279 -1.68152e-16)
(49.4779 13.2201 1.82655e-16)
(49.4489 13.2116 -2.61647e-17)
(49.4186 13.2023 0)
(49.3871 13.1922 -1.15408e-16)
(49.3544 13.1812 0)
(49.3205 13.1692 -3.31872e-17)
(49.2854 13.1562 -5.46815e-17)
(49.2492 13.1422 -7.94546e-17)
(49.2118 13.1271 -2.11394e-17)
(49.1733 13.1108 -8.13754e-17)
(49.1336 13.0933 0)
(49.0929 13.0745 1.35216e-17)
(49.051 13.0542 1.49681e-17)
(49.0083 13.0325 1.62592e-17)
(48.9629 13.0176 -2.74453e-21)
(49.6793 13.2586 4.29787e-17)
(49.667 13.2652 0)
(49.6608 13.2767 4.9561e-16)
(49.6418 13.2686 5.31472e-17)
(49.6224 13.2632 0)
(49.6028 13.26 1.55845e-16)
(49.5807 13.2551 -6.73014e-17)
(49.5571 13.2496 -2.90597e-16)
(49.532 13.2437 3.84239e-17)
(49.5056 13.2372 3.36479e-16)
(49.4777 13.2299 0)
(49.4486 13.222 -2.21716e-16)
(49.4183 13.2133 -1.85342e-16)
(49.3866 13.2038 0)
(49.3538 13.1934 -3.15853e-17)
(49.3198 13.182 0)
(49.2845 13.1697 0)
(49.2481 13.1564 5.9313e-17)
(49.2106 13.142 8.53672e-17)
(49.1719 13.1265 1.39134e-16)
(49.1321 13.1097 2.52085e-17)
(49.0911 13.0916 0)
(49.049 13.0721 -1.5129e-17)
(49.0057 13.0512 -4.04486e-17)
(48.9615 13.0287 -8.62579e-18)
(48.9147 13.0133 -2.97211e-21)
(49.6807 13.2638 -7.57029e-16)
(49.6677 13.2699 -5.0905e-17)
(49.6613 13.2815 -1.84286e-18)
(49.6423 13.2744 3.25584e-16)
(49.6228 13.2696 0)
(49.603 13.2668 -2.19073e-16)
(49.581 13.2626 3.00848e-16)
(49.5572 13.2576 3.23837e-16)
(49.5321 13.2522 0)
(49.5055 13.2463 -1.68406e-16)
(49.4776 13.2396 -2.26606e-16)
(49.4485 13.2322 4.97496e-17)
(49.418 13.2241 2.38037e-16)
(49.3863 13.2152 2.90794e-17)
(49.3533 13.2054 3.14681e-17)
(49.3192 13.1947 6.69945e-17)
(49.2838 13.1831 1.077e-16)
(49.2473 13.1705 -2.15484e-16)
(49.2096 13.1568 -1.48653e-16)
(49.1707 13.1419 -4.25006e-19)
(49.1307 13.1259 0)
(49.0895 13.1086 4.09139e-17)
(49.0471 13.0899 -7.39973e-17)
(49.0036 13.0698 4.79133e-17)
(48.9589 13.0482 -2.62444e-17)
(48.9133 13.0249 -1.42936e-17)
(48.865 13.009 1.79718e-19)
(49.6822 13.2687 3.89305e-18)
(49.6685 13.2745 3.46638e-16)
(49.6618 13.286 -8.00867e-16)
(49.6429 13.28 -2.18537e-16)
(49.6232 13.2758 1.75749e-16)
(49.6033 13.2735 0)
(49.5812 13.2698 -3.36413e-16)
(49.5574 13.2654 -2.001e-18)
(49.5322 13.2606 0)
(49.5056 13.2552 0)
(49.4777 13.2491 2.27238e-16)
(49.4484 13.2423 4.80109e-17)
(49.4179 13.2348 1.58214e-16)
(49.3861 13.2265 2.89846e-17)
(49.353 13.2174 1.04658e-18)
(49.3188 13.2073 -3.28019e-17)
(49.2833 13.1964 -3.6324e-17)
(49.2466 13.1844 5.92271e-17)
(49.2088 13.1714 6.41628e-17)
(49.1697 13.1573 -1.14766e-16)
(49.1295 13.142 -7.41074e-17)
(49.0881 13.1255 -5.4231e-17)
(49.0455 13.1076 4.3905e-17)
(49.0017 13.0883 -4.80002e-17)
(48.9568 13.0675 3.47218e-17)
(48.9106 13.0452 9.4339e-18)
(48.8635 13.0211 5.03398e-18)
(48.8136 13.0045 -1.9411e-19)
(49.6836 13.2733 3.82942e-16)
(49.6693 13.2789 -4.00729e-16)
(49.6623 13.2904 5.34202e-17)
(49.6434 13.2854 -5.53496e-17)
(49.6236 13.2818 -1.75755e-16)
(49.6037 13.2801 6.33815e-17)
(49.5815 13.277 0)
(49.5577 13.2731 -5.04582e-16)
(49.5324 13.2688 0)
(49.5058 13.264 -1.2407e-16)
(49.4778 13.2585 -4.58311e-17)
(49.4485 13.2523 -4.78892e-17)
(49.4179 13.2454 -4.47044e-16)
(49.386 13.2377 0)
(49.3529 13.2292 -3.02136e-17)
(49.3185 13.2198 -3.26888e-17)
(49.2829 13.2095 -1.44313e-16)
(49.2461 13.1982 1.5629e-16)
(49.2081 13.1859 -2.07599e-17)
(49.1689 13.1726 2.33059e-17)
(49.1285 13.158 2.23819e-16)
(49.0869 13.1422 5.35518e-17)
(49.0441 13.1252 5.83171e-17)
(49.0001 13.1067 1.58667e-16)
(48.9549 13.0868 -5.12401e-17)
(48.9085 13.0653 0)
(48.8608 13.0421 0)
(48.8121 13.0172 -1.10518e-17)
(48.7606 13 -1.07222e-19)
(49.6851 13.2776 3.31681e-16)
(49.6702 13.283 0)
(49.6628 13.2946 4.03546e-16)
(49.644 13.2906 -4.87901e-16)
(49.6241 13.2876 -1.54827e-18)
(49.6041 13.2864 1.58663e-18)
(49.5819 13.2839 -1.00096e-16)
(49.558 13.2806 3.87265e-17)
(49.5328 13.2769 -7.75262e-17)
(49.5061 13.2726 5.42301e-16)
(49.478 13.2677 8.92061e-17)
(49.4487 13.2621 4.77768e-17)
(49.418 13.2558 2.10332e-16)
(49.386 13.2487 5.66749e-17)
(49.3528 13.2408 0)
(49.3184 13.2321 3.37133e-17)
(49.2827 13.2225 3.64961e-17)
(49.2458 13.2119 0)
(49.2077 13.2003 0)
(49.1683 13.1877 -1.14122e-16)
(49.1278 13.1739 -2.2197e-16)
(49.086 13.1589 -2.68056e-16)
(49.0429 13.1426 -1.45755e-16)
(48.9987 13.125 -2.72662e-19)
(48.9532 13.1059 5.18426e-17)
(48.9065 13.0853 6.66758e-19)
(48.8585 13.063 0)
(48.8093 13.039 -1.89987e-19)
(48.759 13.0132 0)
(48.7058 12.9953 -8.17574e-21)
(49.6865 13.2817 3.6754e-17)
(49.6711 13.287 -3.48708e-16)
(49.6634 13.2987 5.14185e-17)
(49.6446 13.2956 4.37932e-16)
(49.6246 13.2932 2.92661e-16)
(49.6045 13.2926 -1.23725e-16)
(49.5824 13.2906 -6.60466e-17)
(49.5584 13.2879 3.76948e-17)
(49.5331 13.2848 -7.7416e-17)
(49.5064 13.2811 -6.25176e-16)
(49.4784 13.2768 -9.11964e-17)
(49.4489 13.2718 4.76733e-17)
(49.4182 13.2661 0)
(49.3862 13.2596 2.87317e-17)
(49.353 13.2524 -2.73377e-16)
(49.3184 13.2443 -3.36079e-17)
(49.2827 13.2354 1.43684e-16)
(49.2457 13.2255 -1.92297e-16)
(49.2074 13.2146 -2.09758e-16)
(49.1679 13.2027 9.10573e-17)
(49.1272 13.1896 1.22888e-16)
(49.0852 13.1754 1.07008e-16)
(49.042 13.1599 1.44529e-16)
(48.9975 13.1431 -1.41651e-16)
(48.9518 13.1249 6.80581e-17)
(48.9048 13.1051 0)
(48.8565 13.0838 4.08825e-17)
(48.8069 13.0607 -5.47925e-17)
(48.7561 13.0359 1.16833e-17)
(48.7041 13.0091 -1.2911e-17)
(48.6491 12.9905 2.40294e-19)
(49.6879 13.2855 -3.8208e-16)
(49.672 13.2908 4.0331e-16)
(49.664 13.3025 -4.03039e-16)
(49.6453 13.3004 -1.09016e-16)
(49.6252 13.2987 -1.76031e-16)
(49.605 13.2985 1.8895e-16)
(49.5829 13.2972 -6.60218e-17)
(49.5589 13.2951 2.3216e-18)
(49.5336 13.2926 3.07748e-16)
(49.5069 13.2895 7.06084e-16)
(49.4788 13.2857 -2.25425e-16)
(49.4493 13.2813 -1.44928e-16)
(49.4186 13.2762 0)
(49.3866 13.2704 -2.86573e-17)
(49.3532 13.2638 2.14425e-16)
(49.3186 13.2564 2.6242e-16)
(49.2828 13.2481 -1.079e-16)
(49.2457 13.2389 2.32714e-18)
(49.2073 13.2288 1.67515e-16)
(49.1677 13.2176 4.44793e-17)
(49.1268 13.2053 0)
(49.0847 13.1918 1.33076e-16)
(49.0412 13.1771 0)
(48.9965 13.1611 6.26904e-17)
(48.9506 13.1437 3.36601e-17)
(48.9033 13.1249 7.35369e-17)
(48.8547 13.1044 -1.40366e-16)
(48.8048 13.0823 2.21945e-17)
(48.7537 13.0585 -4.26433e-19)
(48.7011 13.0327 2.59617e-17)
(48.6474 13.0049 -7.12181e-18)
(48.5906 12.9856 0)
(49.6893 13.289 0)
(49.6729 13.2944 0)
(49.6646 13.3062 4.06744e-16)
(49.646 13.305 0)
(49.6258 13.3039 1.17053e-16)
(49.6056 13.3044 -6.18e-17)
(49.5834 13.3037 -3.39335e-17)
(49.5595 13.3021 2.40643e-18)
(49.5342 13.3002 -5.78047e-16)
(49.5074 13.2977 -2.73924e-18)
(49.4793 13.2945 4.54618e-17)
(49.4499 13.2907 4.9023e-17)
(49.4191 13.2862 -2.07307e-16)
(49.387 13.2811 -2.85867e-17)
(49.3536 13.2751 2.71847e-16)
(49.319 13.2684 -5.25193e-16)
(49.2831 13.2608 -3.61518e-17)
(49.2459 13.2523 1.9337e-16)
(49.2074 13.2428 1.45083e-18)
(49.1677 13.2323 -2.29524e-17)
(49.1266 13.2208 2.48727e-17)
(49.0843 13.2081 -1.06182e-16)
(49.0407 13.1942 1.02059e-18)
(48.9958 13.179 -1.55943e-16)
(48.9496 13.1625 -6.77314e-17)
(48.9021 13.1445 -1.64704e-16)
(48.8532 13.125 7.98091e-17)
(48.803 13.1038 2.1256e-17)
(48.7515 13.0809 1.19727e-17)
(48.6986 13.0562 6.35561e-17)
(48.6443 13.0295 -1.36515e-17)
(48.5888 13.0006 7.42567e-18)
(48.5301 12.9805 0)
(49.6907 13.2923 4.24096e-16)
(49.6739 13.2979 -4.95804e-17)
(49.6653 13.3098 -4.04779e-16)
(49.6467 13.3095 0)
(49.6265 13.309 -5.92984e-17)
(49.6062 13.31 -6.18055e-17)
(49.584 13.3099 0)
(49.5601 13.309 3.59996e-16)
(49.5348 13.3076 2.65879e-18)
(49.5081 13.3057 -7.04056e-16)
(49.48 13.3032 0)
(49.4505 13.3 1.45899e-16)
(49.4197 13.2961 1.55713e-16)
(49.3876 13.2916 0)
(49.3542 13.2863 -4.85558e-16)
(49.3195 13.2802 1.95539e-18)
(49.2835 13.2733 3.60499e-17)
(49.2462 13.2654 1.90425e-16)
(49.2077 13.2567 -4.07952e-17)
(49.1678 13.247 1.57566e-18)
(49.1266 13.2362 -1.94939e-16)
(49.0842 13.2243 -2.59302e-17)
(49.0404 13.2112 0)
(48.9953 13.1968 -2.98209e-17)
(48.9489 13.1811 -1.01153e-16)
(48.9011 13.164 3.49425e-19)
(48.852 13.1454 0)
(48.8015 13.1252 -1.07819e-16)
(48.7496 13.1032 0)
(48.6964 13.0795 -1.27034e-16)
(48.6417 13.0538 1.40709e-17)
(48.5855 13.0262 -4.52923e-17)
(48.5282 12.9963 8.32564e-18)
(48.4675 12.9753 3.14311e-19)
(49.6921 13.2954 -3.86721e-16)
(49.6749 13.3012 -1.00595e-16)
(49.666 13.3132 8.66138e-16)
(49.6475 13.3138 -5.55164e-17)
(49.6272 13.314 -5.93039e-17)
(49.6069 13.3155 3.10512e-16)
(49.5847 13.316 -3.38943e-17)
(49.5608 13.3157 0)
(49.5355 13.315 3.10481e-16)
(49.5088 13.3136 3.32644e-16)
(49.4807 13.3117 0)
(49.4512 13.3091 -2.40185e-16)
(49.4204 13.3059 0)
(49.3883 13.3019 5.50666e-17)
(49.3549 13.2973 2.42677e-16)
(49.3201 13.2919 2.94401e-16)
(49.2841 13.2856 0)
(49.2467 13.2785 -1.90973e-16)
(49.2081 13.2705 -1.64852e-16)
(49.1681 13.2615 -1.78533e-16)
(49.1269 13.2514 3.40387e-16)
(49.0843 13.2403 -9.31523e-19)
(49.0403 13.228 0)
(48.995 13.2145 1.55384e-16)
(48.9484 13.1996 1.34373e-16)
(48.9004 13.1834 7.28874e-17)
(48.851 13.1657 2.0101e-17)
(48.8002 13.1464 1.71332e-16)
(48.7481 13.1254 2.28605e-17)
(48.6944 13.1027 1.97735e-19)
(48.6394 13.0781 4.14809e-17)
(48.5829 13.0515 -1.45712e-17)
(48.5248 13.0228 1.59577e-17)
(48.4656 12.9917 -8.68217e-18)
(48.4028 12.9698 -3.2752e-19)
(49.6934 13.2983 -8.92178e-17)
(49.6759 13.3044 5.02908e-16)
(49.6667 13.3165 -3.58109e-16)
(49.6483 13.3179 4.3593e-16)
(49.628 13.3188 5.78819e-17)
(49.6076 13.3209 -1.89193e-16)
(49.5855 13.322 -6.77623e-17)
(49.5616 13.3223 -1.01384e-18)
(49.5363 13.3221 0)
(49.5096 13.3214 -8.27751e-17)
(49.4815 13.32 4.52428e-17)
(49.4521 13.3181 4.32461e-16)
(49.4213 13.3155 5.09342e-17)
(49.3891 13.3122 0)
(49.3557 13.3082 0)
(49.3209 13.3034 0)
(49.2848 13.2979 0)
(49.2474 13.2915 0)
(49.2087 13.2841 3.29939e-16)
(49.1686 13.2759 1.79232e-16)
(49.1273 13.2666 -1.94086e-16)
(49.0845 13.2562 0)
(49.0404 13.2447 1.41132e-16)
(48.995 13.232 -1.22761e-16)
(48.9482 13.218 -3.28108e-17)
(48.8999 13.2027 -3.6892e-17)
(48.8503 13.1859 2.00167e-17)
(48.7992 13.1675 -1.91537e-16)
(48.7468 13.1475 0)
(48.6928 13.1258 5.03961e-17)
(48.6374 13.1022 5.45371e-17)
(48.5804 13.0767 -7.38461e-17)
(48.522 13.0491 1.64519e-17)
(48.462 13.0193 8.94756e-18)
(48.4008 12.9871 0)
(48.3359 12.9643 -3.67086e-19)
(49.6947 13.301 0)
(49.6769 13.3074 -3.55747e-16)
(49.6674 13.3196 3.55407e-16)
(49.6491 13.3218 -4.40449e-16)
(49.6288 13.3234 -4.67388e-16)
(49.6084 13.3261 0)
(49.5863 13.3278 6.775e-17)
(49.5624 13.3287 3.9204e-16)
(49.5372 13.3291 -2.68059e-16)
(49.5105 13.329 0)
(49.4824 13.3283 -1.3751e-18)
(49.453 13.3269 -2.39597e-16)
(49.4222 13.3249 1.67031e-18)
(49.3901 13.3223 1.65215e-16)
(49.3566 13.319 0)
(49.3218 13.3149 -2.25893e-16)
(49.2857 13.31 2.80022e-16)
(49.2483 13.3043 1.51458e-16)
(49.2095 13.2977 -1.65155e-16)
(49.1693 13.2901 0)
(49.1279 13.2816 -4.91147e-17)
(49.085 13.272 -1.81627e-16)
(49.0408 13.2613 -8.47367e-17)
(48.9952 13.2495 9.18291e-17)
(48.9481 13.2363 -9.87631e-17)
(48.8997 13.2218 0)
(48.8498 13.2059 -1.17666e-16)
(48.7985 13.1885 1.19091e-18)
(48.7457 13.1695 2.34899e-17)
(48.6915 13.1488 -9.99015e-17)
(48.6357 13.1262 -1.08752e-16)
(48.5784 13.1018 5.91968e-17)
(48.5195 13.0753 1.57777e-17)
(48.4591 13.0466 -8.68723e-17)
(48.3971 13.0157 -9.33041e-18)
(48.3337 12.9823 0)
(48.2667 12.9585 7.79134e-19)
(49.696 13.3035 -4.25833e-17)
(49.678 13.3103 0)
(49.6681 13.3226 -7.67995e-16)
(49.6499 13.3257 -4.36487e-16)
(49.6296 13.3279 4.72275e-16)
(49.6092 13.3311 0)
(49.5871 13.3335 0)
(49.5633 13.335 -3.22043e-16)
(49.5381 13.336 2.31854e-16)
(49.5115 13.3365 4.19151e-17)
(49.4835 13.3364 0)
(49.4541 13.3356 4.27826e-16)
(49.4233 13.3343 0)
(49.3912 13.3323 -5.56303e-16)
(49.3577 13.3296 5.91082e-17)
(49.3229 13.3262 -3.07832e-17)
(49.2868 13.322 -3.68442e-17)
(49.2493 13.317 -4.54464e-16)
(49.2104 13.3111 1.63481e-16)
(49.1702 13.3043 1.31741e-16)
(49.1286 13.2965 -4.89808e-17)
(49.0857 13.2877 4.67881e-16)
(49.0413 13.2778 -2.77383e-17)
(48.9955 13.2668 -6.12153e-17)
(48.9484 13.2545 3.33938e-17)
(48.8997 13.2409 -3.5333e-17)
(48.8496 13.2259 8.61034e-19)
(48.7981 13.2094 1.6922e-16)
(48.745 13.1913 -2.25619e-17)
(48.6904 13.1716 1.74889e-16)
(48.6343 13.1501 5.4247e-17)
(48.5766 13.1267 -5.86779e-17)
(48.5174 13.1014 0)
(48.4565 13.0739 6.95745e-17)
(48.3941 13.0441 0)
(48.3299 13.012 0)
(48.2644 12.9774 0)
(48.1951 12.9525 -4.19921e-19)
(49.6973 13.3059 -3.33413e-16)
(49.679 13.313 0)
(49.6689 13.3255 4.64906e-16)
(49.6508 13.3293 3.87198e-16)
(49.6305 13.3322 -4.08314e-16)
(49.6101 13.336 6.33051e-17)
(49.588 13.339 2.65691e-16)
(49.5643 13.3411 0)
(49.5391 13.3427 -3.78636e-17)
(49.5125 13.3438 4.06525e-17)
(49.4846 13.3443 2.64212e-16)
(49.4552 13.3442 -3.83891e-16)
(49.4245 13.3435 -2.049e-16)
(49.3924 13.3421 -5.44022e-17)
(49.3589 13.3401 2.97674e-16)
(49.3241 13.3373 2.27208e-16)
(49.288 13.3338 -2.46722e-16)
(49.2504 13.3295 3.03981e-16)
(49.2116 13.3244 -1.328e-18)
(49.1713 13.3183 -1.77905e-16)
(49.1296 13.3113 4.71595e-17)
(49.0865 13.3033 -1.57456e-16)
(49.0421 13.2942 -2.243e-16)
(48.9962 13.284 9.04813e-17)
(48.9488 13.2725 -3.46143e-19)
(48.9 13.2598 -1.42885e-16)
(48.8497 13.2457 1.16281e-16)
(48.7979 13.2301 8.36078e-17)
(48.7445 13.213 -9.12393e-17)
(48.6896 13.1943 -9.95306e-17)
(48.6332 13.1739 0)
(48.5752 13.1516 1.17067e-16)
(48.5155 13.1273 -1.62012e-17)
(48.4543 13.101 0)
(48.3913 13.0724 0)
(48.3268 13.0416 2.08128e-17)
(48.2605 13.0082 -2.21824e-17)
(48.1927 12.9722 -6.16053e-18)
(48.1211 12.9463 0)
(49.6985 13.3081 3.81433e-16)
(49.6801 13.3157 0)
(49.6697 13.3283 -4.61862e-16)
(49.6516 13.3329 -5.42762e-17)
(49.6314 13.3364 9.40755e-16)
(49.611 13.3408 -6.19352e-17)
(49.589 13.3443 -6.00136e-16)
(49.5653 13.3471 2.84538e-16)
(49.5402 13.3493 3.05191e-16)
(49.5137 13.351 -4.18321e-17)
(49.4858 13.3521 -4.01191e-16)
(49.4565 13.3526 -2.8414e-16)
(49.4258 13.3525 2.58881e-16)
(49.3937 13.3518 1.66423e-16)
(49.3603 13.3504 -4.19807e-16)
(49.3255 13.3484 0)
(49.2893 13.3455 3.43596e-17)
(49.2518 13.3419 0)
(49.2128 13.3375 4.02216e-17)
(49.1725 13.3322 0)
(49.1308 13.3259 0)
(49.0876 13.3187 5.2779e-17)
(49.043 13.3104 2.53879e-16)
(48.997 13.301 -3.95393e-16)
(48.9495 13.2904 1.31053e-16)
(48.9005 13.2786 1.42046e-16)
(48.85 13.2654 3.94686e-17)
(48.7979 13.2508 -1.27234e-16)
(48.7443 13.2346 9.14005e-17)
(48.6892 13.2169 0)
(48.6324 13.1975 2.73551e-17)
(48.574 13.1763 -1.74723e-16)
(48.514 13.1531 -1.61287e-17)
(48.4523 13.1279 1.03051e-16)
(48.389 13.1006 -7.45989e-17)
(48.3239 13.071 -6.12537e-17)
(48.2572 13.0389 1.16765e-17)
(48.1886 13.0043 -1.22456e-17)
(48.1185 12.967 1.30889e-17)
(48.0445 12.9398 0)
(49.6997 13.3102 0)
(49.6812 13.3182 -3.53707e-16)
(49.6705 13.331 4.14797e-16)
(49.6526 13.3363 -3.27378e-16)
(49.6324 13.3405 -4.7331e-16)
(49.612 13.3454 -5.61044e-16)
(49.59 13.3496 2.00854e-16)
(49.5664 13.3529 -2.87549e-16)
(49.5414 13.3557 -3.08304e-16)
(49.5149 13.3581 0)
(49.4871 13.3598 4.36219e-17)
(49.4578 13.3609 8.09081e-16)
(49.4272 13.3615 -5.05555e-17)
(49.3952 13.3614 -1.10808e-16)
(49.3618 13.3607 5.36724e-16)
(49.327 13.3593 3.28316e-17)
(49.2908 13.3571 0)
(49.2533 13.3542 0)
(49.2143 13.3505 4.009e-17)
(49.1739 13.346 -2.19035e-16)
(49.1321 13.3405 1.90165e-16)
(49.0889 13.334 -5.26531e-17)
(49.0442 13.3265 -5.50331e-17)
(48.998 13.318 2.13653e-16)
(48.9504 13.3082 3.22984e-17)
(48.9012 13.2973 -1.28691e-18)
(48.8505 13.285 3.79518e-17)
(48.7982 13.2713 -8.38336e-17)
(48.7444 13.2561 -2.3147e-17)
(48.689 13.2394 -9.83003e-17)
(48.6319 13.221 0)
(48.5732 13.2008 1.62128e-18)
(48.5128 13.1788 3.21256e-17)
(48.4507 13.1547 1.65286e-17)
(48.387 13.1286 5.6263e-17)
(48.3214 13.1002 4.04976e-17)
(48.2541 13.0694 3.27857e-17)
(48.1851 13.0362 -5.94522e-17)
(48.1142 13.0003 6.10601e-20)
(48.0418 12.9615 -1.41583e-17)
(47.9653 12.9331 0)
(49.7009 13.3121 -3.28734e-16)
(49.6822 13.3205 8.13319e-16)
(49.6713 13.3335 -1.04589e-16)
(49.6535 13.3396 4.42888e-16)
(49.6333 13.3444 -5.81345e-17)
(49.613 13.3499 1.00138e-15)
(49.5911 13.3547 -1.99515e-16)
(49.5676 13.3586 3.43375e-17)
(49.5426 13.3621 -3.43632e-16)
(49.5162 13.365 0)
(49.4885 13.3673 3.51737e-16)
(49.4593 13.3691 -3.82699e-16)
(49.4287 13.3703 0)
(49.3967 13.3708 0)
(49.3634 13.3708 -1.20384e-16)
(49.3286 13.37 2.56363e-16)
(49.2925 13.3686 -3.11267e-16)
(49.2549 13.3664 3.82975e-17)
(49.2159 13.3634 -4.8742e-16)
(49.1755 13.3596 1.33528e-16)
(49.1337 13.3549 -1.59968e-18)
(49.0904 13.3492 0)
(49.0456 13.3425 2.48975e-16)
(48.9993 13.3348 0)
(48.9515 13.3259 0)
(48.9022 13.3158 3.61964e-17)
(48.8513 13.3044 1.91368e-16)
(48.7988 13.2917 0)
(48.7447 13.2775 6.75755e-17)
(48.689 13.2618 2.46919e-17)
(48.6317 13.2444 1.06313e-16)
(48.5727 13.2253 2.31387e-16)
(48.5119 13.2043 -3.08522e-17)
(48.4495 13.1814 -1.64331e-17)
(48.3853 13.1565 0)
(48.3193 13.1293 -2.05038e-17)
(48.2516 13.0998 -6.59329e-17)
(48.182 13.0679 2.38274e-17)
(48.1106 13.0333 3.90628e-17)
(48.0373 12.9961 -2.81474e-17)
(47.9624 12.9558 7.5189e-18)
(47.8833 12.9261 0)
(49.702 13.3139 4.29061e-16)
(49.6833 13.3228 -4.60456e-16)
(49.6722 13.336 -3.59579e-16)
(49.6544 13.3427 -3.83561e-16)
(49.6344 13.3482 0)
(49.614 13.3543 -5.0385e-16)
(49.5923 13.3596 2.68667e-16)
(49.5688 13.3642 -2.84154e-16)
(49.5439 13.3682 3.45907e-16)
(49.5176 13.3717 4.05424e-17)
(49.4899 13.3747 -3.98129e-18)
(49.4608 13.3771 0)
(49.4303 13.3789 0)
(49.3984 13.3801 2.19622e-16)
(49.3651 13.3807 2.36999e-16)
(49.3304 13.3807 -3.21817e-16)
(49.2942 13.3799 2.79263e-16)
(49.2567 13.3784 -3.82292e-17)
(49.2177 13.3762 2.86399e-16)
(49.1773 13.3731 -2.19646e-16)
(49.1354 13.3692 -2.39395e-16)
(49.092 13.3643 0)
(49.0472 13.3584 -3.01873e-17)
(49.0008 13.3515 2.96659e-17)
(48.9528 13.3435 2.60599e-16)
(48.9034 13.3343 0)
(48.8523 13.3238 -1.52755e-16)
(48.7996 13.312 0)
(48.7454 13.2987 0)
(48.6894 13.284 4.92155e-17)
(48.6318 13.2677 -1.06559e-16)
(48.5725 13.2496 -1.44992e-16)
(48.5114 13.2298 1.56714e-16)
(48.4486 13.208 -2.03627e-16)
(48.384 13.1842 -1.81197e-17)
(48.3176 13.1583 2.04159e-17)
(48.2493 13.1301 6.49933e-17)
(48.1792 13.0994 4.73477e-17)
(48.1073 13.0663 1.26332e-17)
(48.0335 13.0304 -1.37395e-17)
(47.9577 12.9917 1.49483e-17)
(47.8803 12.9499 -8.26719e-18)
(47.7985 12.9188 0)
(49.7031 13.3156 -4.38669e-17)
(49.6844 13.325 -5.05698e-16)
(49.673 13.3384 4.17518e-16)
(49.6554 13.3458 3.33442e-16)
(49.6354 13.3519 0)
(49.6151 13.3585 6.33597e-17)
(49.5934 13.3645 0)
(49.5701 13.3696 3.4516e-18)
(49.5453 13.3743 0)
(49.5191 13.3784 0)
(49.4915 13.382 -3.5512e-16)
(49.4625 13.385 3.29441e-16)
(49.432 13.3874 0)
(49.4002 13.3893 -2.21724e-16)
(49.3669 13.3906 -4.75802e-16)
(49.3323 13.3912 0)
(49.2962 13.3911 0)
(49.2586 13.3903 2.98397e-16)
(49.2197 13.3888 3.21286e-16)
(49.1792 13.3865 3.50752e-16)
(49.1373 13.3833 2.83908e-16)
(49.0939 13.3792 -2.06376e-16)
(49.0489 13.3742 -2.23373e-16)
(49.0025 13.3681 2.69547e-16)
(48.9544 13.3609 -5.21981e-16)
(48.9048 13.3526 0)
(48.8536 13.343 0)
(48.8007 13.3321 -2.06378e-16)
(48.7462 13.3199 -1.79544e-16)
(48.6901 13.3061 1.94733e-16)
(48.6322 13.2908 2.60254e-17)
(48.5725 13.2738 -2.92888e-17)
(48.5112 13.2551 -9.4417e-17)
(48.448 13.2345 1.91772e-18)
(48.383 13.2118 0)
(48.3162 13.1871 2.03346e-17)
(48.2475 13.1602 -2.12918e-17)
(48.1769 13.1309 -9.39965e-17)
(48.1044 13.099 -7.62318e-17)
(48.03 13.0646 0)
(47.9537 13.0273 4.56264e-17)
(47.8753 12.9871 -1.658e-17)
(47.7953 12.9437 0)
(47.7108 12.9112 5.23629e-21)
(49.7042 13.3171 0)
(49.6855 13.3271 3.59962e-16)
(49.6739 13.3407 -3.60774e-16)
(49.6564 13.3487 0)
(49.6365 13.3555 5.26835e-16)
(49.6163 13.3627 -6.33765e-17)
(49.5947 13.3692 -9.99127e-17)
(49.5714 13.375 2.51293e-16)
(49.5467 13.3802 0)
(49.5206 13.3849 -2.84701e-16)
(49.4931 13.3891 0)
(49.4642 13.3927 -3.81739e-16)
(49.4339 13.3958 5.03284e-17)
(49.4021 13.3983 0)
(49.3689 13.4002 2.38903e-16)
(49.3343 13.4015 0)
(49.2983 13.4022 0)
(49.2608 13.4021 -3.0092e-16)
(49.2218 13.4013 -3.20452e-18)
(49.1813 13.3997 -1.32874e-16)
(49.1394 13.3973 -3.78887e-16)
(49.0959 13.394 1.5557e-16)
(49.0509 13.3898 1.11111e-16)
(49.0044 13.3845 -2.00367e-18)
(48.9562 13.3782 2.08736e-18)
(48.9065 13.3708 0)
(48.8551 13.3621 0)
(48.8021 13.3522 1.66324e-16)
(48.7474 13.3409 1.34502e-16)
(48.691 13.3281 -1.95455e-16)
(48.6328 13.3139 -1.05332e-16)
(48.5729 13.2979 -2.92044e-17)
(48.5112 13.2803 1.54541e-16)
(48.4477 13.2608 1.35295e-16)
(48.3824 13.2394 -1.4476e-16)
(48.3151 13.2158 2.02609e-17)
(48.246 13.1902 -2.12077e-17)
(48.1749 13.1621 7.00775e-17)
(48.1019 13.1317 5.10465e-17)
(48.027 13.0986 5.52769e-17)
(47.95 13.0628 2.99511e-17)
(47.8711 13.0241 -1.63698e-17)
(47.7902 12.9824 8.74771e-18)
(47.7074 12.9373 9.87336e-18)
(47.6202 12.9032 0)
(49.7052 13.3186 0)
(49.6865 13.329 5.04858e-17)
(49.6748 13.3429 4.71909e-16)
(49.6574 13.3516 0)
(49.6376 13.359 -4.74994e-16)
(49.6175 13.3667 0)
(49.596 13.3738 -1.99361e-16)
(49.5728 13.3801 7.1487e-17)
(49.5482 13.386 -1.03182e-18)
(49.5223 13.3913 4.57428e-17)
(49.4949 13.3961 1.29973e-18)
(49.466 13.4003 0)
(49.4358 13.4041 4.05837e-16)