/*--------------------------------*- C++ -*----------------------------------*\
  =========                 |
  \\      /  F ield         | OpenFOAM: The Open Source CFD Toolbox
   \\    /   O peration     | Website:  https://openfoam.org
    \\  /    A nd           | Version:  7
     \\/     M anipulation  |
\*---------------------------------------------------------------------------*/
FoamFile
{
    version     2.0;
    format      ascii;
    class       volScalarField;
    location    "800";
    object      yPlus;
}
// * * * * * * * * * * * * * * * * * * * * * * * * * * * * * * * * * * * * * //

dimensions      [0 0 0 0 0 0 0];

internalField   uniform 0;

boundaryField
{
    inlet-l
    {
        type            calculated;
        value           uniform 0;
    }
    airfoil-l1
    {
        type            calculated;
        value           nonuniform List<scalar> 
107
(
31.3865
30.633
29.6191
28.4169
27.1054
25.7502
24.4023
23.0966
21.8551
20.6869
19.5957
18.5754
17.6131
16.709
15.8539
15.0323
14.2377
13.49
12.8037
12.1796
11.5997
11.0464
10.5164
10.0048
9.5108
9.03395
8.56525
8.10285
7.64267
7.17676
6.70574
6.22149
5.71504
5.18317
4.60809
3.96872
3.22205
2.26018
0.332069
2.27751
3.2087
3.9216
4.52154
5.05052
5.53052
5.97336
6.38763
6.78097
7.15574
7.51491
7.85881
8.19528
8.52365
8.84478
9.16292
9.47664
9.78807
10.0998
10.4102
10.7174
11.0268
11.3388
11.6571
11.9825
12.3199
12.6722
13.0311
13.3915
13.7425
14.0762
14.4019
14.7105
15.0088
15.2937
15.5755
15.8457
16.1073
16.3642
16.6163
16.8623
17.1009
17.337
17.5669
17.791
18.0138
18.2332
18.4428
18.6497
18.8534
19.0504
19.2456
19.4342
19.6184
19.795
19.9657
20.1366
20.2975
20.454
20.605
20.7522
20.8896
21.0219
21.1484
21.2693
21.3835
21.4858
21.5862
)
;
    }
    empty-1
    {
        type            empty;
    }
    empty-2
    {
        type            empty;
    }
    wall-l1
    {
        type            calculated;
        value           nonuniform 0();
    }
    airfoil-l2
    {
        type            calculated;
        value           uniform 21.8121;
    }
    empty-3
    {
        type            empty;
    }
    empty-4
    {
        type            empty;
    }
    wall-l2
    {
        type            calculated;
        value           nonuniform 0();
    }
    outlet-l
    {
        type            calculated;
        value           nonuniform 0();
    }
    empty-5
    {
        type            empty;
    }
    empty-6
    {
        type            empty;
    }
    outlet-h
    {
        type            calculated;
        value           nonuniform 0();
    }
    wall-h2
    {
        type            calculated;
        value           nonuniform 0();
    }
    empty-7
    {
        type            empty;
    }
    empty-8
    {
        type            empty;
    }
    airfoil-h2
    {
        type            calculated;
        value           nonuniform 0();
    }
    wall-h1
    {
        type            calculated;
        value           nonuniform 0();
    }
    empty-9
    {
        type            empty;
    }
    empty-10
    {
        type            empty;
    }
    inlet-h
    {
        type            calculated;
        value           uniform 0;
    }
    airfoil-h1
    {
        type            calculated;
        value           nonuniform List<scalar> 
16
(
31.8759
32.1794
32.2692
32.0787
31.6641
31.1196
30.5248
29.9283
29.3463
28.7907
28.2803
27.8137
27.3816
26.9881
26.6309
26.3073
)
;
    }
    empty-11
    {
        type            empty;
    }
    empty-12
    {
        type            empty;
    }
    procBoundary0to1
    {
        type            processor;
        value           uniform 0;
    }
    procBoundary0to3
    {
        type            processor;
        value           uniform 0;
    }
}


// ************************************************************************* //
