/*--------------------------------*- C++ -*----------------------------------*\
  =========                 |
  \\      /  F ield         | OpenFOAM: The Open Source CFD Toolbox
   \\    /   O peration     | Website:  https://openfoam.org
    \\  /    A nd           | Version:  7
     \\/     M anipulation  |
\*---------------------------------------------------------------------------*/
FoamFile
{
    version     2.0;
    format      ascii;
    class       volScalarField;
    location    "400";
    object      nut;
}
// * * * * * * * * * * * * * * * * * * * * * * * * * * * * * * * * * * * * * //

dimensions      [0 2 -1 0 0 0 0];

internalField   nonuniform List<scalar> 
23052
(
5.2074e-06
5.20764e-06
5.21015e-06
5.20773e-06
5.21016e-06
5.21194e-06
5.20773e-06
5.20998e-06
5.21151e-06
5.21227e-06
5.20769e-06
5.2098e-06
5.21118e-06
5.21186e-06
5.21183e-06
5.2113e-06
5.20763e-06
5.20958e-06
5.21083e-06
5.21146e-06
5.21143e-06
5.21095e-06
5.21021e-06
5.20919e-06
5.20755e-06
5.20935e-06
5.2105e-06
5.21107e-06
5.21106e-06
5.21062e-06
5.20994e-06
5.20911e-06
5.20818e-06
5.20746e-06
5.20913e-06
5.21018e-06
5.21071e-06
5.21069e-06
5.21029e-06
5.20965e-06
5.20889e-06
5.20812e-06
5.20762e-06
5.20738e-06
5.20891e-06
5.20988e-06
5.21036e-06
5.21035e-06
5.20998e-06
5.20938e-06
5.20867e-06
5.20799e-06
5.20758e-06
5.2078e-06
5.20729e-06
5.2087e-06
5.20958e-06
5.21002e-06
5.21001e-06
5.20967e-06
5.20912e-06
5.20846e-06
5.20784e-06
5.20755e-06
5.2078e-06
5.20861e-06
5.20722e-06
5.20849e-06
5.2093e-06
5.2097e-06
5.2097e-06
5.20938e-06
5.20886e-06
5.20825e-06
5.20772e-06
5.20752e-06
5.20785e-06
5.20862e-06
5.20966e-06
5.20714e-06
5.2083e-06
5.20903e-06
5.2094e-06
5.20939e-06
5.2091e-06
5.20862e-06
5.20806e-06
5.20761e-06
5.20752e-06
5.20794e-06
5.20871e-06
5.20966e-06
5.21072e-06
5.20707e-06
5.20811e-06
5.20878e-06
5.20911e-06
5.2091e-06
5.20883e-06
5.20838e-06
5.20788e-06
5.20752e-06
5.20755e-06
5.20804e-06
5.20884e-06
5.20975e-06
5.2107e-06
5.21168e-06
5.207e-06
5.20794e-06
5.20854e-06
5.20883e-06
5.20883e-06
5.20857e-06
5.20816e-06
5.20772e-06
5.20746e-06
5.2076e-06
5.20815e-06
5.20896e-06
5.20987e-06
5.21077e-06
5.21166e-06
5.21257e-06
5.20694e-06
5.20777e-06
5.20831e-06
5.20858e-06
5.20857e-06
5.20833e-06
5.20795e-06
5.20758e-06
5.20742e-06
5.20767e-06
5.20828e-06
5.20909e-06
5.20997e-06
5.21086e-06
5.2117e-06
5.21254e-06
5.21339e-06
5.20688e-06
5.20762e-06
5.2081e-06
5.20834e-06
5.20832e-06
5.2081e-06
5.20776e-06
5.20747e-06
5.20742e-06
5.20777e-06
5.20841e-06
5.20922e-06
5.21008e-06
5.21094e-06
5.21177e-06
5.21256e-06
5.21335e-06
5.21416e-06
5.20683e-06
5.20747e-06
5.2079e-06
5.20811e-06
5.20809e-06
5.20789e-06
5.2076e-06
5.20739e-06
5.20746e-06
5.20788e-06
5.20856e-06
5.20936e-06
5.2102e-06
5.21103e-06
5.21183e-06
5.21262e-06
5.21337e-06
5.21412e-06
5.21488e-06
5.20678e-06
5.20734e-06
5.20772e-06
5.2079e-06
5.20788e-06
5.2077e-06
5.20746e-06
5.20734e-06
5.20753e-06
5.20802e-06
5.20871e-06
5.2095e-06
5.21031e-06
5.21112e-06
5.2119e-06
5.21267e-06
5.21341e-06
5.21412e-06
5.21483e-06
5.21556e-06
5.20673e-06
5.20721e-06
5.20755e-06
5.20771e-06
5.20769e-06
5.20753e-06
5.20735e-06
5.20733e-06
5.20762e-06
5.20816e-06
5.20887e-06
5.20964e-06
5.21043e-06
5.21121e-06
5.21198e-06
5.21272e-06
5.21344e-06
5.21416e-06
5.21483e-06
5.21551e-06
5.21619e-06
5.20669e-06
5.2071e-06
5.2074e-06
5.20754e-06
5.20752e-06
5.20738e-06
5.20727e-06
5.20737e-06
5.20774e-06
5.20832e-06
5.20903e-06
5.20978e-06
5.21055e-06
5.21131e-06
5.21205e-06
5.21278e-06
5.21349e-06
5.21418e-06
5.21486e-06
5.21549e-06
5.21614e-06
5.21679e-06
5.20665e-06
5.207e-06
5.20727e-06
5.20739e-06
5.20737e-06
5.20727e-06
5.20724e-06
5.20745e-06
5.20789e-06
5.20849e-06
5.20919e-06
5.20993e-06
5.21067e-06
5.2114e-06
5.21213e-06
5.21284e-06
5.21353e-06
5.21421e-06
5.21487e-06
5.21552e-06
5.21612e-06
5.21673e-06
5.21734e-06
5.20661e-06
5.20692e-06
5.20715e-06
5.20726e-06
5.20724e-06
5.20719e-06
5.20726e-06
5.20756e-06
5.20805e-06
5.20866e-06
5.20935e-06
5.21007e-06
5.21079e-06
5.2115e-06
5.21221e-06
5.2129e-06
5.21358e-06
5.21425e-06
5.2149e-06
5.21553e-06
5.21614e-06
5.21671e-06
5.21728e-06
5.21786e-06
5.20659e-06
5.20685e-06
5.20706e-06
5.20715e-06
5.20715e-06
5.20716e-06
5.20733e-06
5.20769e-06
5.20822e-06
5.20884e-06
5.20951e-06
5.2102e-06
5.2109e-06
5.2116e-06
5.21229e-06
5.21297e-06
5.21364e-06
5.21429e-06
5.21493e-06
5.21555e-06
5.21614e-06
5.21672e-06
5.21726e-06
5.21779e-06
5.21834e-06
5.20658e-06
5.20681e-06
5.20698e-06
5.20706e-06
5.20709e-06
5.20717e-06
5.20743e-06
5.20785e-06
5.20839e-06
5.20901e-06
5.20967e-06
5.21034e-06
5.21102e-06
5.2117e-06
5.21237e-06
5.21304e-06
5.2137e-06
5.21434e-06
5.21497e-06
5.21557e-06
5.21616e-06
5.21672e-06
5.21727e-06
5.21777e-06
5.21827e-06
5.21878e-06
5.20659e-06
5.20678e-06
5.20692e-06
5.207e-06
5.20707e-06
5.20724e-06
5.20756e-06
5.20802e-06
5.20857e-06
5.20918e-06
5.20982e-06
5.21047e-06
5.21114e-06
5.2118e-06
5.21246e-06
5.21311e-06
5.21376e-06
5.21439e-06
5.215e-06
5.2156e-06
5.21618e-06
5.21673e-06
5.21726e-06
5.21778e-06
5.21824e-06
5.21871e-06
5.2192e-06
5.20663e-06
5.20678e-06
5.20689e-06
5.20698e-06
5.2071e-06
5.20734e-06
5.20772e-06
5.20819e-06
5.20874e-06
5.20934e-06
5.20997e-06
5.21061e-06
5.21125e-06
5.2119e-06
5.21255e-06
5.21319e-06
5.21382e-06
5.21444e-06
5.21504e-06
5.21563e-06
5.2162e-06
5.21675e-06
5.21727e-06
5.21777e-06
5.21825e-06
5.21869e-06
5.21913e-06
5.21958e-06
5.20666e-06
5.20678e-06
5.20688e-06
5.20699e-06
5.20718e-06
5.20748e-06
5.20788e-06
5.20837e-06
5.20892e-06
5.2095e-06
5.21011e-06
5.21074e-06
5.21137e-06
5.212e-06
5.21264e-06
5.21326e-06
5.21388e-06
5.21449e-06
5.21509e-06
5.21567e-06
5.21623e-06
5.21676e-06
5.21728e-06
5.21778e-06
5.21824e-06
5.21869e-06
5.2191e-06
5.21951e-06
5.21994e-06
5.20669e-06
5.2068e-06
5.20691e-06
5.20706e-06
5.2073e-06
5.20763e-06
5.20805e-06
5.20854e-06
5.20908e-06
5.20965e-06
5.21025e-06
5.21086e-06
5.21148e-06
5.21211e-06
5.21273e-06
5.21334e-06
5.21395e-06
5.21455e-06
5.21514e-06
5.2157e-06
5.21625e-06
5.21678e-06
5.21729e-06
5.21778e-06
5.21825e-06
5.21868e-06
5.21911e-06
5.21949e-06
5.21987e-06
5.22027e-06
5.20671e-06
5.20683e-06
5.20696e-06
5.20716e-06
5.20743e-06
5.20779e-06
5.20822e-06
5.20871e-06
5.20924e-06
5.2098e-06
5.21039e-06
5.21099e-06
5.2116e-06
5.21221e-06
5.21282e-06
5.21343e-06
5.21402e-06
5.21461e-06
5.21519e-06
5.21574e-06
5.21629e-06
5.21681e-06
5.21731e-06
5.21779e-06
5.21825e-06
5.21869e-06
5.2191e-06
5.21949e-06
5.21985e-06
5.2202e-06
5.22058e-06
5.20673e-06
5.20689e-06
5.20706e-06
5.20728e-06
5.20757e-06
5.20794e-06
5.20838e-06
5.20887e-06
5.20939e-06
5.20995e-06
5.21053e-06
5.21112e-06
5.21171e-06
5.21231e-06
5.21291e-06
5.21351e-06
5.2141e-06
5.21467e-06
5.21524e-06
5.21579e-06
5.21632e-06
5.21683e-06
5.21733e-06
5.2178e-06
5.21826e-06
5.21869e-06
5.2191e-06
5.21948e-06
5.21985e-06
5.22018e-06
5.22051e-06
5.22086e-06
5.20675e-06
5.20695e-06
5.20715e-06
5.2074e-06
5.20771e-06
5.20809e-06
5.20853e-06
5.20902e-06
5.20954e-06
5.21009e-06
5.21066e-06
5.21124e-06
5.21183e-06
5.21242e-06
5.21301e-06
5.21359e-06
5.21417e-06
5.21474e-06
5.21529e-06
5.21583e-06
5.21636e-06
5.21686e-06
5.21735e-06
5.21782e-06
5.21827e-06
5.21869e-06
5.2191e-06
5.21948e-06
5.21984e-06
5.22019e-06
5.22049e-06
5.22079e-06
5.22112e-06
5.20677e-06
5.20701e-06
5.20724e-06
5.20751e-06
5.20784e-06
5.20824e-06
5.20868e-06
5.20917e-06
5.20969e-06
5.21023e-06
5.21079e-06
5.21136e-06
5.21194e-06
5.21252e-06
5.2131e-06
5.21368e-06
5.21425e-06
5.2148e-06
5.21535e-06
5.21588e-06
5.2164e-06
5.2169e-06
5.21738e-06
5.21784e-06
5.21828e-06
5.2187e-06
5.2191e-06
5.21948e-06
5.21984e-06
5.22018e-06
5.2205e-06
5.22077e-06
5.22105e-06
5.22136e-06
5.20678e-06
5.20706e-06
5.20732e-06
5.20762e-06
5.20797e-06
5.20837e-06
5.20882e-06
5.20931e-06
5.20983e-06
5.21036e-06
5.21092e-06
5.21148e-06
5.21205e-06
5.21263e-06
5.2132e-06
5.21376e-06
5.21432e-06
5.21487e-06
5.21541e-06
5.21593e-06
5.21644e-06
5.21693e-06
5.2174e-06
5.21786e-06
5.2183e-06
5.21871e-06
5.21911e-06
5.21949e-06
5.21984e-06
5.22018e-06
5.22049e-06
5.22078e-06
5.22103e-06
5.22129e-06
5.22158e-06
5.2068e-06
5.20712e-06
5.20741e-06
5.20773e-06
5.20809e-06
5.2085e-06
5.20896e-06
5.20945e-06
5.20996e-06
5.2105e-06
5.21105e-06
5.2116e-06
5.21217e-06
5.21273e-06
5.21329e-06
5.21385e-06
5.2144e-06
5.21494e-06
5.21547e-06
5.21599e-06
5.21648e-06
5.21697e-06
5.21743e-06
5.21788e-06
5.21831e-06
5.21873e-06
5.21912e-06
5.21949e-06
5.21985e-06
5.22018e-06
5.22049e-06
5.22077e-06
5.22105e-06
5.22128e-06
5.22151e-06
5.22179e-06
5.20682e-06
5.20716e-06
5.20748e-06
5.20783e-06
5.20821e-06
5.20863e-06
5.20909e-06
5.20958e-06
5.2101e-06
5.21063e-06
5.21117e-06
5.21172e-06
5.21228e-06
5.21283e-06
5.21339e-06
5.21394e-06
5.21448e-06
5.21501e-06
5.21553e-06
5.21604e-06
5.21653e-06
5.21701e-06
5.21747e-06
5.21791e-06
5.21834e-06
5.21874e-06
5.21913e-06
5.2195e-06
5.21985e-06
5.22018e-06
5.22049e-06
5.22078e-06
5.22104e-06
5.22129e-06
5.2215e-06
5.22172e-06
5.22198e-06
5.20683e-06
5.20721e-06
5.20756e-06
5.20792e-06
5.20832e-06
5.20875e-06
5.20922e-06
5.20971e-06
5.21023e-06
5.21075e-06
5.21129e-06
5.21184e-06
5.21239e-06
5.21294e-06
5.21349e-06
5.21403e-06
5.21456e-06
5.21509e-06
5.2156e-06
5.2161e-06
5.21658e-06
5.21705e-06
5.2175e-06
5.21794e-06
5.21836e-06
5.21876e-06
5.21915e-06
5.21951e-06
5.21986e-06
5.22018e-06
5.22049e-06
5.22078e-06
5.22104e-06
5.22129e-06
5.22152e-06
5.22172e-06
5.22192e-06
5.22216e-06
5.20684e-06
5.20726e-06
5.20763e-06
5.20802e-06
5.20843e-06
5.20887e-06
5.20935e-06
5.20984e-06
5.21035e-06
5.21088e-06
5.21141e-06
5.21196e-06
5.2125e-06
5.21304e-06
5.21358e-06
5.21412e-06
5.21464e-06
5.21516e-06
5.21566e-06
5.21615e-06
5.21663e-06
5.21709e-06
5.21754e-06
5.21797e-06
5.21839e-06
5.21878e-06
5.21916e-06
5.21953e-06
5.21987e-06
5.22019e-06
5.2205e-06
5.22078e-06
5.22105e-06
5.22129e-06
5.22152e-06
5.22172e-06
5.22191e-06
5.2221e-06
5.22234e-06
5.20686e-06
5.2073e-06
5.2077e-06
5.2081e-06
5.20853e-06
5.20899e-06
5.20947e-06
5.20996e-06
5.21048e-06
5.211e-06
5.21153e-06
5.21207e-06
5.21261e-06
5.21315e-06
5.21368e-06
5.21421e-06
5.21472e-06
5.21523e-06
5.21573e-06
5.21621e-06
5.21668e-06
5.21714e-06
5.21758e-06
5.21801e-06
5.21842e-06
5.21881e-06
5.21918e-06
5.21954e-06
5.21988e-06
5.2202e-06
5.2205e-06
5.22079e-06
5.22105e-06
5.2213e-06
5.22152e-06
5.22172e-06
5.22191e-06
5.2221e-06
5.22229e-06
5.22253e-06
5.20687e-06
5.20734e-06
5.20776e-06
5.20819e-06
5.20863e-06
5.2091e-06
5.20958e-06
5.21008e-06
5.2106e-06
5.21112e-06
5.21165e-06
5.21218e-06
5.21272e-06
5.21325e-06
5.21378e-06
5.2143e-06
5.21481e-06
5.21531e-06
5.2158e-06
5.21627e-06
5.21674e-06
5.21719e-06
5.21762e-06
5.21804e-06
5.21845e-06
5.21883e-06
5.21921e-06
5.21956e-06
5.21989e-06
5.22021e-06
5.22051e-06
5.22079e-06
5.22106e-06
5.2213e-06
5.22153e-06
5.22173e-06
5.22192e-06
5.22209e-06
5.2223e-06
5.22249e-06
5.22273e-06
5.20688e-06
5.20738e-06
5.20783e-06
5.20827e-06
5.20873e-06
5.2092e-06
5.20969e-06
5.2102e-06
5.21072e-06
5.21124e-06
5.21177e-06
5.2123e-06
5.21283e-06
5.21335e-06
5.21387e-06
5.21439e-06
5.21489e-06
5.21538e-06
5.21587e-06
5.21634e-06
5.21679e-06
5.21724e-06
5.21767e-06
5.21808e-06
5.21848e-06
5.21886e-06
5.21923e-06
5.21958e-06
5.21991e-06
5.22023e-06
5.22052e-06
5.2208e-06
5.22107e-06
5.22131e-06
5.22154e-06
5.22174e-06
5.22193e-06
5.2221e-06
5.22228e-06
5.2225e-06
5.22269e-06
5.22294e-06
5.20689e-06
5.20741e-06
5.20788e-06
5.20835e-06
5.20882e-06
5.20931e-06
5.2098e-06
5.21031e-06
5.21083e-06
5.21136e-06
5.21188e-06
5.21241e-06
5.21293e-06
5.21345e-06
5.21397e-06
5.21448e-06
5.21497e-06
5.21546e-06
5.21594e-06
5.2164e-06
5.21685e-06
5.21729e-06
5.21771e-06
5.21812e-06
5.21852e-06
5.21889e-06
5.21926e-06
5.2196e-06
5.21993e-06
5.22024e-06
5.22054e-06
5.22082e-06
5.22108e-06
5.22132e-06
5.22154e-06
5.22175e-06
5.22193e-06
5.2221e-06
5.22229e-06
5.22248e-06
5.22271e-06
5.22291e-06
5.22316e-06
5.2069e-06
5.20745e-06
5.20794e-06
5.20842e-06
5.20891e-06
5.20941e-06
5.20991e-06
5.21043e-06
5.21095e-06
5.21147e-06
5.212e-06
5.21252e-06
5.21304e-06
5.21356e-06
5.21406e-06
5.21456e-06
5.21506e-06
5.21554e-06
5.21601e-06
5.21646e-06
5.21691e-06
5.21734e-06
5.21776e-06
5.21816e-06
5.21855e-06
5.21893e-06
5.21928e-06
5.21962e-06
5.21995e-06
5.22026e-06
5.22055e-06
5.22083e-06
5.22109e-06
5.22133e-06
5.22155e-06
5.22176e-06
5.22194e-06
5.22211e-06
5.22229e-06
5.22248e-06
5.22268e-06
5.22292e-06
5.22314e-06
5.22339e-06
5.20691e-06
5.20748e-06
5.208e-06
5.20849e-06
5.209e-06
5.2095e-06
5.21002e-06
5.21054e-06
5.21106e-06
5.21158e-06
5.21211e-06
5.21263e-06
5.21314e-06
5.21366e-06
5.21416e-06
5.21465e-06
5.21514e-06
5.21561e-06
5.21608e-06
5.21653e-06
5.21697e-06
5.2174e-06
5.21781e-06
5.21821e-06
5.21859e-06
5.21896e-06
5.21931e-06
5.21965e-06
5.21997e-06
5.22028e-06
5.22057e-06
5.22084e-06
5.2211e-06
5.22134e-06
5.22156e-06
5.22177e-06
5.22196e-06
5.22212e-06
5.22229e-06
5.22247e-06
5.22267e-06
5.22289e-06
5.22314e-06
5.22337e-06
5.22363e-06
5.20692e-06
5.20751e-06
5.20805e-06
5.20856e-06
5.20908e-06
5.2096e-06
5.21012e-06
5.21064e-06
5.21117e-06
5.21169e-06
5.21222e-06
5.21274e-06
5.21325e-06
5.21375e-06
5.21425e-06
5.21474e-06
5.21522e-06
5.21569e-06
5.21615e-06
5.2166e-06
5.21703e-06
5.21745e-06
5.21786e-06
5.21825e-06
5.21863e-06
5.219e-06
5.21935e-06
5.21968e-06
5.22e-06
5.2203e-06
5.22059e-06
5.22086e-06
5.22112e-06
5.22136e-06
5.22158e-06
5.22178e-06
5.22197e-06
5.22214e-06
5.2223e-06
5.22247e-06
5.22266e-06
5.22288e-06
5.2231e-06
5.22336e-06
5.22361e-06
5.22387e-06
5.20693e-06
5.20754e-06
5.2081e-06
5.20863e-06
5.20916e-06
5.20969e-06
5.21022e-06
5.21075e-06
5.21128e-06
5.2118e-06
5.21232e-06
5.21284e-06
5.21335e-06
5.21385e-06
5.21435e-06
5.21483e-06
5.21531e-06
5.21577e-06
5.21623e-06
5.21667e-06
5.2171e-06
5.21751e-06
5.21791e-06
5.2183e-06
5.21868e-06
5.21903e-06
5.21938e-06
5.21971e-06
5.22002e-06
5.22032e-06
5.22061e-06
5.22088e-06
5.22113e-06
5.22137e-06
5.22159e-06
5.22179e-06
5.22198e-06
5.22215e-06
5.22231e-06
5.22247e-06
5.22266e-06
5.22286e-06
5.22308e-06
5.22332e-06
5.22359e-06
5.22386e-06
5.22412e-06
5.20694e-06
5.20758e-06
5.20815e-06
5.2087e-06
5.20924e-06
5.20978e-06
5.21032e-06
5.21085e-06
5.21138e-06
5.21191e-06
5.21243e-06
5.21294e-06
5.21345e-06
5.21395e-06
5.21444e-06
5.21492e-06
5.21539e-06
5.21585e-06
5.2163e-06
5.21674e-06
5.21716e-06
5.21757e-06
5.21797e-06
5.21835e-06
5.21872e-06
5.21907e-06
5.21942e-06
5.21974e-06
5.22005e-06
5.22035e-06
5.22063e-06
5.2209e-06
5.22115e-06
5.22139e-06
5.22161e-06
5.22181e-06
5.222e-06
5.22216e-06
5.22232e-06
5.22248e-06
5.22266e-06
5.22285e-06
5.22306e-06
5.2233e-06
5.22355e-06
5.22383e-06
5.22411e-06
5.22438e-06
5.20695e-06
5.2076e-06
5.2082e-06
5.20876e-06
5.20932e-06
5.20987e-06
5.21041e-06
5.21095e-06
5.21148e-06
5.21201e-06
5.21253e-06
5.21305e-06
5.21355e-06
5.21405e-06
5.21453e-06
5.21501e-06
5.21548e-06
5.21593e-06
5.21638e-06
5.21681e-06
5.21723e-06
5.21763e-06
5.21802e-06
5.2184e-06
5.21877e-06
5.21912e-06
5.21945e-06
5.21978e-06
5.22008e-06
5.22038e-06
5.22066e-06
5.22092e-06
5.22117e-06
5.22141e-06
5.22162e-06
5.22183e-06
5.22201e-06
5.22218e-06
5.22233e-06
5.22249e-06
5.22266e-06
5.22284e-06
5.22305e-06
5.22327e-06
5.22352e-06
5.22378e-06
5.22407e-06
5.22437e-06
5.22465e-06
5.20696e-06
5.20763e-06
5.20824e-06
5.20883e-06
5.20939e-06
5.20995e-06
5.2105e-06
5.21105e-06
5.21158e-06
5.21211e-06
5.21263e-06
5.21315e-06
5.21365e-06
5.21414e-06
5.21463e-06
5.2151e-06
5.21556e-06
5.21601e-06
5.21645e-06
5.21688e-06
5.21729e-06
5.21769e-06
5.21808e-06
5.21845e-06
5.21881e-06
5.21916e-06
5.21949e-06
5.21981e-06
5.22012e-06
5.22041e-06
5.22068e-06
5.22095e-06
5.22119e-06
5.22143e-06
5.22164e-06
5.22184e-06
5.22203e-06
5.2222e-06
5.22235e-06
5.2225e-06
5.22266e-06
5.22284e-06
5.22304e-06
5.22326e-06
5.22349e-06
5.22375e-06
5.22402e-06
5.22432e-06
5.22463e-06
5.22492e-06
5.20696e-06
5.20766e-06
5.20829e-06
5.20889e-06
5.20947e-06
5.21003e-06
5.21059e-06
5.21114e-06
5.21168e-06
5.21221e-06
5.21273e-06
5.21325e-06
5.21375e-06
5.21424e-06
5.21472e-06
5.21519e-06
5.21565e-06
5.21609e-06
5.21653e-06
5.21695e-06
5.21736e-06
5.21775e-06
5.21814e-06
5.21851e-06
5.21886e-06
5.2192e-06
5.21953e-06
5.21985e-06
5.22015e-06
5.22044e-06
5.22071e-06
5.22097e-06
5.22122e-06
5.22145e-06
5.22166e-06
5.22186e-06
5.22204e-06
5.22221e-06
5.22237e-06
5.22251e-06
5.22267e-06
5.22284e-06
5.22303e-06
5.22324e-06
5.22347e-06
5.22371e-06
5.22398e-06
5.22426e-06
5.22457e-06
5.2249e-06
5.22519e-06
5.20697e-06
5.20769e-06
5.20833e-06
5.20894e-06
5.20954e-06
5.21011e-06
5.21068e-06
5.21123e-06
5.21178e-06
5.21231e-06
5.21283e-06
5.21334e-06
5.21384e-06
5.21433e-06
5.21481e-06
5.21528e-06
5.21573e-06
5.21618e-06
5.21661e-06
5.21702e-06
5.21743e-06
5.21782e-06
5.2182e-06
5.21856e-06
5.21891e-06
5.21925e-06
5.21958e-06
5.21989e-06
5.22019e-06
5.22047e-06
5.22074e-06
5.221e-06
5.22124e-06
5.22147e-06
5.22168e-06
5.22188e-06
5.22206e-06
5.22223e-06
5.22238e-06
5.22252e-06
5.22268e-06
5.22284e-06
5.22303e-06
5.22323e-06
5.22345e-06
5.22369e-06
5.22394e-06
5.22422e-06
5.22451e-06
5.22483e-06
5.22517e-06
5.22548e-06
5.20698e-06
5.20771e-06
5.20837e-06
5.209e-06
5.2096e-06
5.21019e-06
5.21076e-06
5.21132e-06
5.21187e-06
5.21241e-06
5.21293e-06
5.21344e-06
5.21394e-06
5.21443e-06
5.2149e-06
5.21537e-06
5.21582e-06
5.21626e-06
5.21668e-06
5.2171e-06
5.2175e-06
5.21788e-06
5.21826e-06
5.21862e-06
5.21896e-06
5.2193e-06
5.21962e-06
5.21993e-06
5.22022e-06
5.22051e-06
5.22077e-06
5.22103e-06
5.22127e-06
5.22149e-06
5.2217e-06
5.2219e-06
5.22208e-06
5.22225e-06
5.2224e-06
5.22254e-06
5.22269e-06
5.22285e-06
5.22303e-06
5.22322e-06
5.22343e-06
5.22366e-06
5.22391e-06
5.22418e-06
5.22446e-06
5.22477e-06
5.2251e-06
5.22544e-06
5.22576e-06
5.20699e-06
5.20773e-06
5.20841e-06
5.20905e-06
5.20967e-06
5.21027e-06
5.21085e-06
5.21141e-06
5.21196e-06
5.2125e-06
5.21303e-06
5.21354e-06
5.21404e-06
5.21452e-06
5.215e-06
5.21546e-06
5.2159e-06
5.21634e-06
5.21676e-06
5.21717e-06
5.21756e-06
5.21795e-06
5.21832e-06
5.21867e-06
5.21902e-06
5.21935e-06
5.21967e-06
5.21997e-06
5.22026e-06
5.22054e-06
5.22081e-06
5.22106e-06
5.22129e-06
5.22152e-06
5.22173e-06
5.22192e-06
5.2221e-06
5.22227e-06
5.22242e-06
5.22256e-06
5.2227e-06
5.22286e-06
5.22303e-06
5.22322e-06
5.22342e-06
5.22364e-06
5.22388e-06
5.22414e-06
5.22442e-06
5.22471e-06
5.22503e-06
5.22536e-06
5.22572e-06
5.22605e-06
5.20699e-06
5.20776e-06
5.20845e-06
5.20911e-06
5.20973e-06
5.21034e-06
5.21093e-06
5.2115e-06
5.21206e-06
5.2126e-06
5.21312e-06
5.21363e-06
5.21413e-06
5.21462e-06
5.21509e-06
5.21555e-06
5.21599e-06
5.21642e-06
5.21684e-06
5.21724e-06
5.21764e-06
5.21801e-06
5.21838e-06
5.21873e-06
5.21907e-06
5.2194e-06
5.21971e-06
5.22002e-06
5.2203e-06
5.22058e-06
5.22084e-06
5.22109e-06
5.22132e-06
5.22154e-06
5.22175e-06
5.22194e-06
5.22212e-06
5.22229e-06
5.22244e-06
5.22258e-06
5.22272e-06
5.22287e-06
5.22303e-06
5.22321e-06
5.22341e-06
5.22363e-06
5.22386e-06
5.22411e-06
5.22438e-06
5.22466e-06
5.22497e-06
5.22529e-06
5.22564e-06
5.22601e-06
5.22635e-06
5.207e-06
5.20778e-06
5.20849e-06
5.20916e-06
5.2098e-06
5.21041e-06
5.21101e-06
5.21159e-06
5.21215e-06
5.21269e-06
5.21322e-06
5.21373e-06
5.21423e-06
5.21471e-06
5.21518e-06
5.21563e-06
5.21607e-06
5.2165e-06
5.21692e-06
5.21732e-06
5.21771e-06
5.21808e-06
5.21844e-06
5.21879e-06
5.21913e-06
5.21945e-06
5.21976e-06
5.22006e-06
5.22035e-06
5.22062e-06
5.22088e-06
5.22112e-06
5.22135e-06
5.22157e-06
5.22178e-06
5.22197e-06
5.22215e-06
5.22231e-06
5.22247e-06
5.2226e-06
5.22274e-06
5.22288e-06
5.22304e-06
5.22321e-06
5.22341e-06
5.22361e-06
5.22384e-06
5.22408e-06
5.22434e-06
5.22462e-06
5.22491e-06
5.22523e-06
5.22556e-06
5.22591e-06
5.22629e-06
5.22665e-06
5.20701e-06
5.2078e-06
5.20853e-06
5.20921e-06
5.20986e-06
5.21049e-06
5.21109e-06
5.21167e-06
5.21223e-06
5.21278e-06
5.21331e-06
5.21382e-06
5.21432e-06
5.2148e-06
5.21527e-06
5.21572e-06
5.21616e-06
5.21658e-06
5.217e-06
5.21739e-06
5.21778e-06
5.21815e-06
5.21851e-06
5.21885e-06
5.21919e-06
5.21951e-06
5.21981e-06
5.22011e-06
5.22039e-06
5.22066e-06
5.22091e-06
5.22116e-06
5.22138e-06
5.2216e-06
5.2218e-06
5.22199e-06
5.22217e-06
5.22234e-06
5.22249e-06
5.22263e-06
5.22276e-06
5.22289e-06
5.22305e-06
5.22322e-06
5.2234e-06
5.2236e-06
5.22382e-06
5.22405e-06
5.2243e-06
5.22457e-06
5.22486e-06
5.22516e-06
5.22549e-06
5.22583e-06
5.2262e-06
5.22659e-06
5.22696e-06
5.20701e-06
5.20782e-06
5.20856e-06
5.20926e-06
5.20992e-06
5.21056e-06
5.21117e-06
5.21175e-06
5.21232e-06
5.21287e-06
5.2134e-06
5.21391e-06
5.21441e-06
5.21489e-06
5.21536e-06
5.21581e-06
5.21624e-06
5.21667e-06
5.21707e-06
5.21747e-06
5.21785e-06
5.21822e-06
5.21857e-06
5.21892e-06
5.21925e-06
5.21956e-06
5.21987e-06
5.22016e-06
5.22043e-06
5.2207e-06
5.22095e-06
5.22119e-06
5.22142e-06
5.22163e-06
5.22183e-06
5.22202e-06
5.2222e-06
5.22236e-06
5.22251e-06
5.22265e-06
5.22278e-06
5.22291e-06
5.22306e-06
5.22322e-06
5.2234e-06
5.22359e-06
5.22381e-06
5.22403e-06
5.22427e-06
5.22454e-06
5.22481e-06
5.22511e-06
5.22542e-06
5.22576e-06
5.22611e-06
5.22649e-06
5.22689e-06
5.22727e-06
5.20702e-06
5.20785e-06
5.2086e-06
5.20931e-06
5.20998e-06
5.21063e-06
5.21124e-06
5.21184e-06
5.21241e-06
5.21296e-06
5.21349e-06
5.21401e-06
5.2145e-06
5.21498e-06
5.21545e-06
5.2159e-06
5.21633e-06
5.21675e-06
5.21715e-06
5.21755e-06
5.21792e-06
5.21829e-06
5.21864e-06
5.21898e-06
5.21931e-06
5.21962e-06
5.21992e-06
5.22021e-06
5.22048e-06
5.22074e-06
5.22099e-06
5.22123e-06
5.22145e-06
5.22166e-06
5.22186e-06
5.22205e-06
5.22222e-06
5.22239e-06
5.22254e-06
5.22268e-06
5.2228e-06
5.22293e-06
5.22307e-06
5.22323e-06
5.2234e-06
5.22359e-06
5.22379e-06
5.22401e-06
5.22425e-06
5.2245e-06
5.22477e-06
5.22506e-06
5.22536e-06
5.22569e-06
5.22603e-06
5.22639e-06
5.22678e-06
5.22719e-06
5.22759e-06
5.20703e-06
5.20787e-06
5.20864e-06
5.20936e-06
5.21004e-06
5.21069e-06
5.21132e-06
5.21192e-06
5.21249e-06
5.21305e-06
5.21358e-06
5.2141e-06
5.21459e-06
5.21507e-06
5.21553e-06
5.21598e-06
5.21641e-06
5.21683e-06
5.21723e-06
5.21762e-06
5.218e-06
5.21836e-06
5.21871e-06
5.21904e-06
5.21937e-06
5.21968e-06
5.21997e-06
5.22026e-06
5.22053e-06
5.22079e-06
5.22103e-06
5.22127e-06
5.22149e-06
5.2217e-06
5.22189e-06
5.22208e-06
5.22225e-06
5.22241e-06
5.22256e-06
5.2227e-06
5.22283e-06
5.22295e-06
5.22309e-06
5.22324e-06
5.22341e-06
5.22359e-06
5.22378e-06
5.224e-06
5.22423e-06
5.22447e-06
5.22473e-06
5.22501e-06
5.22531e-06
5.22562e-06
5.22596e-06
5.22631e-06
5.22668e-06
5.22708e-06
5.22751e-06
5.22791e-06
5.20703e-06
5.20789e-06
5.20867e-06
5.2094e-06
5.2101e-06
5.21076e-06
5.21139e-06
5.21199e-06
5.21257e-06
5.21313e-06
5.21367e-06
5.21418e-06
5.21468e-06
5.21516e-06
5.21562e-06
5.21607e-06
5.2165e-06
5.21691e-06
5.21732e-06
5.2177e-06
5.21807e-06
5.21843e-06
5.21878e-06
5.21911e-06
5.21943e-06
5.21973e-06
5.22003e-06
5.22031e-06
5.22057e-06
5.22083e-06
5.22107e-06
5.2213e-06
5.22152e-06
5.22173e-06
5.22193e-06
5.22211e-06
5.22228e-06
5.22244e-06
5.22259e-06
5.22273e-06
5.22285e-06
5.22297e-06
5.22311e-06
5.22325e-06
5.22341e-06
5.22359e-06
5.22378e-06
5.22398e-06
5.22421e-06
5.22444e-06
5.2247e-06
5.22497e-06
5.22526e-06
5.22556e-06
5.22589e-06
5.22623e-06
5.22659e-06
5.22698e-06
5.22738e-06
5.22782e-06
5.22824e-06
5.20704e-06
5.20791e-06
5.2087e-06
5.20945e-06
5.21015e-06
5.21082e-06
5.21146e-06
5.21207e-06
5.21265e-06
5.21322e-06
5.21375e-06
5.21427e-06
5.21477e-06
5.21525e-06
5.21571e-06
5.21616e-06
5.21659e-06
5.217e-06
5.2174e-06
5.21778e-06
5.21815e-06
5.21851e-06
5.21885e-06
5.21918e-06
5.21949e-06
5.21979e-06
5.22008e-06
5.22036e-06
5.22062e-06
5.22088e-06
5.22112e-06
5.22134e-06
5.22156e-06
5.22177e-06
5.22196e-06
5.22214e-06
5.22231e-06
5.22247e-06
5.22262e-06
5.22276e-06
5.22288e-06
5.223e-06
5.22313e-06
5.22327e-06
5.22342e-06
5.22359e-06
5.22377e-06
5.22397e-06
5.22419e-06
5.22442e-06
5.22466e-06
5.22493e-06
5.22521e-06
5.22551e-06
5.22582e-06
5.22616e-06
5.22651e-06
5.22688e-06
5.22728e-06
5.22769e-06
5.22814e-06
5.22857e-06
5.20704e-06
5.20793e-06
5.20873e-06
5.20949e-06
5.2102e-06
5.21088e-06
5.21153e-06
5.21215e-06
5.21274e-06
5.2133e-06
5.21384e-06
5.21436e-06
5.21486e-06
5.21534e-06
5.2158e-06
5.21624e-06
5.21667e-06
5.21708e-06
5.21748e-06
5.21786e-06
5.21823e-06
5.21858e-06
5.21892e-06
5.21924e-06
5.21955e-06
5.21985e-06
5.22014e-06
5.22041e-06
5.22067e-06
5.22092e-06
5.22116e-06
5.22139e-06
5.2216e-06
5.2218e-06
5.22199e-06
5.22218e-06
5.22234e-06
5.2225e-06
5.22265e-06
5.22279e-06
5.22291e-06
5.22302e-06
5.22315e-06
5.22328e-06
5.22343e-06
5.22359e-06
5.22377e-06
5.22397e-06
5.22417e-06
5.2244e-06
5.22464e-06
5.22489e-06
5.22516e-06
5.22545e-06
5.22576e-06
5.22609e-06
5.22643e-06
5.2268e-06
5.22718e-06
5.22758e-06
5.22801e-06
5.22846e-06
5.22891e-06
5.20705e-06
5.20795e-06
5.20877e-06
5.20953e-06
5.21026e-06
5.21095e-06
5.2116e-06
5.21222e-06
5.21282e-06
5.21338e-06
5.21393e-06
5.21445e-06
5.21495e-06
5.21543e-06
5.21589e-06
5.21633e-06
5.21676e-06
5.21717e-06
5.21756e-06
5.21794e-06
5.2183e-06
5.21865e-06
5.21899e-06
5.21931e-06
5.21962e-06
5.21991e-06
5.2202e-06
5.22047e-06
5.22072e-06
5.22097e-06
5.22121e-06
5.22143e-06
5.22164e-06
5.22184e-06
5.22203e-06
5.22221e-06
5.22238e-06
5.22254e-06
5.22268e-06
5.22282e-06
5.22294e-06
5.22305e-06
5.22317e-06
5.2233e-06
5.22344e-06
5.2236e-06
5.22377e-06
5.22396e-06
5.22416e-06
5.22438e-06
5.22461e-06
5.22486e-06
5.22513e-06
5.22541e-06
5.22571e-06
5.22602e-06
5.22636e-06
5.22671e-06
5.22709e-06
5.22748e-06
5.22789e-06
5.22832e-06
5.22879e-06
5.22925e-06
5.20706e-06
5.20796e-06
5.2088e-06
5.20958e-06
5.21031e-06
5.21101e-06
5.21167e-06
5.2123e-06
5.2129e-06
5.21347e-06
5.21401e-06
5.21454e-06
5.21504e-06
5.21552e-06
5.21598e-06
5.21642e-06
5.21684e-06
5.21725e-06
5.21764e-06
5.21802e-06
5.21838e-06
5.21873e-06
5.21906e-06
5.21938e-06
5.21968e-06
5.21997e-06
5.22025e-06
5.22052e-06
5.22078e-06
5.22102e-06
5.22125e-06
5.22147e-06
5.22168e-06
5.22188e-06
5.22207e-06
5.22225e-06
5.22241e-06
5.22257e-06
5.22271e-06
5.22285e-06
5.22297e-06
5.22308e-06
5.2232e-06
5.22332e-06
5.22346e-06
5.22361e-06
5.22378e-06
5.22396e-06
5.22415e-06
5.22436e-06
5.22459e-06
5.22483e-06
5.22509e-06
5.22536e-06
5.22565e-06
5.22596e-06
5.22629e-06
5.22663e-06
5.227e-06
5.22738e-06
5.22778e-06
5.22821e-06
5.22865e-06
5.22913e-06
5.22959e-06
5.20706e-06
5.20798e-06
5.20883e-06
5.20962e-06
5.21037e-06
5.21107e-06
5.21174e-06
5.21237e-06
5.21298e-06
5.21355e-06
5.2141e-06
5.21462e-06
5.21513e-06
5.21561e-06
5.21607e-06
5.21651e-06
5.21693e-06
5.21734e-06
5.21772e-06
5.2181e-06
5.21846e-06
5.2188e-06
5.21913e-06
5.21944e-06
5.21975e-06
5.22004e-06
5.22031e-06
5.22058e-06
5.22083e-06
5.22107e-06
5.2213e-06
5.22152e-06
5.22173e-06
5.22192e-06
5.22211e-06
5.22228e-06
5.22245e-06
5.2226e-06
5.22275e-06
5.22288e-06
5.223e-06
5.22311e-06
5.22322e-06
5.22334e-06
5.22347e-06
5.22362e-06
5.22378e-06
5.22396e-06
5.22415e-06
5.22435e-06
5.22457e-06
5.22481e-06
5.22506e-06
5.22532e-06
5.22561e-06
5.22591e-06
5.22623e-06
5.22656e-06
5.22692e-06
5.22729e-06
5.22768e-06
5.22809e-06
5.22853e-06
5.22898e-06
5.22947e-06
5.22994e-06
5.20707e-06
5.208e-06
5.20886e-06
5.20966e-06
5.21042e-06
5.21113e-06
5.21181e-06
5.21245e-06
5.21305e-06
5.21363e-06
5.21418e-06
5.21471e-06
5.21521e-06
5.21569e-06
5.21615e-06
5.21659e-06
5.21701e-06
5.21742e-06
5.21781e-06
5.21818e-06
5.21853e-06
5.21887e-06
5.2192e-06
5.21951e-06
5.21981e-06
5.2201e-06
5.22037e-06
5.22063e-06
5.22088e-06
5.22112e-06
5.22135e-06
5.22157e-06
5.22177e-06
5.22197e-06
5.22215e-06
5.22232e-06
5.22249e-06
5.22264e-06
5.22278e-06
5.22291e-06
5.22303e-06
5.22315e-06
5.22325e-06
5.22336e-06
5.22349e-06
5.22363e-06
5.22379e-06
5.22396e-06
5.22414e-06
5.22434e-06
5.22455e-06
5.22478e-06
5.22503e-06
5.22529e-06
5.22556e-06
5.22586e-06
5.22617e-06
5.22649e-06
5.22684e-06
5.2272e-06
5.22758e-06
5.22799e-06
5.22841e-06
5.22885e-06
5.22931e-06
5.22981e-06
5.2303e-06
5.20707e-06
5.20802e-06
5.20889e-06
5.2097e-06
5.21047e-06
5.21119e-06
5.21187e-06
5.21252e-06
5.21313e-06
5.21371e-06
5.21427e-06
5.2148e-06
5.2153e-06
5.21578e-06
5.21624e-06
5.21668e-06
5.2171e-06
5.2175e-06
5.21789e-06
5.21826e-06
5.21861e-06
5.21895e-06
5.21927e-06
5.21958e-06
5.21988e-06
5.22016e-06
5.22043e-06
5.22069e-06
5.22094e-06
5.22118e-06
5.2214e-06
5.22161e-06
5.22182e-06
5.22201e-06
5.22219e-06
5.22236e-06
5.22252e-06
5.22268e-06
5.22282e-06
5.22295e-06
5.22307e-06
5.22318e-06
5.22328e-06
5.22339e-06
5.22351e-06
5.22365e-06
5.2238e-06
5.22396e-06
5.22414e-06
5.22433e-06
5.22454e-06
5.22476e-06
5.225e-06
5.22525e-06
5.22552e-06
5.22581e-06
5.22611e-06
5.22643e-06
5.22677e-06
5.22712e-06
5.22749e-06
5.22788e-06
5.22829e-06
5.22873e-06
5.22918e-06
5.22964e-06
5.23015e-06
5.23065e-06
5.20708e-06
5.20804e-06
5.20892e-06
5.20974e-06
5.21052e-06
5.21125e-06
5.21194e-06
5.21259e-06
5.21321e-06
5.21379e-06
5.21435e-06
5.21488e-06
5.21538e-06
5.21587e-06
5.21632e-06
5.21676e-06
5.21718e-06
5.21758e-06
5.21797e-06
5.21833e-06
5.21869e-06
5.21902e-06
5.21934e-06
5.21965e-06
5.21994e-06
5.22023e-06
5.22049e-06
5.22075e-06
5.221e-06
5.22123e-06
5.22145e-06
5.22166e-06
5.22186e-06
5.22205e-06
5.22223e-06
5.2224e-06
5.22256e-06
5.22271e-06
5.22285e-06
5.22298e-06
5.2231e-06
5.22321e-06
5.22331e-06
5.22342e-06
5.22353e-06
5.22366e-06
5.22381e-06
5.22397e-06
5.22414e-06
5.22433e-06
5.22453e-06
5.22475e-06
5.22498e-06
5.22522e-06
5.22549e-06
5.22576e-06
5.22606e-06
5.22637e-06
5.2267e-06
5.22704e-06
5.22741e-06
5.22779e-06
5.22819e-06
5.22861e-06
5.22905e-06
5.22951e-06
5.22999e-06
5.2305e-06
5.23102e-06
5.20708e-06
5.20805e-06
5.20895e-06
5.20978e-06
5.21057e-06
5.2113e-06
5.212e-06
5.21266e-06
5.21328e-06
5.21387e-06
5.21443e-06
5.21496e-06
5.21547e-06
5.21595e-06
5.21641e-06
5.21685e-06
5.21727e-06
5.21767e-06
5.21805e-06
5.21841e-06
5.21876e-06
5.2191e-06
5.21942e-06
5.21972e-06
5.22001e-06
5.22029e-06
5.22056e-06
5.22081e-06
5.22105e-06
5.22129e-06
5.22151e-06
5.22171e-06
5.22191e-06
5.2221e-06
5.22228e-06
5.22245e-06
5.22261e-06
5.22275e-06
5.22289e-06
5.22302e-06
5.22314e-06
5.22324e-06
5.22334e-06
5.22344e-06
5.22356e-06
5.22368e-06
5.22382e-06
5.22398e-06
5.22414e-06
5.22432e-06
5.22452e-06
5.22473e-06
5.22496e-06
5.2252e-06
5.22545e-06
5.22572e-06
5.22601e-06
5.22631e-06
5.22663e-06
5.22697e-06
5.22732e-06
5.2277e-06