/*--------------------------------*- C++ -*----------------------------------*\
  =========                 |
  \\      /  F ield         | OpenFOAM: The Open Source CFD Toolbox
   \\    /   O peration     | Website:  https://openfoam.org
    \\  /    A nd           | Version:  7
     \\/     M anipulation  |
\*---------------------------------------------------------------------------*/
FoamFile
{
    version     2.0;
    format      ascii;
    class       volScalarField;
    location    "400";
    object      p;
}
// * * * * * * * * * * * * * * * * * * * * * * * * * * * * * * * * * * * * * //

dimensions      [0 2 -2 0 0 0 0];

internalField   nonuniform List<scalar> 
23052
(
40.4184
38.1777
26.2264
36.7516
27.4658
29.8668
35.7701
28.0631
29.2513
30.8209
35.094
28.3842
28.962
31.0127
31.7152
32.5538
34.6081
28.5774
28.8174
31.0565
31.7136
32.6666
33.8603
34.8618
34.2479
28.72
28.7444
31.0467
31.7438
32.7251
33.8811
34.9166
36.1564
33.9705
28.8469
28.7097
31.0191
31.7766
32.7572
33.9093
34.986
36.1723
37.3853
33.7511
28.9717
28.6989
30.9886
31.804
32.777
33.9344
35.0349
36.2118
37.4155
38.7222
33.5683
29.099
28.7048
30.9606
31.825
32.7894
33.9523
35.0688
36.2446
37.4647
38.7407
40.0902
33.4098
29.2278
28.724
30.9366
31.8407
32.796
33.9624
35.091
36.2693
37.4992
38.7803
40.1085
41.529
33.27
29.3565
28.7527
30.9162
31.8519
32.7978
33.9647
35.1032
36.2844
37.5219
38.808
40.1467
41.5414
43.023
33.1372
29.4828
28.7891
30.8982
31.8592
32.795
33.9598
35.1058
36.29
37.5333
38.8252
40.1705
41.574
43.0319
44.5835
33.0118
29.6034
28.8308
30.8819
31.8629
32.788
33.9484
35.0997
36.2864
37.5339
38.8313
40.1829
41.5921
43.0606
44.5873
46.2085
32.8885
29.7168
28.8753
30.8661
31.8629
32.7764
33.9304
35.0853
36.2738
37.5244
38.8264
40.1834
41.599
43.0735
44.611
46.2078
47.9028
32.763
29.8204
28.921
30.8494
31.8588
32.7605
33.9061
35.063
36.2522
37.505
38.8109
40.1726
41.5936
43.075
44.6182
46.2268
47.897
49.6679
32.6366
29.9132
28.9658
30.8307
31.8498
32.74
33.8757
35.0328
36.222
37.4759
38.7849
40.1505
41.5764
43.0635
44.6138
46.2282
47.9109
49.6569
51.5066
32.5081
29.9943
29.0082
30.8094
31.8357
32.7143
33.839
34.995
36.1831
37.4375
38.7487
40.1176
41.5476
43.04
44.5961
46.218
47.9064
49.6657
51.4903
53.4213
32.3741
30.0624
29.0466
30.7843
31.8158
32.6832
33.7959
34.9495
36.1359
37.3897
38.7025
40.0739
41.5075
43.0044
44.566
46.194
47.8902
49.6551
51.4938
53.3995
55.4147
32.2333
30.1166
29.0799
30.7546
31.7897
32.6463
33.7463
34.8965
36.0806
37.3329
38.6465
40.0198
41.4562
42.957
44.5235
46.1572
47.8597
49.6328
51.477
53.3977
55.3873
57.4892
32.0889
30.1566
29.1068
30.7197
31.7566
32.6032
33.6898
34.8359
36.0168
37.2673
38.5808
39.9553
41.3941
42.8981
44.4688
46.1076
47.8161
49.5957
51.4483
53.3745
55.3799
57.456
59.6474
31.9384
30.1828
29.1266
30.6788
31.7164
32.5536
33.6267
34.7675
35.9449
37.1926
38.5056
39.8807
41.3211
42.8279
44.4022
46.0455
47.7593
49.5452
51.4045
53.3394
55.3502
57.443
59.6083
61.8919
31.78
30.1945
29.1388
30.6314
31.6683
32.497
33.5565
34.6915
35.8648
37.1093
38.421
39.7962
41.2377
42.7466
44.3239
45.9711
47.6897
49.4811
51.347
53.2888
55.3086
57.4067
59.5894
61.8468
64.2254
31.6151
30.1914
29.1422
30.5773
31.6123
32.4331
33.479
34.6076
35.7764
37.0172
38.3271
39.7018
41.1438
42.6542
44.234
45.8846
47.6074
49.4039
51.2756
53.2241
55.251
57.3583
59.5463
61.8219
64.1741
66.6503
31.4453
30.1737
29.1365
30.5157
31.548
32.3618
33.394
34.5158
35.6798
36.9164
38.2239
39.5976
41.0396
42.5511
44.1329
45.7864
47.5128
49.3137
51.1906
53.1451
55.1789
57.2935
59.4911
61.7718
64.143
66.5927
69.1692
31.2676
30.1418
29.1214
30.4465
31.4752
32.2825
33.3016
34.4161
35.5749
36.807
38.1116
39.4838
40.9254
42.4374
44.0207
45.6764
47.406
49.2108
51.0924
53.0524
55.0924
57.2141
59.4191
61.7096
64.0857
66.5552
69.1052
71.7849
31.0839
30.0956
29.0966
30.3695
31.3937
32.1953
33.2013
34.3083
35.4617
36.689
37.9903
39.3606
40.8012
42.3133
43.8975
45.555
47.2872
49.0953
50.9811
52.946
54.9917
57.1198
59.3321
61.6303
64.0164
66.4907
69.0612
71.7142
74.4998
30.8937
30.0355
29.0617
30.2844
31.3033
32.0998
33.0931
34.1924
35.3402
36.5623
37.86
39.2279
40.6671
42.1788
43.7634
45.4223
47.1566
48.9676
50.857
52.8262
54.877
57.011
59.2299
61.5355
63.9295
66.414
68.9893
71.6635
74.4223
77.3164
30.6968
29.9618
29.0166
30.1911
31.204
31.996
32.977
34.0683
35.2104
36.4271
37.7208
39.0859
40.5233
42.0341
43.6188
45.2785
47.0143
48.8278
50.7203
52.6934
54.7487
56.888
59.1129
61.4253
63.8268
66.3193
68.9051
71.5839
74.3647
77.2321
80.2373
30.4942
29.8747
28.9612
30.0896
31.0957
31.8837
32.8529
33.9361
35.0723
36.2834
37.5727
38.9347
40.3699
41.8794
43.4637
45.1237
46.8607
48.6761
50.5712
52.5476
54.607
56.751
58.9813
61.2999
63.7084
66.2087
68.8024
71.492
74.2773
77.1673
80.1461
83.2651
30.2848
29.7747
28.8954
29.9796
30.9785
31.7628
32.7207
33.7957
34.9259
36.1312
37.4159
38.7744
40.207
41.7148
43.2982
44.9581
46.6958
48.5126
50.4098
52.3891
54.452
56.6002
58.8355
61.1596
63.5744
66.0818
68.6835
71.3813
74.1775
77.0719
80.074
83.1668
86.4023
30.0701
29.6617
28.8191
29.8613
30.8522
31.6335
32.5803
33.6471
34.7711
35.9706
37.2503
38.605
40.0347
41.5403
43.1225
44.7819
46.5199
48.3375
50.2365
52.218
54.2839
56.4359
58.6755
61.0048
63.4253
65.9392
68.5481
71.254
74.0586
76.9642
79.9705
83.0872
86.2967
89.6513
29.8494
29.5367
28.7325
29.7345
30.7171
31.4956
32.4319
33.4902
34.6081
35.8015
37.0761
38.4267
39.8531
41.3562
42.9367
44.5952
46.3329
48.1512
50.0512
52.0347
54.1031
56.2582
58.5018
60.8356
63.2614
65.7811
68.3967
71.1099
73.9228
76.8368
79.8545
82.9755
86.2094
89.5382
93.0141
29.6228
29.3996
28.6356
29.5993
30.573
31.3491
32.2753
33.3253
34.4369
35.6242
36.8934
38.2395
39.6623
41.1626
42.741
44.3982
46.1353
47.9535
49.8543
51.8392
53.9097
56.0674
58.3144
60.6521
63.0826
65.6078
68.2294
70.9495
73.7698
76.6922
79.7185
82.8511
86.0892
89.4431
92.8937
96.4933
29.3906
29.251
28.5285
29.4559
30.4203
31.194
32.1105
33.1522
34.2574
35.4385
36.7021
38.0436
39.4625
40.9596
42.5355
44.191
45.927
47.7449
49.6459
51.6317
53.7038
55.8638
58.1135
60.4548
62.8895
65.4195
68.0466
70.7729
73.6001
76.5301
79.565
82.7062
85.9563
89.3142
92.7907
96.3656
100.091
29.1535
29.0912
28.4112
29.3041
30.2588
31.0306
31.9377
32.9711
34.0699
35.2446
36.5025
37.8391
39.2537
40.7473
42.3204
43.9737
45.7082
47.5253
49.4261
51.4124
53.4855
55.6473
57.8994
60.2437
62.6822
65.2164
67.8485
70.5804
73.4139
76.3511
79.3937
82.5436
85.8025
89.1726
92.653
96.2544
99.9561
103.81
28.9114
28.9206
28.2839
29.1443
30.0889
30.8587
31.757
32.782
33.8743
35.0426
36.2945
37.626
39.0361
40.5258
42.0957
43.7465
45.4792
47.295
49.1952
51.1815
53.2553
55.4183
57.6723
60.0191
62.4607
64.9987
67.6353
70.3723
73.2117
76.1553
79.2051
82.363
85.6307
89.0098
92.5026
96.108
99.8366
103.667
107.652
28.6644
28.7396
28.1468
28.9764
29.9106
30.6786
31.5684
32.5851
33.6708
34.8326
36.0784
37.4044
38.8097
40.2954
41.8617
43.5096
45.2399
47.0541
48.9533
50.9391
53.0131
55.1769
57.4323
59.7812
62.2253
64.7667
67.4073
70.1488
72.9934
75.943
78.9995
82.1647
85.4405
88.8287
92.3306
95.9487
99.6813
103.54
107.502
111.618
28.4123
28.5487
28.0001
28.8006
29.724
30.4904
31.3719
32.3803
33.4595
34.6147
35.8542
37.1746
38.5749
40.0559
41.6184
43.263
44.9907
46.8028
48.7005
50.6855
52.7591
54.9233
57.1796
59.53
61.9764
64.5205
67.1644
69.9101
72.7594
75.7144
78.777
81.949
85.2323
88.6288
92.14
95.7672
99.5131
103.375
107.365
111.461
115.712
28.1556
28.3482
27.8439
28.617
29.5295
30.2941
31.1677
32.1679
33.2404
34.389
35.622
36.9365
38.3315
39.8078
41.366
43.007
44.7316
46.5412
48.437
50.4206
52.4936
54.6576
56.9145
59.2659
61.7139
64.2604
66.9072
69.6564
72.5099
75.4697
78.5379
81.7161
85.0064
88.4106
91.9303
95.5671
99.3222
103.198
107.192
111.316
115.547
119.933
27.8947
28.1384
27.6785
28.4259
29.3271
30.09
30.956
31.948
33.0137
34.1555
35.3819
36.6905
38.0798
39.551
41.1047
42.7416
44.4628
46.2694
48.1629
50.1448
52.2166
54.3801
56.6369
58.9889
61.4382
63.9864
66.6357
69.3879
72.2451
75.2093
78.2824
81.4664
84.7631
88.1744
91.702
95.3475
99.1124
102.998
107.006
111.134
115.394
119.762
124.286
27.6302
27.9197
27.504
28.2272
29.117
29.8782
30.7369
31.7206
32.7795
33.9145
35.1342
36.4364
37.8199
39.2857
40.8345
42.4671
44.1844
45.9877
47.8785
49.8582
51.9284
54.0908
56.3471
58.6993
61.1492
63.6988
66.35
69.1048
71.9652
74.9332
78.0108
81.1999
84.5025
87.9204
91.4553
95.1091
98.8829
102.778
106.796
110.939
115.203
119.601
124.107
128.77
27.3608
27.6927
27.3206
28.0213
28.8995
29.6588
30.5104
31.486
32.5379
33.6661
34.8788
36.1746
37.552
39.0121
40.5557
42.1835
43.8966
45.6962
47.5839
49.5609
51.629
53.7899
56.0453
58.3971
60.8473
63.3977
66.0503
68.8072
71.6703
74.6417
77.7232
80.9169
84.225
87.6488
91.1905
94.8517
98.6341
102.539
106.567
110.72
114.999
119.401
123.938
128.584
133.388
27.0874
27.4576
27.1287
27.8083
28.6748
29.4321
30.2769
31.2442
32.2892
33.4103
34.6161
35.9051
37.2762
38.7303
40.2683
41.8911
43.5996
45.3951
47.2791
49.2531
51.3187
53.4776
55.7316
58.0827
60.5325
63.0833
65.7369
68.4953
71.3606
74.3347
77.4198
80.6178
83.9305
87.36
90.908
94.5762
98.3662
102.28
106.317
110.481
114.771
119.188
123.73
128.408
133.196
138.141
26.8105
27.2147
26.9284
27.5883
28.4429
29.1982
30.0363
30.9955
32.0334
33.1474
34.3459
35.628
36.9926
38.4405
39.9726
41.5899
43.2934
45.0844
46.9644
48.9349
50.9975
53.154
55.4062
57.7559
60.2051
62.7557
65.4097
68.1693
71.0363
74.0128
77.1008
80.3024
83.6194
87.054
90.6077
94.2825
98.0797
102.001
106.048
110.221
114.522
118.951
123.509
128.192
133.012
137.943
143.03
26.5307
26.9644
26.72
27.3616
28.2043
28.9572
29.7889
30.74
31.7707
32.8775
34.0687
35.3437
36.7014
38.1427
39.6687
41.2801
42.9783
44.7644
46.64
48.6066
50.6658
52.8193
55.0692
57.4171
59.8651
62.4151
65.0691
67.8292
70.6975
73.6758
76.7662
79.9711
83.2919
86.7309
90.2898
93.9707
97.7747
101.704
105.759
109.942
114.253
118.693
123.263
127.962
132.789
137.752
142.827
148.057
26.2469
26.7072
26.5038
27.1284
27.959
28.7096
29.5349
30.4778
31.5012
32.6008
33.7845
35.0521
36.4027
37.8372
39.3567
40.962
42.6544
44.4353
46.306
48.2682
50.3235
52.4738
54.7208
57.0664
59.5127
62.0616
64.7152
67.4753
70.3442
73.324
76.4165
79.6239
82.9481
86.3911
89.9547
93.6409
97.4513
101.387
105.451
109.642
113.963
118.414
122.996
127.708
132.551
137.522
142.629
147.848
153.222
25.9597
26.4434
26.28
26.8888
27.7073
28.4553
29.2744
30.2092
31.2252
32.3174
33.4934
34.7535
36.0968
37.5242
39.0368
40.6356
42.3219
44.0971
45.9625
47.9199
49.9709
52.1174
54.3611
56.7041
59.1482
61.6954
64.348
67.1078
69.9769
72.9575
76.0514
79.2609
82.588
86.0345
89.6024
93.2936
97.1096
101.052
105.123
109.323
113.653
118.114
122.707
127.432
132.288
137.276
142.393
147.646
153.01
158.527
25.6701
26.1732
26.0488
26.643
27.4494
28.1946
29.0077
29.9343
30.9428
32.0275
33.1957
34.448
35.7837
37.2037
38.7091
40.3012
41.981
43.75
45.6097
47.5619
49.6081
51.7503
53.9903
56.33
58.7715
61.3167
63.9677
66.7265
69.5954
72.5762
75.6712
78.8825
82.2118
85.6613
89.2331
92.9287
96.75
100.699
104.776
108.984
113.323
117.793
122.397
127.134
132.004
137.006
142.141
147.403
152.802
158.311
163.973
25.377
25.8971
25.8105
26.3913
27.1856
27.9278
28.7348
29.6534
30.6543
31.7312
32.8915
34.1358
35.4637
36.876
38.374
39.9588
41.6317
43.3942
45.2479
47.1943
49.2354
51.3728
53.6086
55.9446
58.3829
60.9255
63.5745
66.332
69.1999
72.1808
75.2762
78.4885
81.8197
85.2718
88.8467
92.5464
96.3724
100.327
104.41
108.625
112.972
117.452
122.066
126.814
131.697
136.713
141.862
147.144
152.554
158.099
163.754
169.561
25.0811
25.6153
25.5654
26.1338
26.916
27.655
28.4561
29.3665
30.3596
31.4288
32.5809
33.8171
35.1369
36.5412
38.0314
39.6087
41.2743
43.0299
44.8771
46.8174
48.8527
50.985
53.216
55.5479
57.9825
60.5219
63.1684
65.9241
68.7908
71.7708
74.8663
78.0791
81.4117
84.8658
88.4434
92.1465
95.9768
99.9361
104.026
108.248
112.602
117.091
121.715
126.474
131.368
136.398
141.562
146.86
152.29
157.847
163.54
169.34
175.291
24.7828
25.3282
25.3137
25.8707
26.6409
27.3764
28.1716
29.0739
30.0592
31.1204
32.2642
33.492
34.8035
36.1995
37.6816
39.251
40.909
42.6574
44.4975
46.4313
48.4605
50.587
52.8128
55.1399
57.5704
60.1063
62.7497
65.5029
68.3678
71.3467
74.4417
77.6548
80.988
84.4436
88.0236
91.7296
95.5636
99.5275
103.623
107.851
112.213
116.71
121.342
126.112
131.018
136.06
141.239
146.552
151.999
157.578
163.285
169.124
175.07
181.165
24.4817
25.0361
25.0556
25.6023
26.3606
27.0923
27.8817
28.7758
29.7531
30.8063
31.9416
33.1608
34.4636
35.8511
37.3248
38.8859
40.536
42.2765
44.1093
46.0361
48.0587
50.179
52.3992
54.721
57.1469
59.6787
62.3186
65.0688
67.9313
70.9084
74.0023
77.2151
80.5487
84.0055
87.587
91.2956
95.133
99.1009
103.201
107.434
111.803
116.308
120.95
125.729
130.646
135.701
140.893
146.222
151.686
157.283
163.012
168.866
174.852
180.944
187.181
24.1781
24.7393
24.7915
25.3288
26.0751
26.8029
27.5864
28.4723
29.4415
30.4865
31.6131
32.8235
34.1175
35.4962
36.9611
38.5136
40.1553
41.8878
43.7127
45.632
47.6475
49.7612
51.9752
54.2914
56.712
59.2392
61.875
64.6216
67.4814
70.4563
73.5485
76.7604
80.0939
83.551
87.134
90.8444
94.6847
98.6562
102.761
107
111.374
115.886
120.536
125.325
130.252
135.319
140.524
145.868
151.348
156.964
162.712
168.591
174.594
180.727
186.963
193.342
23.8723
24.438
24.5215
25.0502
25.7848
26.5083
27.286
28.1637
29.1246
30.1612
31.2791
32.4804
33.7653
35.1349
36.5907
38.1343
39.7672
41.4911
43.3078
45.2192
47.2272
49.3338
51.541
53.8511
56.266
58.7879
61.4192
64.1619
67.0182
69.9902
73.0804
76.2909
79.6236
83.0807
86.6644
90.3764
94.2187
98.1934
102.302
106.546
110.926
115.445
120.103
124.9
129.838
134.916
140.134
145.491
150.988
156.621
162.389
168.289
174.318
180.47
186.748
193.127
199.648
23.5645
24.1325
24.246
24.7669
25.4898
26.2089
26.9807
27.8502
28.8027
29.8308
30.9396
32.1317
33.4072
34.7674
36.2138
37.7481
39.3719
41.0868
42.8949
44.7979
46.7978
48.8969
51.0969
53.4001
55.8089
58.3251
60.9513
63.6893
66.5417
69.5106
72.5982
75.8065
79.138
82.5945
86.1784
89.8913
93.7356
97.7128
101.825
106.073
110.459
114.984
119.649
124.454
129.402
134.49
139.721
145.092
150.604
156.254
162.04
167.962
174.013
180.193
186.493
192.916
199.438
206.098
23.2545
23.8232
23.9653
24.4791
25.1904
25.9048
26.6707
27.5319
28.4759
29.4953
30.595
31.7776
33.0435
34.3939
35.8307
37.3553
38.9696
40.6752
42.4741
44.3683
46.3597
48.4506
50.6429
52.939
55.3409
57.851
60.4714
63.2044
66.0522
69.0172
72.1016
75.3074
78.637
82.0926
85.6762
89.3895
93.235
97.2142
101.329
105.581
109.972
114.503
119.174
123.988
128.944
134.043
139.285
144.67
150.196
155.863
161.668
167.609
173.684
179.888
186.218
192.665
199.233
205.896
212.694
22.9426
23.5103
23.6794
24.1868
24.8868
25.5962
26.3562
27.209
28.1444
29.155
30.2453
31.4182
32.6742
34.0147
35.4414
36.956
38.5603
40.2562
42.0456
43.9305
45.913
47.9952
50.1794
52.4677
54.8623
57.3655
59.9797
62.7071
65.5499
68.5103
71.591
74.7939
78.1209
81.575
85.1576
88.8709
92.7171
96.6979
100.815
105.071
109.466
114.002
118.68
123.501
128.466
133.575
138.828
144.225
149.766
155.449
161.271
167.233
173.329
179.558
185.914
192.394
198.988
205.698
212.501
219.436
22.6287
23.1941
23.3887
23.8904
24.5791
25.2834
26.0373
26.8818
27.8084
28.81
29.8907
31.0537
32.2996
33.6298
35.0461
36.5504
38.1445
39.8302
41.6095
43.4847
45.4578
47.5309
49.7063
51.9863
54.3731
56.869
59.4764
62.1975
65.0347
67.9903
71.0665
74.2657
77.59
81.0416
84.6229
88.3356
92.182
96.1638
100.283
104.541
108.94
113.481
118.165
122.993
127.966
133.085
138.349
143.758
149.313
155.011
160.851
166.831
172.949
179.202
185.585
192.093
198.722
205.462
212.314
219.254
226.322
22.3133
22.8748
23.0935
23.5901
24.2677
24.9665
25.7144
26.5505
27.4681
28.4605
29.5315
30.6844
31.9199
33.2395
34.6452
36.1388
37.7221
39.3973
41.1662
43.0312
44.9943
47.0579
49.224
51.4952
53.8735
56.3616
58.9615
61.6759
64.507
67.4569
70.5282
73.7231
77.0439
80.4928
84.072
87.7836
91.6296
95.612
99.7326
103.993
108.395
112.94
117.63
122.464
127.445
132.573
137.847
143.268
148.836
154.549
160.406
166.405
172.544
178.82
185.229
191.766
198.426
205.203
212.088
219.079
226.155
233.353
21.9962
22.5526
22.794
23.286
23.9527
24.6459
25.3875
26.2151
27.1237
28.1068
29.1679
30.3104
31.5352
32.844
34.2387
35.7212
37.2935
38.9576
40.7158
42.5701
44.5228
46.5762
48.7326
50.9944
53.3638
55.8434
58.4354
61.1423
63.9666
66.9103
69.9761
73.1663
76.4829
79.9285
83.5052
87.215
91.0601
95.0425
99.1638
103.426
107.831
112.38
117.074
121.915
126.903
132.039
137.323
142.755
148.336
154.063
159.937
165.954
172.114
178.412
184.846
191.411
198.102
204.913
211.837
218.865
225.995
233.203
240.53
21.6777
22.2278
22.4903
22.9783
23.6343
24.3215
25.057
25.876
26.7754
27.749
28.8
29.9318
31.1458
32.4435
33.8268
35.2979
36.8588
38.5115
40.2584
42.1016
44.0434
46.0862
48.2323
50.4841
52.8441
55.3146
57.8981
60.597
63.4139
66.3509
69.4106
72.5953
75.9073
79.3489
82.9224
86.6298
90.4734
94.4552
98.5769
102.84
107.248
111.8
116.499
121.345
126.34
131.483
136.777
142.22
147.813
153.554
159.443
165.479
171.658
177.979
184.437
191.029
197.75
204.595
211.556
218.627
225.796
233.062
240.399
247.851
21.3576
21.9007
22.1829
22.6672
23.3127
23.9938
24.7229
25.5334
26.4234
27.3872
28.428
29.549
30.7519
32.0381
33.4098
34.8691
36.4182
38.0591
39.7942
41.6259
43.5563
45.588
47.7232
49.9646
52.3145
54.7754
57.3499
60.0402
62.849
65.7786
68.8317
72.0103
75.317
78.754
82.3238
86.0282
89.8697
93.8505
97.9717
102.236
106.645
111.2
115.902
120.754
125.755
130.906
136.208
141.662
147.266
153.022
158.926
164.978
171.177
177.519
184.002
190.62
197.371
204.249
211.247
218.357
225.572
232.881
240.279
247.743
255.315
21.0363
21.5715
21.8719
22.3529
22.9881
23.6629
24.3854
25.1873
26.0679
27.0219
28.0521
29.1622
30.3536
31.628
32.9878
34.435
35.9719
37.6006
39.3236
41.1432
43.0618
45.0818
47.2057
49.436
51.7753
54.226
56.7907
59.4719
62.2721
65.1936
68.2393
71.4113
74.7121
78.1439
81.7094
85.4104
89.2489
93.2278
97.3485
101.613
106.023
110.58
115.286
120.142
125.148
130.307
135.617
141.081
146.697
152.464
158.384
164.453
170.671
177.034
183.54
190.185
196.965
203.874
210.907
218.057
225.315
232.673
240.119
247.647
255.235
262.923
20.7137
21.2403
21.5575
22.0357
22.6607
23.3289
24.0449
24.8381
25.709
26.653
27.6726
28.7714
29.9511
31.2136
32.5611
33.9958
35.5201
37.1363
38.8466
40.6537
42.5599
44.5677
46.6797
48.8985
51.2266
53.6665
56.221
58.8923
61.6833
64.5963
67.6338
70.7985
74.0928
77.5188
81.0791
84.7759
88.6115
92.5879
96.707
100.971
105.382
109.94
114.649
119.509
124.52
129.685
135.004
140.477
146.103
151.884
157.818
163.903
170.139
176.522
183.051
189.722
196.531
203.472
210.539
217.727
225.028
232.432
239.93
247.511
255.165
262.874
270.672
20.3899
20.9074
21.2399
21.7155
22.3307
22.9921
23.7014
24.4858
25.347
26.2808
27.2895
28.3768
29.5447
30.7949
32.1297
33.5517
35.063
36.6662
38.3635
40.1576
42.051
44.0461
46.1458
48.3524
50.6687
53.0973
55.6407
58.3016
61.0827
63.9864
67.0155
70.1722
73.459
76.8787
80.4335
84.1254
87.9569
91.9303
96.0474
100.31
104.721
109.281
113.992
118.854
123.871
129.042
134.368
139.849
145.486
151.279
157.226
163.328
169.581
175.985
182.536
189.232
196.068
203.04
210.142
217.368
224.71
232.16
239.708
247.345
255.056
262.834
270.658
278.561
20.065
20.5731
20.9195
21.3928
21.9983
22.6527
23.3552
24.1307
24.9821
25.9054
26.9032
27.9788
29.1344
30.3721
31.6941
33.1029
34.6009
36.1906
37.8745
39.6551
41.5352
43.5172
45.6038
47.7978
50.1017
52.5183
55.0502
57.7001
60.4706
63.3644
66.3841
69.5323
72.8112
76.2238
79.7721
83.4587
87.2854
91.2551
95.3696
99.6308
104.041
108.601
113.313
118.179
123.2
128.376
133.709
139.199
144.846
150.65
156.611
162.727
168.998
175.421
181.994
188.715
195.578
202.58
209.716
216.978
224.361
231.856
239.454
247.143
254.916
262.755
270.653
278.586
286.588
19.7392
20.2373
20.5964
21.0675
21.6636
22.3109
23.0064
23.773
24.6144
25.5272
26.5137
27.5774
28.7207
29.9455
31.2542
32.6496
34.1339
35.7098
37.3797
39.1465
41.0127
42.981
45.0541
47.2349
49.5258
51.9298
54.4496
57.0878
59.8472
62.7304
65.7401
68.8789
72.1494
75.554
79.0953
82.7757
86.5975
90.5627
94.6739
98.9325
103.341
107.901
112.615
117.483
122.507
127.688
133.027
138.525
144.181
149.996
155.97
162.101
168.389
174.831
181.425
188.17
195.06
202.091
209.26
216.558
223.981
231.521
239.167
246.911
254.74
262.645
270.608
278.62
286.658
294.752
19.4125
19.9005
20.2708
20.74
21.3268
21.9669
22.6552
23.4129
24.2441
25.1462
26.1213
27.1729
28.3035
29.5152
30.8105
32.1919
33.6622
35.2238
36.8795
38.6319
40.4838
42.4379
44.497
46.6639
48.9413
51.3321
53.8391
56.4649
59.2125
62.0846
65.0837
68.2124
71.4736
74.8697
78.4034
82.0768
85.8927
89.8529
93.96
98.2158
102.623
107.182
111.896
116.765
121.792
126.978
132.322
137.827
143.492
149.318
155.304
161.449
167.753
174.214
180.829
187.597
194.513
201.574
208.774
216.109
223.572
231.154
238.848
246.644
254.531
262.498
270.53
278.613
286.734
294.872
303.049
19.085
19.5627
19.9429
20.4103
20.9882
21.6207
22.3018
23.0504
23.8714
24.7627
25.7261
26.7654
27.8831
29.0814
30.3629
31.7302
33.186
34.733
36.374
38.1116
39.9487
41.8881
43.9326
46.085
48.3484
50.7254
53.2189
55.8318
58.5669
61.4269
64.4148
67.5328
70.7841
74.171
77.6962
81.3622
85.1713
89.1256
93.2281
97.4802
101.884
106.442
111.156
116.026
121.055
126.244
131.594
137.106
142.779
148.615
154.613
160.772
167.091
173.57
180.206
186.996
193.938
201.027
208.259
215.629
223.13
230.756
238.496
246.344
254.287
262.315
270.415
278.572
286.77
294.994
303.225
311.477
18.7567
19.2243
19.6131
20.0788
20.6477
21.2728
21.9465
22.6859
23.4965
24.3767
25.3284
26.3552
27.4597
28.6444
29.9117
31.2646
32.7056
34.2376
35.8634
37.5857
39.4075
41.3317
43.3611
45.4986
47.7472
50.1098
52.5893
55.1886
57.9105
60.7579
63.7337
66.8404
70.0809
73.4578
76.9739
80.6315
84.4332
88.3814
92.4782
96.726
101.127
105.683
110.395
115.266
120.297
125.489
130.843
136.361
142.042
147.886
153.895
160.068
166.403
172.899
179.554
186.367
193.333
200.451
207.714
215.118
222.657
230.324
238.112
246.01
254.009
262.097
270.263
278.492
286.769
295.076
303.398
311.715
320.033
18.4277
18.8852
19.2815
19.7454
20.3059
20.9231
21.5893
22.3195
23.1196
23.9886
24.9284
25.9424
27.0336
28.2043
29.4572
30.7953
32.2212
33.7377
35.3479
37.0545
38.8606
40.769
42.7827
44.9047
47.138
49.4855
51.9504
54.5353
57.2434
60.0775
63.0406
66.1353
69.3643
72.7306
76.2367
79.8852
83.6788
87.6198
91.7105
95.9531
100.35
104.903
109.614
114.484
119.516
124.71
130.069
135.591
141.279
147.133
153.153
159.338
165.687
172.2
178.875
185.709
192.7
199.844
207.138
214.577
222.153
229.861
237.694
245.642
253.696
261.844
270.075
278.375
286.728
295.12
303.531
311.944
320.339
328.711
18.0981
18.5458
18.9482
19.4104
19.9626
20.572
21.2304
21.9513
22.7408
23.5985
24.5261
25.5272
26.6048
27.7613
28.9995
30.3224
31.7328
33.2336
34.8278
36.5183
38.308
40.2002
42.1977
44.3037
46.5211
48.8529
51.3024
53.8725
56.566
59.3861
62.3356
65.4176
68.6345
71.9894
75.4848
79.1236
82.9082
86.8413
90.9251
95.1618
99.5538
104.103
108.811
113.681
118.713
123.909
129.271
134.798
140.493
146.355
152.384
158.581
164.944
171.474
178.167
185.022
192.037
199.209
206.532
214.003
221.617
229.365
237.244
245.24
253.348
261.555
269.85
278.22
286.649
295.123
303.624
312.132
320.628
329.094
337.509
17.768
18.2061
18.6135
19.074
19.618
20.2194
20.87
21.5816
22.3604
23.2065
24.1218
25.1098
26.1735
27.3156
28.5389
29.8463
31.2408
32.7255
34.3032
35.9771
37.7501
39.6255
41.6063
43.6956
45.8965
48.2122
50.6456
53.2001
55.8785
58.6838
61.6191
64.6874
67.8915
71.2343
74.7181
78.3465
82.1213
86.0459
90.1217
94.352
98.7383
103.283
107.988
112.856
117.888
123.085
128.449
133.981
139.681
145.55
151.589
157.797
164.174
170.719
177.431
184.307
191.345
198.543
205.895
213.399
221.048
228.837
236.759
244.804
252.964
261.23
269.589
278.027
286.531
295.086
303.675
312.278
320.876
329.448
337.975
346.419
17.4374
17.8663
18.2777
18.7363
19.2723
19.8657
20.5084
21.2105
21.9784
22.8129
23.7157
24.6904
25.7401
26.8674
28.0755
29.3671
30.7455
32.2135
33.7744
35.4313
37.1871
39.0453
41.0088
43.0808
45.2647
47.5634
49.9803
52.5184
55.1809
57.9709
60.8912
63.9451
67.1355
70.4652
73.9372
77.5541
81.3186
85.2334
89.3009
93.5234
97.9037
102.443
107.145
112.01
117.04
122.238
127.603
133.138
138.844
144.72
150.768
156.987
163.376
169.936
176.665
183.561
190.622
197.845
205.227
212.763
220.447
228.275
236.24
244.334
252.545
260.869
269.289
277.796
286.374
295.01
303.685
312.382
321.081
329.761
338.4
346.977
355.438
17.1064
17.5266
17.9408
18.3975
18.9258
19.511
20.1455
20.8381
21.5951
22.4178
23.3079
24.2691
25.3045
26.417
27.6094
28.885
30.2469
31.698
33.2417
34.881
36.6192
38.4596
40.4053
42.4596
44.6257
46.907
49.3066
51.8278
54.4736
57.2474
60.1521
63.1909
66.3669
69.6829
73.1418
76.7465
80.4996
84.4042
88.4623
92.6765
97.0497
101.584
106.28
111.142
116.171
121.367
126.734
132.272
137.981
143.864
149.92
156.148
162.551
169.125
175.871
182.786
189.869
197.116
204.526
212.094
219.813
227.68
235.687
243.827
252.093
260.47
268.953
277.527
286.178
294.893
303.653
312.443
321.241
330.028
338.782
347.477
356.096
364.557
16.7751
17.1871
17.6032
18.0577
18.5785
19.1555
19.7817
20.4647
21.2107
22.0214
22.8987
23.8462
24.8671
25.9643
27.141
28.4002
29.7452
31.1791
32.7051
34.3265
36.0466
37.8687
39.7961
41.832
43.9799
46.2431
48.6247
51.1283
53.7568
56.5137
59.4021
62.425
65.5857
68.8873
72.3324
75.9241
79.6651
83.5583
87.6063
91.8115
96.1768
100.704
105.395
110.253
115.278
120.474
125.841
131.381
137.094
142.982
149.045
155.283
161.696
168.284
175.046
181.981
189.085
196.357
203.794
211.392
219.146
227.05
235.099
243.285
251.601
260.036
268.579
277.219
285.942
294.735
303.58
312.461
321.358
330.251
339.118
347.936
356.678
365.326
373.771
16.4435
16.8479
17.2649
17.7172
18.2305
18.7993
19.4171
20.0903
20.8252
21.6238
22.4882
23.4218
24.4279
25.5098
26.6704
27.9129
29.2407
30.6569
32.1649
33.768
35.4695
37.2729
39.1814
41.1984
43.3275
45.5719
47.935
50.4202
53.0307
55.77
58.6414
61.6478
64.7922
68.0783
71.509
75.0868
78.815
82.6962
86.7332
90.9284
95.2846
99.8042
104.489
109.342
114.363
119.557
124.924
130.464
136.18
142.073
148.142
154.389
160.813
167.414
174.192
181.144
188.269
195.565
203.029
210.657
218.444
226.386
234.476
242.708
251.073
259.563
268.166
276.872
285.667
294.536
303.466
312.437
321.431
330.429
339.408
348.345
357.216
365.994
374.659
383.07
16.1117
16.5093
16.9262
17.3759
17.8821
18.4426
19.0518
19.7152
20.4389
21.2252
22.0765
22.996
23.9873
25.0535
26.1977
27.4233
28.7336
30.1318
31.6214
33.2058
34.8882
36.6723
38.5615
40.5591
42.6687
44.8938
47.2376
49.7039
52.2957
55.0167
57.87
60.859
63.9869
67.2567
70.6718
74.2348
77.9493
81.8178
85.8428
90.0273
94.3735
98.8848
103.562
108.409
113.427
118.617
123.982
129.523
135.241
141.138
147.213
153.468
159.902
166.515
173.307
180.276
187.422
194.741
202.23
209.888
217.708
225.687
233.817
242.094
250.509
259.052
267.715
276.485
285.351
294.297
303.308
312.369
321.46
330.561
339.651
348.707
357.705
366.619
375.419
384.089
392.447
15.7799
16.1713
16.5873
17.0341
17.5333
18.0855
18.6861
19.3395
20.0519
20.8258
21.6638
22.5691
23.5453
24.5956
25.7233
26.9316
28.2241
29.604
31.0747
32.6399
34.3029
36.0673
37.9365
39.9142
42.0038
44.2089
46.533
48.9795
51.5519
54.2538
57.0884
60.0593
63.1695
66.4222
69.8211
73.3688
77.0684
80.9229
84.9353
89.1081
93.4439
97.9455
102.615
107.455
112.467
117.654
123.017
128.557
134.276
140.176
146.256
152.518
158.961
165.586
172.392
179.378
186.542
193.883
201.399
209.085
216.937
224.951
233.123
241.443
249.907
258.504
267.225
276.059
284.993
294.015
303.109
312.258
321.444
330.648
339.848
349.022
358.145
367.192
376.136
384.947
393.607
401.891
15.4481
15.8341
16.2483
16.692
17.1843
17.7281
18.32
18.9634
19.6643
20.4258
21.2503
22.1412
23.1022
24.1364
25.2472
26.438
27.7123
29.0735
30.5251
32.0708
33.7139
35.458
37.3069
39.264
41.333
43.5176
45.8211
48.2473
50.7996
53.4816
56.2969
59.2487
62.3405
65.5755
68.957
72.4884
76.1725
80.0123
84.0109
88.1709
92.4954
96.9866
101.647
106.479
111.485
116.667
122.027
127.566
133.285
139.187
145.271
151.539
157.991
164.626
171.446
178.447
185.631
192.993
200.533
208.247
216.131
224.18
232.39
240.755
249.266
257.915
266.694
275.591
284.595
293.691
302.866
312.103
321.383
330.689
339.998
349.289
358.536
367.716
376.8
385.762
394.569
403.204
411.393
15.1164
15.4977
15.9094
16.3497
16.8352
17.3707
17.9536
18.5869
19.2763
20.0252
20.8361
21.7125
22.658
23.6759
24.7697
25.9427
27.1986
28.5408
29.9729
31.4985
33.1212
34.8447
36.6727
38.6088
40.6566
42.8199
45.1023
47.5075
50.039
52.7006
55.4955
58.4276
61.5002
64.7165
68.0801
71.594
75.2615
79.0859
83.07
87.2162
91.5282
96.0082
100.659
105.482
110.481
115.657
121.013
126.549
132.268
138.171
144.259
150.532
156.991
163.637
170.468
177.485
184.686
192.069
199.633
207.373
215.288
223.372
231.62
240.028
248.586
257.287
266.123
275.083
284.154
293.324
302.579
311.903
321.277
330.683
340.101
349.507
358.878
368.189
377.413
386.522
395.487
404.276
412.871
420.941
14.7846
15.1623
15.5708
16.0072
16.4861
17.0132
17.5871
18.2103
18.8881
19.6243
20.4215
21.2832
22.213
23.2144
24.2908
25.4458
26.683
28.0058
29.4181
30.9233
32.5253
34.2276
36.0343
37.9488
39.9749
42.1164
44.377
46.7605
49.2705
51.9107
54.6847
57.5963
60.6486
63.8455
67.1902
70.6859
74.336
78.1438
82.1122
86.2442
90.5425
95.0104
99.6498
104.464
109.454
114.624
119.974
125.507
131.224
137.128
143.217
149.495
155.961
162.616
169.459
176.49
183.708
191.111
198.698
206.465
214.409
222.527
230.813
239.262
247.867
256.619
265.511
274.532
283.67
292.914
302.248
311.657
321.124
330.631
340.155
349.676
359.17
368.612
377.975
387.23
396.35
405.304
414.059
422.597
430.523
14.4529
14.8279
15.2325
15.6649
16.1371
16.6561
17.2208
17.8337
18.4998
19.2231
20.0065
20.8534
21.7674
22.7521
23.8109
24.9476
26.1657
27.4689
28.861
30.3455
31.9263
33.6071
35.3918
37.2842
39.288
41.4071
43.6453
46.0064
48.4942
51.1124
53.8647
56.7549
59.7862
62.9628
66.2877
69.7644
73.396
77.1864
81.1381
85.2546
89.5386
93.9932
98.6205
103.424
108.405
113.567
118.911
124.44
130.154
136.057
142.148
148.43
154.902
161.564
168.418
175.462
182.696
190.118
197.727
205.52
213.493
221.644
229.967
238.457
247.107
255.91
264.857
273.938
283.143
292.459
301.872
311.366