/*--------------------------------*- C++ -*----------------------------------*\
  =========                 |
  \\      /  F ield         | OpenFOAM: The Open Source CFD Toolbox
   \\    /   O peration     | Website:  https://openfoam.org
    \\  /    A nd           | Version:  7
     \\/     M anipulation  |
\*---------------------------------------------------------------------------*/
FoamFile
{
    version     2.0;
    format      ascii;
    class       surfaceScalarField;
    location    "400";
    object      phi;
}
// * * * * * * * * * * * * * * * * * * * * * * * * * * * * * * * * * * * * * //

dimensions      [0 3 -1 0 0 0 0];

internalField   nonuniform List<scalar> 
45794
(
-0.295268
0.0426208
-0.293609
0.0451475
-0.283757
0.0409042
-0.291845
0.0476921
-0.282021
0.0434115
-0.272234
0.0394326
-0.28995
0.0501399
-0.280222
0.045894
-0.270634
0.0418113
-0.261281
0.0378863
-0.287892
0.0525335
-0.278294
0.048211
-0.268877
0.0441371
-0.259708
0.0402378
-0.250761
0.0364246
-0.241979
0.0328337
-0.285778
0.0549171
-0.276326
0.0505662
-0.267071
0.0464054
-0.258047
0.0424769
-0.249252
0.0387288
-0.240615
0.0350609
-0.232194
0.0315761
-0.223963
0.00207536
-0.283466
0.0570916
-0.274217
0.0528081
-0.265169
0.0486635
-0.256297
0.0446545
-0.2476
0.0408251
-0.239112
0.0372255
-0.230891
0.033758
-0.222804
0.0304178
-0.2149
0.00207426
-0.281159
0.0593548
-0.272067
0.0549418
-0.263124
0.0507637
-0.254405
0.0467724
-0.245907
0.0429607
-0.237616
0.0393297
-0.229445
0.0357795
-0.221504
0.0324579
-0.213748
0.0292654
-0.206188
0.00209292
-0.278661
0.0614086
-0.269775
0.0570624
-0.261037
0.0528544
-0.252472
0.0488309
-0.244121
0.044987
-0.23593
0.0412744
-0.227906
0.0377913
-0.220161
0.0344367
-0.212502
0.0312117
-0.20505
0.0281281
-0.197783
0.00210158
-0.276121
0.0634993
-0.267441
0.0590746
-0.25881
0.0548358
-0.250447
0.0508288
-0.242244
0.0469538
-0.234252
0.0433088
-0.226375
0.0397435
-0.218726
0.0363564
-0.211162
0.0330974
-0.203854
0.0300157
-0.19671
0.0270552
-0.189732
0.00211029
-0.273543
0.0654809
-0.264968
0.0610264
-0.256591
0.0568555
-0.248381
0.0527698
-0.240328
0.0489122
-0.232433
0.0451351
-0.224703
0.0416368
-0.21715
0.0381671
-0.20978
0.034974
-0.202595
0.0318382
-0.195559
0.0288639
-0.188691
0.0260141
-0.181998
0.00211879
-0.270778
0.0673547
-0.262408
0.0629205
-0.254235
0.0586702
-0.246126
0.0546003
-0.238271
0.0507131
-0.230524
0.0470033
-0.222991
0.0434226
-0.215532
0.0400191
-0.208355
0.0367421
-0.201238
0.0336171
-0.194338
0.0306177
-0.187586
0.0277588
-0.181002
0.0250183
-0.174578
0.0021271
-0.268026
0.0692172
-0.259809
0.0647556
-0.251788
0.0604733
-0.24388
0.0564248
-0.236175
0.0525041
-0.228574
0.0487624
-0.221136
0.0451487
-0.213872
0.041762
-0.206788
0.0384527
-0.199824
0.0353278
-0.193045
0.0323236
-0.186417
0.0294488
-0.179942
0.0266986
-0.173621
0.0240606
-0.167448
0.00213053
-0.26514
0.0709735
-0.257123
0.0665317
-0.249303
0.0622712
-0.241596
0.0581894
-0.233988
0.0542382
-0.226584
0.0505143
-0.219292
0.0469184
-0.212171
0.0434479
-0.20518
0.0401536
-0.198367
0.0369955
-0.191693
0.0339765
-0.185175
0.0310815
-0.178808
0.028315
-0.172594
0.0256715
-0.166527
0.0231394
-0.160613
0.00213884
-0.262216
0.0727188
-0.2544
0.0682501
-0.246731
0.0639595
-0.239174
0.0598486
-0.231714
0.0559152
-0.224456
0.05211
-0.217308
0.0485295
-0.210329
0.045077
-0.203532
0.0417995
-0.19682
0.0386063
-0.19027
0.0355719
-0.183865
0.0326665
-0.177615
0.0298889
-0.171508
0.0272288
-0.165541
0.0246858
-0.159727
0.022253
-0.154048
0.00214214
-0.259211
0.074311
-0.251543
0.0698625
-0.244023
0.065542
-0.236664
0.0614492
-0.2294
0.0575352
-0.222287
0.0537466
-0.215332
0.0501345
-0.208497
0.0466975
-0.201791
0.0433363
-0.195184
0.0401637
-0.188779
0.0371158
-0.182497
0.0342042
-0.17636
0.0314109
-0.170358
0.0287393
-0.164496
0.0261838
-0.15878
0.0237396
-0.153195
0.0213996
-0.147749
0.00215033
-0.256118
0.0758926
-0.24865
0.0714173
-0.241327
0.0671664
-0.234117
0.0629953
-0.227
0.0590485
-0.22008
0.0553276
-0.213269
0.051684
-0.206528
0.0481646
-0.199961
0.0448672
-0.193513
0.0416656
-0.187232
0.0386166
-0.181067
0.0356857
-0.175041
0.0328858
-0.16915
0.0302027
-0.163392
0.0276353
-0.157775
0.0251783
-0.152282
0.0228263
-0.146927
0.0205776
-0.141696
0.00215352
-0.252945
0.0774205
-0.245673
0.072916
-0.238546
0.0686368
-0.231484
0.0645337
-0.22456
0.0605556
-0.217785
0.0567537
-0.211068
0.0531257
-0.204515
0.0496714
-0.198089
0.046293
-0.191773
0.0431268
-0.185622
0.040056
-0.179575
0.0371244
-0.173665
0.0343093
-0.167883
0.0316194
-0.16223
0.0290402
-0.15671
0.0265707
-0.151314
0.0242104
-0.14605
0.0219493
-0.140909
0.0197905
-0.135899
0.00216144
-0.249738
0.0788922
-0.242661
0.0744082
-0.23568
0.0700499
-0.228813
0.0659654
-0.222033
0.062007
-0.215451
0.0582221
-0.208875
0.0545613
-0.202465
0.0510757
-0.196129
0.0477116
-0.19
0.04452
-0.183947
0.0414512
-0.178028
0.0385091
-0.172227
0.0356865
-0.166559
0.0329853
-0.161009
0.0303988
-0.155592
0.0279217
-0.150297
0.0255534
-0.145119
0.0232787
-0.140067
0.021107
-0.13514
0.0190317
-0.130328
0.00216451
-0.246497
0.0802582
-0.239516
0.0757477
-0.23278
0.0715076
-0.226107
0.0673438
-0.21947
0.0634026
-0.212981
0.0595368
-0.206597
0.055944
-0.200327
0.0524231
-0.194179
0.0491255
-0.188167
0.0458788
-0.182223
0.042796
-0.176422
0.0398457
-0.170736
0.0370183
-0.165183
0.0343101
-0.159741
0.0317165
-0.15442
0.0292268
-0.149221
0.0268456
-0.144137
0.0245722
-0.139175
0.0223864
-0.134331
0.0202979
-0.129596
0.0183
-0.124983
0.00217244
-0.243125
0.0815709
-0.236387
0.0771292
-0.229794
0.0727617
-0.223265
0.0686663
-0.216822
0.0646954
-0.210474
0.0608951
-0.204279
0.0572189
-0.198149
0.0537659
-0.19214
0.0503835
-0.18622
0.0471786
-0.180442
0.0440975
-0.174761
0.0411344
-0.169196
0.0383052
-0.16375
0.035585
-0.158414
0.032984
-0.153195
0.0304914
-0.148096
0.0281019
-0.143102
0.0258103
-0.138228
0.0236255
-0.133467
0.0215224
-0.128814
0.0195157
-0.124277
0.0175939
-0.119849
0.00217046
-0.239671
0.0828276
-0.233174
0.0783581
-0.226725
0.0740606
-0.220438
0.0699344
-0.214137
0.0659808
-0.207979
0.0622004
-0.201925
0.0585413
-0.195933
0.0550035
-0.190025
0.0516518
-0.184268
0.0484314
-0.178606
0.0453426
-0.173045
0.0423813
-0.167602
0.0395403
-0.162264
0.0368195
-0.157035
0.0342052
-0.151916
0.0317058
-0.146912
0.0293082
-0.142018
0.0270177
-0.137232
0.024814
-0.132553
0.0227116
-0.127992
0.0206999
-0.12353
0.0187688
-0.119178
0.016922
-0.114932
0.00217813
-0.236234
0.0840807
-0.229929
0.0795821
-0.223671
0.0753037
-0.217527
0.0711493
-0.211366
0.0671635
-0.205349
0.0633508
-0.199432
0.0597076
-0.193628
0.0562365
-0.187889
0.0528671
-0.182257
0.0496414
-0.176719
0.0465445
-0.171281
0.0435791
-0.165953
0.0407326
-0.160727
0.0380037
-0.155609
0.0353938
-0.150597
0.0328855
-0.145691
0.0304843
-0.14089
0.0281802
-0.136191
0.0259775
-0.131605
0.0238655
-0.127119
0.0218391
-0.122733
0.0199027
-0.118455
0.0180462
-0.114283
0.0162731
-0.110206
0.00218094
-0.232766
0.0852311
-0.226602
0.0807542
-0.220535
0.0764466
-0.214531
0.0723085
-0.208558
0.0683415
-0.202731
0.0645461
-0.197003
0.0609214
-0.191287
0.0573658
-0.185673
0.0540208
-0.180186
0.0507959
-0.174778
0.0477012
-0.169466
0.044729
-0.164253
0.0418794
-0.159144
0.0391487
-0.154131
0.0365257
-0.149222
0.034019
-0.144416
0.0316103
-0.139708
0.0293028
-0.135102
0.027091
-0.130597
0.0249697
-0.126192
0.0229385
-0.121891
0.0209969
-0.117692
0.0191395
-0.113588
0.0173515
-0.109579
0.0156461
-0.105671
0.00217866
-0.229166
0.0863283
-0.223242
0.0818707
-0.217314
0.0775324
-0.211499
0.0734146
-0.205717
0.0694678
-0.200078
0.0656884
-0.194437
0.0619805
-0.188858
0.058493
-0.183445
0.0551377
-0.178068
0.0519026
-0.172787
0.0488048
-0.167601
0.0458371
-0.162511
0.042987
-0.157514
0.0402496
-0.152612
0.0376297
-0.147807
0.0351112
-0.143095
0.0326978
-0.138479
0.0303808
-0.133965
0.0281652
-0.12955
0.0260443
-0.12523
0.0240081
-0.121009
0.0220563
-0.116883
0.0201885
-0.112848
0.0183992
-0.108916
0.0166884
-0.105074
0.0150497
-0.101322
0.00218135
-0.225585
0.0873724
-0.219801
0.082887
-0.214062
0.0786189
-0.208437
0.0744703
-0.202841
0.0705384
-0.197339
0.0667282
-0.191836
0.0630872
-0.186461
0.0595832
-0.181153
0.0562005
-0.175905
0.0529749
-0.170758
0.0498731
-0.165695
0.0468987
-0.160721
0.0440469
-0.155833
0.0413063
-0.151041
0.0386784
-0.146339
0.0361617
-0.14173
0.0337464
-0.137212
0.0314312
-0.132794
0.0292101
-0.128465
0.0270795
-0.124225
0.0250384
-0.120082
0.0230812
-0.116035
0.0212078
-0.112072
0.0194126
-0.108207
0.0176904
-0.104432
0.0160458
-0.100745
0.0144728
-0.097149
0.00218872
-0.221923
0.0883649
-0.216327
0.0838986
-0.210775
0.0795999
-0.205337
0.0755187
-0.199929
0.0715587
-0.194515
0.067715
-0.189197
0.0640888
-0.183957
0.0605836
-0.178794
0.0572241
-0.173699
0.0539945
-0.16868
0.0508973
-0.163743
0.0479212
-0.158885
0.0450626
-0.154111
0.0423252
-0.149434
0.0396991
-0.144835
0.0371744
-0.140323
0.0347547
-0.135901
0.032435
-0.131574
0.0302108
-0.12733
0.0280758
-0.123175
0.0260297
-0.119116
0.0240722
-0.115142
0.0221881
-0.111256
0.0203918
-0.107457
0.0186633
-0.103753
0.0170119
-0.100127
0.0154278
-0.0965908
0.0139145
-0.0931425
0.00219126
-0.21823
0.0893057
-0.212822
0.0848599
-0.207456
0.0805803
-0.202157
0.0764202
-0.196886
0.0724751
-0.191655
0.0686986
-0.186522
0.0650401
-0.181428
0.0615595
-0.176403
0.0581925
-0.17144
0.0549649
-0.166552
0.051866
-0.161741
0.0488945
-0.157003
0.0460392
-0.152349
0.0433001
-0.147774
0.0406659
-0.143279
0.0381431
-0.138874
0.0357251
-0.134548
0.0334023
-0.130312
0.0311732
-0.126153
0.0290332
-0.122086
0.026987
-0.118105
0.0250191
-0.114209
0.0231391
-0.1104
0.021332
-0.106672
0.019607
-0.103034
0.0179442
-0.0994727
0.0163578
-0.096001
0.0148381
-0.0926068
0.0133788
-0.0892971
0.00218871
-0.214457
0.090144
-0.209235
0.0857186
-0.204056
0.0814595
-0.198942
0.0773653
-0.193905
0.0734391
-0.188809
0.0696292
-0.183811
0.0659882
-0.178871
0.0624826
-0.173968
0.0591253
-0.169148
0.0559001
-0.164391
0.0528045
-0.159701
0.0498264
-0.155083
0.0469743
-0.150547
0.0442371
-0.14608
0.0416062
-0.141694
0.0390802
-0.137383
0.0366529
-0.133154
0.0343305
-0.129011
0.0321019
-0.124942
0.029962
-0.120964
0.0279109
-0.117061
0.0259425
-0.113241
0.0240517
-0.109504
0.0222433
-0.105847
0.020507
-0.102274
0.0188472
-0.0987827
0.0172541
-0.0953702
0.015727
-0.0920344
0.0142657
-0.0887876
0.0128694
-0.0856077
0.0021911
-0.210653
0.0910313
-0.205666
0.0865754
-0.200671
0.082334
-0.195742
0.0782588
-0.19079
0.0742511
-0.18588
0.0705096
-0.181047
0.0668649
-0.176248
0.0633655
-0.171497
0.0600116
-0.166812
0.0567898
-0.162186
0.0536952
-0.157622
0.0507254
-0.153127
0.0478703
-0.1487
0.0451277
-0.144341
0.0424974
-0.140064
0.0399769
-0.135856
0.0375528
-0.131727
0.035226
-0.127674
0.0329929
-0.123693
0.0308535
-0.119798
0.0287961
-0.115977
0.0268274
-0.112235
0.0249358
-0.108574
0.0231213
-0.104988
0.0213835
-0.101485
0.0197171
-0.0980571
0.0181217
-0.0947033
0.0165873
-0.0914308
0.0151233
-0.0882368
0.013715
-0.085114
0.0123757
-0.0820694
0.00219329
-0.206868
0.0918188
-0.202017
0.0873819
-0.197206
0.08311
-0.192412
0.0790042
-0.187645
0.0751133
-0.182916
0.0712876
-0.17823
0.0676924
-0.173592
0.0642091
-0.168988
0.0608563
-0.164441
0.0576406
-0.15994
0.0545432
-0.155503
0.0515766
-0.151127
0.0487261
-0.146818
0.0459878
-0.142575
0.043362
-0.138401
0.0408336
-0.134288
0.0384087
-0.130257
0.0360824
-0.126299
0.0338512
-0.122406
0.031706
-0.118594
0.0296495
-0.114856
0.0276747
-0.111194
0.0257867
-0.107604
0.0239659
-0.104093
0.0222263
-0.100659
0.0205582
-0.097291
0.0189509
-0.0940056
0.017424
-0.0907959
0.0159524
-0.0876545
0.014541
-0.0845886
0.0131895
-0.0815954
0.0119017
-0.078677
0.00219552
-0.203003
0.0925534
-0.198336
0.0881383
-0.19371
0.0838854
-0.189098
0.079796
-0.184513
0.0758718
-0.179917
0.0721146
-0.175428
0.068486
-0.170902
0.0650026
-0.16644
0.0616609
-0.162026
0.058441
-0.157659
0.0553595
-0.153351
0.0523913
-0.149092
0.0495416
-0.144895
0.0468029
-0.140765
0.0441777
-0.13669
0.0416512
-0.132687
0.0392331
-0.12875
0.0369025
-0.124887
0.0346704
-0.121081
0.0325258
-0.117356
0.0304684
-0.113705
0.0284984
-0.110119
0.0265996
-0.1066
0.0247825
-0.103163
0.0230365
-0.0997941
0.0213613
-0.0964946
0.0197618
-0.0932773
0.0182226
-0.0901204
0.0167485
-0.087041
0.0153389
-0.0840316
0.013984
-0.0810895
0.0126837
-0.078217
0.0114418
-0.0754157
0.00219754
-0.199059
0.0931909
-0.194575
0.0887922
-0.190178
0.0846067
-0.18575
0.0805377
-0.181348
0.0766311
-0.176934
0.0728888
-0.172546
0.0692317
-0.168171
0.0657545
-0.163852
0.0624151
-0.159573
0.0592075
-0.155341
0.0561232
-0.151155
0.0531633
-0.147019
0.0503182
-0.142938
0.0475852
-0.138919
0.044957
-0.134953
0.0424409
-0.13105
0.0400136
-0.127213
0.037696
-0.123441
0.0354569
-0.119728
0.0333177
-0.116086
0.031256
-0.112515
0.0292789
-0.109006
0.0273853
-0.105566
0.0255662
-0.102204
0.0238235
-0.098904
0.0221464
-0.0956729
0.0205396
-0.0925134
0.0189978
-0.0894187
0.0175209
-0.0863962
0.0161036
-0.0834383
0.0147456
-0.0805521
0.0134466
-0.0777299
0.0121966
-0.0749737
0.0109997
-0.0722854
0.00219474
-0.195133
0.0938749
-0.190881
0.0894966
-0.186618
0.0852322
-0.182321
0.0811782
-0.178099
0.0772893
-0.173822
0.0735186
-0.169594
0.0699373
-0.165409
0.0664699
-0.161235
0.0631367
-0.157095
0.0599376
-0.15299
0.0568566
-0.148931
0.0538988
-0.144912
0.0510557
-0.140952
0.0483323
-0.137042
0.0457084
-0.133182
0.0431857
-0.129378
0.0407688
-0.125639
0.0384393
-0.121954
0.0362084
-0.11834
0.0340684
-0.114783
0.0320144
-0.111292
0.0300329
-0.107864
0.0281373
-0.104498
0.0263174
-0.101206
0.0245679
-0.0979743
0.0228938
-0.0948112
0.0212847
-0.0917144
0.0197406
-0.0886818
0.0182609
-0.0857158
0.0168405
-0.0828139
0.0154792
-0.0799831
0.0141767
-0.0772111
0.0129278
-0.0745095
0.0117324
-0.0718656
0.0105799
-0.069286
0.00219659
-0.191178
0.0944619
-0.187108
0.0901026
-0.183024
0.0859029
-0.178957
0.0818679
-0.174868
0.077947
-0.170735
0.0742025
-0.166677
0.0706013
-0.162616
0.0671439
-0.158585
0.0638204
-0.154578
0.0606198
-0.150605
0.0575522
-0.146674
0.0545992
-0.142776
0.0517631
-0.138932
0.0490354
-0.135126
0.0464161
-0.131376
0.0439027
-0.12768
0.0414877
-0.124034
0.0391638
-0.120451
0.036937
-0.116919
0.0347877
-0.113448
0.0327329
-0.110038
0.0307605
-0.106689
0.0288578
-0.103402
0.0270411
-0.100184
0.0252949
-0.0970201
0.0236137
-0.0939197
0.0220024
-0.09089
0.0204604
-0.087919
0.0189778
-0.0850093
0.0175545
-0.0821681
0.0161947
-0.0793878
0.0148839
-0.0766657
0.0136313
-0.0740087
0.012427
-0.0714137
0.0112805
-0.0688826
0.0101766
-0.0664123
0.00219834
-0.187194
0.0950484
-0.183304
0.0906571
-0.1794
0.0864778
-0.175464
0.0824095
-0.171529
0.0785284
-0.167603
0.0748151
-0.1637
0.0712252
-0.159792
0.0677777
-0.1559
0.0644591
-0.15203
0.0612719
-0.148194
0.0582091
-0.144384
0.0552631
-0.140606
0.0524291
-0.136876
0.0497071
-0.133184
0.0470934
-0.129542
0.0445819
-0.125945
0.0421676
-0.122397
0.0398505
-0.118906
0.0376181
-0.115463
0.0354815
-0.112082
0.0334224
-0.108754
0.0314491
-0.105484
0.0295555
-0.102277
0.0277331
-0.0991277
0.0259852
-0.0960315
0.0243062
-0.0930034
0.0226973
-0.0900355
0.0211479
-0.0871212
0.0196626
-0.0842724
0.0182408
-0.0814866
0.0168729
-0.0787566
0.0155635
-0.0760938
0.014312
-0.0734859
0.0131085
-0.0709397
0.011953
-0.0684521
0.01085
-0.0660199
0.00978418
-0.0636448
0.0021953
-0.183176
0.0955339
-0.179417
0.0911616
-0.175743
0.087
-0.171986
0.0830004
-0.16823
0.0791108
-0.164464
0.0753889
-0.160698
0.0718139
-0.156938
0.0683713
-0.153184
0.0650612
-0.149455
0.0618839
-0.145745
0.0588233
-0.14206
0.0558844
-0.138406
0.0530636
-0.134797
0.0503499
-0.131215
0.0477383
-0.127676
0.0452274
-0.124181
0.0428187
-0.120734
0.0405045
-0.117334
0.038279
-0.113983
0.0361381
-0.110689
0.034088
-0.107443
0.0321114
-0.104252
0.030217
-0.101119
0.0283973
-0.0980407
0.0266461
-0.0950175
0.0249712
-0.0920574
0.0233602
-0.0891512
0.021813
-0.0863028
0.0203295
-0.0835146
0.0189048
-0.0807842
0.0175384
-0.0781088
0.0162252
-0.0754954
0.0149651
-0.0729317
0.0137578
-0.070434
0.0126028
-0.0679897
0.0114905
-0.0656003
0.0104304
-0.0632725
0.00941187
-0.0609931
0.00219204
-0.179082
0.0959734
-0.175551
0.0916684
-0.172056
0.0874748
-0.168476
0.0834902
-0.164868
0.0796381
-0.16128
0.0759275
-0.157667
0.0723576
-0.154054
0.0689298
-0.150446
0.0656332
-0.146853
0.0624594
-0.143273
0.0594122
-0.139713
0.0564767
-0.13618
0.0536581
-0.132684
0.0509514
-0.129209
0.0483441
-0.125783
0.0458452
-0.12239
0.0434358
-0.119039
0.0411236
-0.115731
0.0389009
-0.112475
0.0367705
-0.109264
0.0347134
-0.106099
0.0327436
-0.102993
0.0308521
-0.0999323
0.0290303
-0.0969266
0.0272832
-0.0939771
0.0256057
-0.0910823
0.0239961
-0.0882372
0.0224462
-0.0854496
0.0209598
-0.0827217
0.0195366
-0.0800462
0.0181668
-0.0774253
0.0168549
-0.074866
0.0155958
-0.0723559
0.0143893
-0.0699016
0.0132254
-0.0675051
0.0121183
-0.0651584
0.0110486
-0.0628727
0.0100306
-0.0606352
0.009054
-0.0584569
0.00219833
-0.175007
0.0964125
-0.171705
0.0921265
-0.168337
0.0879493
-0.164949
0.0839475
-0.161499
0.0801217
-0.158068
0.0764261
-0.154611
0.072871
-0.151145
0.0694482
-0.147677
0.0661615
-0.144219
0.0629999
-0.14077
0.0599561
-0.137339
0.0570377
-0.133929
0.0542261
-0.130546
0.0515201
-0.127184
0.0489261
-0.12386
0.0464216
-0.120569
0.0440241
-0.117319
0.0417162
-0.114106
0.0394991
-0.11094
0.0373666
-0.107814
0.03532
-0.104737
0.0333517
-0.101704
0.0314545
-0.0987207
0.0296405
-0.0957937
0.0278975
-0.0929105
0.0262166
-0.0900822
0.0246056
-0.0872985
0.0230574
-0.0845762
0.0215728
-0.0819084
0.0201464
-0.0792876
0.018778
-0.076721
0.0174625
-0.0742105
0.0161994
-0.071749
0.0149888
-0.0693426
0.0138303
-0.0669939
0.0127141
-0.0646943
0.0116543
-0.0624507
0.0106265
-0.0602499
0.00964527
-0.058108
0.0087051
-0.056012
0.002195
-0.170902
0.096803
-0.167777
0.0924849
-0.164584
0.0883737
-0.161394
0.0843945
-0.158115
0.0805638
-0.154831
0.0768845
-0.151525
0.0733408
-0.14821
0.0699365
-0.144888
0.0666583
-0.141564
0.0635065
-0.138244
0.0604735
-0.134937
0.057555
-0.131646
0.0547541
-0.128376
0.0520552
-0.125131
0.0494668
-0.121913
0.0469792
-0.118728
0.044581
-0.115569
0.0422738
-0.112451
0.0400609
-0.109374
0.0379327
-0.106336
0.035889
-0.103338
0.0339213
-0.100387
0.0320355
-0.0974869
0.0302207
-0.0946276
0.0284743
-0.0918155
0.0268024
-0.0890534
0.0251878
-0.0863397
0.0236467
-0.0836779
0.0221591
-0.081065
0.0207294
-0.0785035
0.0193623
-0.0759909
0.0180479
-0.073534
0.016786
-0.0711256
0.015576
-0.068767
0.0144132
-0.0664609
0.0132973
-0.0642034
0.0122232
-0.0619967
0.0112004
-0.0598422
0.0102189
-0.0577366
0.00927383
-0.0556811
0.00837428
-0.0536726
0.00219626
-0.16681
0.0971945
-0.163868
0.092894
-0.160871
0.088772
-0.157815
0.0847942
-0.154701
0.0809798
-0.151577
0.0773092
-0.14842
0.073779
-0.145254
0.0703847
-0.142066
0.0671151
-0.138883
0.0639767
-0.135691
0.0609536
-0.132513
0.0580494
-0.129343
0.0552519
-0.12619
0.0525686
-0.123057
0.0499811
-0.11994
0.0474941
-0.116851
0.0451017
-0.113796
0.0428086
-0.110777
0.0406
-0.107791
0.0384773
-0.104836
0.036433
-0.101923
0.0344731
-0.0990526
0.0325865
-0.0962211
0.0307697
-0.0934379
0.029031
-0.0906956
0.0273545
-0.0879997
0.0257488
-0.0853514
0.0241995
-0.08275
0.0227188
-0.0802015
0.0212955
-0.077694
0.01992
-0.0752352
0.0186066
-0.0728317
0.0173456
-0.0704711
0.0161315
-0.0681603
0.0149692
-0.0659014
0.0138537
-0.0636906
0.0127845
-0.0615304
0.0117569
-0.0594123
0.0107704
-0.0573426
0.00982496
-0.0553229
0.00891564
-0.0533497
0.00805136
-0.051429
0.0021926
-0.162658
0.0974406
-0.15988
0.0932061
-0.157072
0.0890954
-0.154191
0.0851476
-0.151261
0.0813544
-0.148297
0.0777001
-0.145295
0.0741849
-0.142274
0.0707991
-0.139231
0.0675493
-0.13618
0.0644119
-0.133116
0.0614022
-0.130065
0.0585051
-0.127013
0.0557197
-0.123977
0.0530386
-0.12095
0.0504616
-0.117943
0.047984
-0.114959
0.0456021
-0.112003
0.0433084
-0.109074
0.0411055
-0.106176
0.0389857
-0.10331
0.0369505
-0.100478
0.0349886
-0.0976858
0.0331063
-0.0949367
0.0313022
-0.0922283
0.0295601
-0.0895536
0.027889
-0.0869275
0.0262822
-0.0843439
0.0247414
-0.081807
0.0232564
-0.079313
0.0218304
-0.0768595
0.020461
-0.0744638
0.0191486
-0.0721085
0.0178834
-0.0697957
0.0166701
-0.0675371
0.0155083
-0.065325
0.0143929
-0.0631561
0.0133191
-0.0610325
0.0122866
-0.0589554
0.0113
-0.0569264
0.0103542
-0.054947
0.00944903
-0.0530138
0.00857974
-0.0511182
0.00774064
-0.0492713
0.00219375
-0.158504
0.0977349
-0.155919
0.0934796
-0.153271
0.089405
-0.150569
0.0854735
-0.147804
0.0816903
-0.144993
0.0780509
-0.142147
0.074552
-0.139269
0.0711798
-0.136369
0.0679373
-0.13345
0.0648196
-0.130525
0.0618207
-0.127595
0.0589321
-0.124666
0.0561574
-0.121744
0.053487
-0.118827
0.0509158
-0.115927
0.0484452
-0.113046
0.0460712
-0.110185
0.0437845
-0.107351
0.0415858
-0.10454
0.0394691
-0.101762
0.0374381
-0.0990167
0.035489
-0.0963067
0.0336095
-0.0936289
0.0317985
-0.0909867
0.0300606
-0.0883868
0.0283933
-0.0858256
0.0267871
-0.0833082
0.0252465
-0.0808298
0.0237642
-0.0784001
0.0223436
-0.0760046
0.0209754
-0.0736621
0.0196593
-0.0713596
0.0183997
-0.0690992
0.0171869
-0.0668879
0.0160209
-0.0647177
0.014901
-0.0625953
0.0138321
-0.0605176
0.0128043
-0.0584861
0.0118173
-0.0564928
0.0108664
-0.0545487
0.00995584
-0.0526504
0.00908564
-0.0507895
0.00825097
-0.0489771
0.00744637
-0.0472043
0.00218988
-0.154326
0.0979309
-0.151923
0.0937392
-0.149464
0.0896723
-0.146926
0.085762
-0.144329
0.0819988
-0.141679
0.0783757
-0.138979
0.0748827
-0.136247
0.0715304
-0.133491
0.0683014
-0.130705
0.0651923
-0.127911
0.0622055
-0.125103
0.059329
-0.122294
0.0565601
-0.119482
0.0538954
-0.116676
0.0513362
-0.113886
0.048875
-0.111109
0.0465081
-0.108343
0.0442292
-0.105605
0.0420385
-0.102886
0.0399323
-0.100197
0.0379043
-0.0975281
0.0359496
-0.0948957
0.034078
-0.0922976
0.0322783
-0.0897365
0.0305482
-0.0872064
0.0288802
-0.0847113
0.0272791
-0.0822575
0.0257364
-0.0798438
0.0242605
-0.0774668
0.0228309
-0.0751298
0.0214688
-0.0728451
0.0201583
-0.0705951
0.0188948
-0.068382
0.0176825
-0.0662225
0.0165215
-0.0640986
0.0154018
-0.0620177
0.0143233
-0.059981
0.0132954
-0.0579852
0.0123034
-0.0560371
0.0113616
-0.0541329
0.0104506
-0.0522694
0.00957489
-0.0504383
0.00873447
-0.04866
0.00793388
-0.0469212
0.00716321
-0.045223
0.00218589
-0.15016
0.098177
-0.147948
0.0939565
-0.145635
0.0899108
-0.14327
0.0860168
-0.140837
0.0822699
-0.138339
0.0786591
-0.135796
0.0751923
-0.133213
0.0718485
-0.130592
0.0686318
-0.127942
0.0655385
-0.125279
0.0625602
-0.122592
0.0596945
-0.119904
0.0569391
-0.117213
0.0542913
-0.114517
0.0517366
-0.11183
0.0492797
-0.109151
0.0469171
-0.106483
0.0446476
-0.103839
0.0424625
-0.101208
0.0403606
-0.0986004
0.0383356
-0.0960224
0.0363986
-0.0934711
0.034525
-0.0909492
0.0327295
-0.088453
0.0309948
-0.0859927
0.0293346
-0.0835675
0.0277363
-0.081182
0.0262036
-0.0788318
0.0247244
-0.0765133
0.023307
-0.0742395
0.0219406
-0.0720026
0.0206263
-0.0698002
0.0193635
-0.0676439
0.0181567
-0.0655311
0.0169911
-0.0634537
0.0158766
-0.0614187
0.0148029
-0.0594276
0.01377
-0.0574723
0.0127824
-0.0555642
0.0118305
-0.0536902
0.0109189
-0.0518614
0.0100425
-0.0500694
0.00920595
-0.0483298
0.0084043
-0.0466199
0.0076326
-0.0449504
0.00689064
-0.0433224
0.00218654
-0.145961
0.0983142
-0.143909
0.0941378
-0.141796
0.090117
-0.139596
0.0862366
-0.137325
0.0825047
-0.134988
0.0789187
-0.132593
0.0754569
-0.130153
0.0721317
-0.127672
0.0689284
-0.125159
0.0658487
-0.122622
0.0628812
-0.120066
0.0600339
-0.117496
0.0572866
-0.114914
0.0546397
-0.112326
0.0521006
-0.109747
0.0496544
-0.107174
0.0473025
-0.104604
0.0450387
-0.102051
0.0428602
-0.099512
0.0407662
-0.0969951
0.0387553
-0.0944995
0.0368127
-0.0920195
0.034947
-0.0895773
0.0331531
-0.0871559
0.0314324
-0.0847704
0.0297724
-0.0824087
0.0281758
-0.080088
0.0266424
-0.0777964
0.0251682
-0.07554
0.023751
-0.0733192
0.0223867
-0.0711404
0.0210784
-0.0689948
0.019821
-0.0668901
0.0186097
-0.0648188
0.0174445
-0.0627925
0.0163299
-0.0607983
0.0152562
-0.0588526
0.0142279
-0.0569377
0.0132354
-0.0550646
0.0122829
-0.0532351
0.0113754
-0.0514407
0.0104982
-0.0496876
0.0096608
-0.0479724
0.0088485
-0.0462913
0.00807568
-0.0446551
0.00733731
-0.04306
0.00662824
-0.0414929
0.00218242
-0.141751
0.0984496
-0.139883
0.0942877
-0.137938
0.0902796
-0.135911
0.0864317
-0.133806
0.0827183
-0.13162
0.0791373
-0.129377
0.0757027
-0.127085
0.0723897
-0.124746
0.0692063
-0.122369
0.0661387
-0.119958
0.0631848
-0.117525
0.0603406
-0.11507
0.0576081
-0.112603
0.0549756
-0.110129
0.0524422
-0.107654
0.0500067
-0.105182
0.0476628
-0.102709
0.0454069
-0.100248
0.0432355
-0.0977963
0.0411445
-0.0953655
0.0391366
-0.0929511
0.0372068
-0.0905544
0.0353476
-0.088187
0.0335567
-0.0858417
0.0318389
-0.0835198
0.0301818
-0.0812327
0.0285965
-0.0789743
0.027062
-0.0767448
0.0255907
-0.0745482
0.0241764
-0.0723859
0.0228177
-0.0702625
0.0215089
-0.0681689
0.0202525
-0.0661109
0.0190417
-0.0640907
0.0178816
-0.0621102
0.0167622
-0.0601617
0.0156933
-0.0582563
0.0146599
-0.0563814
0.0136716
-0.0545528
0.0127236
-0.052758
0.0118058
-0.0509979
0.0109326
-0.0492836
0.0100943
-0.0475973
0.00928574
-0.0459544
0.00851164
-0.0443513
0.00777187
-0.0427796
0.00705687
-0.0412403
0.00637562
-0.0397485
0.00218279
-0.137509
0.09855
-0.135833
0.0944003
-0.134075
0.0904247
-0.132213
0.0865818
-0.130264
0.0828896
-0.128239
0.0793372
-0.126151
0.0759111
-0.124001
0.0726181
-0.121796
0.0694393
-0.119548
0.0663852
-0.117271
0.063452
-0.114962
0.0606213
-0.112628
0.0578982
-0.110273
0.0552778
-0.107912
0.0527588
-0.105544
0.0503326
-0.103165
0.0479895
-0.100794
0.0457479
-0.0984244
0.0435831
-0.0960635
0.0415027
-0.0937237
0.0395027
-0.0913891
0.0375746
-0.0890735
0.0357259
-0.0867809
0.0339415
-0.0845091
0.032224
-0.0822556
0.0305748
-0.080037
0.0289861
-0.0778385
0.0274608
-0.0756725
0.0259897
-0.073538
0.0245805
-0.0714301
0.0232207
-0.0693604
0.0219155
-0.0673182
0.0206582
-0.065316
0.0194575
-0.0633467
0.0182977
-0.061412
0.0171833
-0.0595088
0.0161094
-0.0576435
0.0150805
-0.0558135
0.0140919
-0.0540245
0.0131433
-0.0522639
0.0122296
-0.0505427
0.0113506
-0.0488576
0.0105065
-0.0472095
0.00970645
-0.0455999
0.00893119
-0.044025
0.0081853
-0.0424764
0.00746871
-0.0409743
0.00679088
-0.0395053
0.00613238
-0.0380654
0.00217827
-0.133287
0.0986055
-0.131782
0.0944989
-0.130203
0.0905289
-0.128503
0.0867145
-0.126719
0.0830359
-0.124848
0.0794984
-0.122905
0.0760909
-0.1209
0.0728101
-0.118834
0.0696561
-0.116727
0.0666178
-0.114577
0.0636905
-0.112382
0.060872
-0.110171
0.0581646
-0.107928
0.0555536
-0.105675
0.0530404
-0.10341
0.050625
-0.101137
0.0483047
-0.0988618
0.0460576
-0.0965848
0.0439084
-0.09432
0.0418395
-0.0920599
0.0398389
-0.0898051
0.0379187
-0.0875693
0.0360704
-0.0853502
0.0342952
-0.0831531
0.0325856
-0.0809744
0.0309428
-0.078818
0.0293558
-0.0766879
0.0278355
-0.0745876
0.0263758
-0.0725103
0.024962
-0.0704609
0.0236112
-0.0684482
0.0223085
-0.066461
0.0210584
-0.0645057
0.0198479
-0.0625821
0.018693
-0.0606929
0.0175786
-0.0588347
0.0165092
-0.0570144
0.0154802
-0.0552239
0.0144909
-0.0534742
0.0135416
-0.0517528
0.0126321
-0.0500705
0.0117573
-0.0484189
0.0109119
-0.0468042
0.0101012
-0.045223
0.00932954
-0.0436762
0.00858236
-0.0421649
0.0078738
-0.0406903
0.00718476
-0.0392391
0.00652469
-0.037831
0.00589799
-0.0364576
0.00217832
-0.129041
0.098641
-0.12773
0.0945529
-0.126309
0.0906044
-0.124784
0.0868099
-0.12316
0.0831562
-0.121449
0.0796372
-0.119655
0.0762483
-0.117794
0.0729846
-0.115867
0.0698428
-0.113887
0.0668168
-0.111862
0.063903
-0.109795
0.0611039
-0.1077
0.058401
-0.10557
0.0558071
-0.103431
0.0533095
-0.101272
0.0509022
-0.0990948
0.0485827
-0.0969119
0.0463548
-0.0947345
0.0442073
-0.0925544
0.0421428
-0.0903742
0.0401538
-0.088209
0.0382428
-0.0860529
0.0364024
-0.0839136
0.0346337
-0.081785
0.0329271
-0.0796797
0.0312908
-0.0775904
0.0297152
-0.0755273
0.0281952
-0.0734856
0.0267335
-0.0714655
0.025331
-0.0694781
0.0239792
-0.0675149
0.022678
-0.06558
0.0214274
-0.0636746
0.0202273
-0.0618018
0.0190676
-0.0599578
0.0179579
-0.0581446
0.0168885
-0.056369
0.0158638
-0.0546227
0.014879
-0.0529075
0.0139242
-0.0512249
0.0130138
-0.0495764
0.012138
-0.047963
0.0113014
-0.0463818
0.0104896
-0.0448334
0.00971164
-0.0433145
0.00896786
-0.0418357
0.0082531
-0.0403837
0.00756718
-0.0389643
0.00691002
-0.0375879
0.0062816
-0.0362317
0.00567217
-0.0349107
0.00217361
-0.124796
0.0986448
-0.123651
0.0945619
-0.122408
0.0906525
-0.121058
0.0868792
-0.119593
0.0832427
-0.118037
0.0797437
-0.116391
0.0763733
-0.114667
0.0731219
-0.112879
0.0699973
-0.111038
0.0669934
-0.109139
0.0640941
-0.107194
0.0613022
-0.105212
0.0586164
-0.103201
0.0560319
-0.101166
0.0535424
-0.0991082
0.0511458
-0.097032
0.0488393
-0.0949549
0.0466257
-0.0928672
0.0444875
-0.0907732
0.0424261
-0.0886826
0.0404512
-0.0866034
0.0385482
-0.0845258
0.0367157
-0.0824599
0.0349487
-0.0804034
0.0332521
-0.0783652
0.0316126
-0.0763395
0.0300399
-0.0743435
0.0285314
-0.0723639
0.0270735
-0.0704045
0.0256726
-0.0684729
0.0243259
-0.066562
0.0230263
-0.0646828
0.0217808
-0.0628281
0.0205809
-0.0610011
0.0194266
-0.0592071
0.0183168
-0.0574386
0.0172519
-0.0557072
0.0162267
-0.0540002
0.0152414
-0.0523241
0.0142957
-0.0506851
0.0133844
-0.0490702
0.0125076
-0.0474901
0.0116651
-0.0459419
0.0108615
-0.0444262
0.0100824
-0.0429401
0.00933722
-0.0414888
0.00862094
-0.0400641
0.00793346
-0.0386765
0.0072793
-0.0373221
0.00664423
-0.0359924
0.00604224
-0.0346977
0.00545911
-0.0334341
0.00217331
-0.120539
0.0986104
-0.119583
0.0945775
-0.11852
0.0906733
-0.117325
0.0869186
-0.116017
0.0833033
-0.114614
0.0798201
-0.113116
0.0764683
-0.111536
0.0732418
-0.109891
0.070133
-0.108176
0.067135
-0.106398
0.0642528
-0.104583
0.061483
-0.102722
0.0588116
-0.100821
0.0562366
-0.098892
0.0537579
-0.0969414
0.0513756
-0.094966
0.0490798
-0.0929836
0.046868
-0.0909806
0.0447391
-0.0889812
0.0426955
-0.0869803
0.0407237
-0.0849733
0.0388211
-0.0829741
0.0369965
-0.0809803
0.0352361
-0.0790035
0.0335488
-0.0770338
0.0319207
-0.0750801
0.0303532
-0.0731449
0.0288413
-0.0712238
0.0273913
-0.0693265
0.0259955
-0.0674556
0.0246553
-0.0656005
0.0233643
-0.0637756
0.0221191