/*--------------------------------*- C++ -*----------------------------------*\
  =========                 |
  \\      /  F ield         | OpenFOAM: The Open Source CFD Toolbox
   \\    /   O peration     | Website:  https://openfoam.org
    \\  /    A nd           | Version:  7
     \\/     M anipulation  |
\*---------------------------------------------------------------------------*/
FoamFile
{
    version     2.0;
    format      ascii;
    class       volVectorField;
    location    "400";
    object      U;
}
// * * * * * * * * * * * * * * * * * * * * * * * * * * * * * * * * * * * * * //

dimensions      [0 1 -1 0 0 0 0];

internalField   nonuniform List<vector> 
23052
(
(49.5782 12.9154 -3.06182e-17)
(49.6067 12.9383 0)
(49.6741 13.0922 1.28234e-17)
(49.6271 12.9626 0)
(49.6649 13.0904 5.15256e-17)
(49.6475 13.0858 6.80964e-18)
(49.6386 12.9867 1.35158e-17)
(49.6614 13.0935 8.49383e-19)
(49.6557 13.0975 -7.28765e-18)
(49.6603 13.0724 2.33232e-17)
(49.6461 13.0099 9.74254e-17)
(49.6617 13.0997 -8.01729e-17)
(49.6607 13.1078 -1.44848e-17)
(49.658 13.0802 1.5487e-17)
(49.6551 13.0741 8.42562e-18)
(49.6519 13.061 8.98829e-18)
(49.6508 13.0315 -1.42439e-18)
(49.663 13.1076 0)
(49.6637 13.1176 -9.70748e-17)
(49.6573 13.0892 1.50881e-17)
(49.6543 13.0827 2.50624e-17)
(49.6483 13.0702 2.67073e-17)
(49.6375 13.0537 -2.29423e-18)
(49.6262 13.0435 0)
(49.654 13.0516 1.90795e-17)
(49.6645 13.1165 1.32677e-16)
(49.6656 13.1272 1.10688e-16)
(49.6573 13.0987 -6.22439e-17)
(49.6532 13.0914 -1.32885e-16)
(49.6458 13.0793 -7.14969e-17)
(49.6352 13.0637 9.49986e-18)
(49.6241 13.0477 -2.56596e-18)
(49.6077 13.0356 1.54379e-21)
(49.6562 13.0703 -1.35024e-16)
(49.6657 13.1258 -1.32719e-16)
(49.6671 13.1368 -5.63031e-17)
(49.6575 13.1085 4.64313e-17)
(49.6521 13.1002 -1.69311e-17)
(49.6438 13.0885 5.38825e-17)
(49.6326 13.0732 -9.81494e-18)
(49.6205 13.0578 0)
(49.6057 13.0401 0)
(49.5883 13.0277 0)
(49.6578 13.0876 2.0367e-17)
(49.6666 13.1352 0)
(49.6681 13.1462 2.76411e-17)
(49.6576 13.1183 2.9914e-17)
(49.6511 13.1091 -5.00566e-17)
(49.642 13.0977 -5.37944e-17)
(49.6302 13.0827 -9.60658e-17)
(49.6172 13.0674 -2.07753e-17)
(49.6023 13.0508 0)
(49.586 13.0324 -2.42527e-17)
(49.5661 13.0191 -2.92334e-20)
(49.659 13.1036 -2.6678e-16)
(49.6671 13.1445 0)
(49.6689 13.1555 0)
(49.6577 13.1281 -1.23905e-16)
(49.6501 13.1181 1.49577e-16)
(49.6403 13.1069 8.94305e-17)
(49.6279 13.0922 7.69976e-17)
(49.6143 13.0772 -4.15476e-17)
(49.5988 13.0609 -1.10182e-17)
(49.5821 13.0433 3.64892e-17)
(49.5637 13.024 -2.94947e-17)
(49.5424 13.0101 2.65866e-20)
(49.6601 13.1186 2.14608e-16)
(49.6675 13.1536 0)
(49.6694 13.1645 -1.92392e-16)
(49.6577 13.1379 9.24956e-17)
(49.6492 13.1271 0)
(49.6388 13.1161 1.24982e-16)
(49.6258 13.1016 -1.89112e-17)
(49.6115 13.0869 8.29075e-17)
(49.5956 13.071 0)
(49.5783 13.0537 6.0604e-17)
(49.5597 13.0354 1.3249e-17)
(49.5397 13.0153 7.06059e-18)
(49.5167 13.0007 0)
(49.6611 13.1325 -4.1779e-17)
(49.6676 13.1625 5.80062e-17)
(49.6697 13.1733 -2.89995e-17)
(49.6576 13.1474 -2.9909e-17)
(49.6483 13.1361 3.27593e-17)
(49.6374 13.1253 -2.0706e-21)
(49.6238 13.111 1.53807e-16)
(49.6089 13.0965 -2.10783e-17)
(49.5926 13.081 -8.93686e-17)
(49.5748 13.0642 2.18615e-20)
(49.5557 13.0462 5.25468e-17)
(49.5355 13.0271 0)
(49.5139 13.0061 -3.74336e-18)
(49.4894 12.991 0)
(49.662 13.1453 -2.66572e-16)
(49.6676 13.1711 0)
(49.6698 13.1818 1.93215e-16)
(49.6574 13.1568 2.99564e-17)
(49.6474 13.145 0)
(49.636 13.1344 -2.85163e-16)
(49.6219 13.1204 -1.53799e-16)
(49.6065 13.1062 2.10678e-17)
(49.5897 13.091 1.11228e-16)
(49.5715 13.0746 -7.26662e-17)
(49.552 13.0571 1.55666e-20)
(49.5313 13.0384 -7.001e-17)
(49.5096 13.0185 7.73485e-18)
(49.4865 12.9966 2.06324e-17)
(49.4606 12.9809 -3.96945e-20)
(49.663 13.1574 -5.24408e-17)
(49.6676 13.1794 -5.438e-17)
(49.6699 13.1901 2.88794e-17)
(49.6571 13.166 6.15558e-17)
(49.6466 13.1539 0)
(49.6347 13.1434 4.05306e-20)
(49.6201 13.1297 0)
(49.6043 13.1157 -1.656e-16)
(49.587 13.101 -8.84553e-17)
(49.5683 13.085 2.44822e-17)
(49.5484 13.068 -1.43435e-16)
(49.5274 13.0497 1.26434e-16)
(49.5052 13.0302 4.51975e-17)
(49.482 13.0095 -1.61028e-17)
(49.4576 12.9868 -8.88474e-18)
(49.4303 12.9705 4.39913e-20)
(49.6639 13.1687 2.68133e-16)
(49.6675 13.1874 2.25945e-16)
(49.6698 13.198 5.66501e-17)
(49.6568 13.1749 -3.00878e-17)
(49.6457 13.1626 -3.28661e-17)
(49.6334 13.1523 1.79168e-16)
(49.6185 13.1389 -3.91193e-17)
(49.6021 13.1252 8.66322e-20)
(49.5845 13.1108 1.11867e-16)
(49.5654 13.0953 7.24649e-17)
(49.5451 13.0787 7.8219e-17)
(49.5236 13.061 -4.22259e-17)
(49.5011 13.042 -1.20482e-16)
(49.4774 13.0217 7.75523e-18)
(49.4529 13.0003 -8.70326e-18)
(49.4271 12.9768 4.71235e-18)
(49.3984 12.9598 -4.63145e-20)
(49.665 13.1792 -2.24339e-16)
(49.6674 13.195 -2.22956e-16)
(49.6697 13.2056 1.15122e-16)
(49.6565 13.1835 -3.16714e-17)
(49.6449 13.1712 2.67453e-16)
(49.6322 13.161 1.42947e-16)
(49.6169 13.1481 -2.30884e-16)
(49.6001 13.1347 2.06464e-16)
(49.5821 13.1206 -1.7824e-16)
(49.5626 13.1055 -1.44191e-16)
(49.5419 13.0894 2.63665e-17)
(49.5201 13.0722 -8.33512e-17)
(49.4971 13.0537 7.57851e-17)
(49.4732 13.034 -1.60529e-17)
(49.4482 13.013 2.66707e-17)
(49.4223 12.9907 0)
(49.3951 12.9664 1.54436e-17)
(49.3652 12.9488 5.13299e-20)
(49.6661 13.1891 2.7929e-16)
(49.6673 13.2024 0)
(49.6696 13.2129 5.83629e-17)
(49.6561 13.1919 -2.7861e-16)
(49.644 13.1796 -2.69175e-16)
(49.6311 13.1697 -1.79668e-16)
(49.6154 13.1571 3.08092e-16)
(49.5983 13.144 -1.34701e-18)
(49.5798 13.1303 1.7013e-19)
(49.56 13.1157 0)
(49.539 13.1 2.54732e-17)
(49.5167 13.0833 8.4278e-17)
(49.4934 13.0654 -4.50158e-17)
(49.4691 13.0462 -6.45937e-17)
(49.4437 13.0258 0)
(49.4174 13.004 -3.70851e-20)
(49.3903 12.9809 -1.01308e-17)
(49.3617 12.9557 5.7118e-18)
(49.3305 12.9375 -5.40794e-20)
(49.6672 13.1983 -3.50963e-16)
(49.6673 13.2095 1.67731e-16)
(49.6694 13.2199 0)
(49.6558 13.2 4.40246e-16)
(49.6432 13.1878 -3.30934e-17)
(49.63 13.1782 7.18972e-17)
(49.614 13.166 3.77707e-17)
(49.5965 13.1532 0)
(49.5777 13.14 2.2243e-16)
(49.5575 13.1257 -1.91981e-16)
(49.5361 13.1105 0)
(49.5136 13.0943 -1.11569e-16)
(49.4899 13.0769 0)
(49.4652 13.0584 9.76603e-17)
(49.4395 13.0385 3.51214e-17)
(49.4128 13.0174 -1.14145e-16)
(49.3852 12.9948 7.19329e-17)
(49.3568 12.9709 -2.21256e-17)
(49.3269 12.9447 -3.01529e-17)
(49.2944 12.9259 -2.09884e-21)
(49.6683 13.2069 4.9703e-16)
(49.6673 13.2163 -2.3105e-16)
(49.6692 13.2266 0)
(49.6554 13.2078 6.36675e-17)
(49.6425 13.1958 0)
(49.6289 13.1865 -3.65484e-17)
(49.6126 13.1747 -1.53344e-16)
(49.5948 13.1623 1.65915e-16)
(49.5757 13.1495 0)
(49.5552 13.1357 1.92263e-16)
(49.5335 13.121 0)
(49.5106 13.1052 8.32387e-17)
(49.4866 13.0884 -3.06336e-17)
(49.4616 13.0704 3.30852e-17)
(49.4355 13.0512 -1.57718e-16)
(49.4084 13.0306 1.87182e-17)
(49.3804 13.0087 -6.20371e-17)
(49.3515 12.9853 5.58187e-17)
(49.3219 12.9606 -2.29527e-19)
(49.2907 12.9335 1.97537e-17)
(49.2569 12.914 1.2408e-19)
(49.6696 13.215 -4.05565e-16)
(49.6673 13.2228 -5.16158e-16)
(49.6691 13.233 -2.88427e-16)
(49.6551 13.2154 -2.64973e-19)
(49.6418 13.2037 -3.23257e-17)
(49.6279 13.1947 0)
(49.6114 13.1833 7.7419e-17)
(49.5933 13.1713 -2.07297e-16)
(49.5739 13.1589 0)
(49.5531 13.1456 0)
(49.531 13.1313 -2.06786e-16)
(49.5078 13.1161 2.83722e-17)
(49.4835 13.0998 -9.06116e-17)
(49.4581 13.0824 6.49736e-17)
(49.4317 13.0637 3.56794e-17)
(49.4043 13.0438 9.51458e-17)
(49.3759 13.0225 0)
(49.3466 12.9999 -2.25858e-17)
(49.3164 12.9756 4.8081e-17)
(49.2855 12.95 1.28091e-17)
(49.253 12.922 -1.38934e-17)
(49.2179 12.9018 6.65776e-21)
(49.6708 13.2227 4.53927e-16)
(49.6675 13.229 9.81878e-16)
(49.6689 13.2392 -8.16898e-19)
(49.6548 13.2227 -2.53238e-16)
(49.6411 13.2113 3.05594e-16)
(49.627 13.2026 2.16464e-16)
(49.6102 13.1918 0)
(49.5918 13.1802 1.25326e-16)
(49.5721 13.1682 0)
(49.5511 13.1554 1.43197e-16)
(49.5287 13.1416 4.13966e-16)
(49.5052 13.1269 0)
(49.4806 13.1111 9.07423e-17)
(49.4549 13.0943 0)
(49.4281 13.0762 -1.74425e-16)
(49.4004 13.0569 0)
(49.3717 13.0363 -2.01191e-17)
(49.342 13.0143 0)
(49.3114 12.9908 -6.01965e-17)
(49.2799 12.9657 -1.32418e-17)
(49.2477 12.9392 0)
(49.2139 12.9102 -7.79252e-18)
(49.1774 12.8893 -7.11686e-20)
(49.6721 13.2298 8.74807e-18)
(49.6677 13.235 -9.31458e-16)
(49.6688 13.2451 1.73519e-16)
(49.6546 13.2297 6.19469e-17)
(49.6405 13.2188 -2.72538e-16)
(49.6261 13.2105 -3.25971e-16)
(49.6091 13.2001 -2.72133e-16)
(49.5905 13.1889 -3.33516e-16)
(49.5705 13.1774 0)
(49.5492 13.165 -1.92657e-16)
(49.5266 13.1518 -3.63179e-16)
(49.5028 13.1376 2.22777e-16)
(49.4779 13.1224 0)
(49.4518 13.1061 1.29518e-16)
(49.4248 13.0886 1.75682e-16)
(49.3967 13.0699 0)
(49.3676 13.05 8.16624e-17)
(49.3376 13.0286 1.10865e-16)
(49.3066 13.0058 2.43774e-17)
(49.2748 12.9815 1.27357e-17)
(49.2419 12.9556 -5.11924e-19)
(49.2085 12.9281 0)
(49.1732 12.8982 -1.68389e-17)
(49.1355 12.8764 -7.98438e-20)
(49.6735 13.2365 5.00912e-16)
(49.6679 13.2407 4.66143e-16)
(49.6687 13.2508 -2.94379e-16)
(49.6544 13.2365 0)
(49.64 13.226 6.92002e-17)
(49.6253 13.2181 3.69235e-17)
(49.6081 13.2082 3.11808e-16)
(49.5892 13.1976 4.58496e-16)
(49.569 13.1865 0)
(49.5474 13.1746 -1.92403e-16)
(49.5246 13.1618 2.07438e-16)
(49.5005 13.1482 -2.88714e-17)
(49.4753 13.1335 0)
(49.449 13.1178 -1.29713e-16)
(49.4216 13.1009 0)
(49.3932 13.0829 -3.71306e-17)
(49.3638 13.0635 -6.08873e-17)
(49.3334 13.0429 -8.83097e-17)
(49.3021 13.0208 -2.34682e-17)
(49.2698 12.9972 -9.02573e-17)
(49.2367 12.972 0)
(49.2025 12.9452 1.4922e-17)
(49.1677 12.9168 1.64797e-17)
(49.1311 12.8858 1.79012e-17)
(49.092 12.8633 -3.13895e-21)
(49.6748 13.2428 5.32968e-17)
(49.6683 13.2462 0)
(49.6687 13.2562 5.87033e-16)
(49.6543 13.2431 6.25893e-17)
(49.6395 13.233 0)
(49.6246 13.2256 1.82359e-16)
(49.6072 13.2162 -7.81379e-17)
(49.5881 13.206 -3.3526e-16)
(49.5676 13.1954 4.42339e-17)
(49.5458 13.1841 3.85716e-16)
(49.5227 13.1718 0)
(49.4984 13.1587 -2.51822e-16)
(49.4729 13.1446 -2.10508e-16)
(49.4463 13.1294 0)
(49.4187 13.1131 -3.55741e-17)
(49.39 13.0957 0)
(49.3603 13.077 0)
(49.3295 13.057 6.63792e-17)
(49.2979 13.0356 9.5247e-17)
(49.2652 13.0128 1.54735e-16)
(49.2316 12.9884 2.79663e-17)
(49.1971 12.9624 0)
(49.1616 12.9346 -1.67362e-17)
(49.1255 12.9052 -4.47078e-17)
(49.0875 12.8732 -9.50342e-18)
(49.0469 12.8499 -3.39833e-21)
(49.6762 13.2487 -9.07282e-16)
(49.6687 13.2515 -6.0767e-17)
(49.6687 13.2614 -1.69319e-19)
(49.6542 13.2494 3.85403e-16)
(49.6391 13.2399 0)
(49.6239 13.2328 -2.55974e-16)
(49.6063 13.224 3.51307e-16)
(49.587 13.2144 3.76441e-16)
(49.5664 13.2043 0)
(49.5443 13.1934 -1.93407e-16)
(49.521 13.1817 -2.60064e-16)
(49.4964 13.1691 5.67932e-17)
(49.4707 13.1555 2.70345e-16)
(49.4439 13.1409 3.29659e-17)
(49.4159 13.1253 3.55599e-17)
(49.3869 13.1085 7.54659e-17)
(49.3569 13.0904 1.21219e-16)
(49.3259 13.0711 -2.41517e-16)
(49.2938 13.0504 -1.66102e-16)
(49.2608 13.0283 -1.66422e-19)
(49.2268 13.0046 0)
(49.1919 12.9794 4.55271e-17)
(49.1561 12.9525 -8.21322e-17)
(49.1192 12.9237 5.29777e-17)
(49.0817 12.8933 -2.90649e-17)
(49.0423 12.8602 -1.57963e-17)
(49.0003 12.8361 1.98247e-19)
(49.6776 13.2543 2.65369e-18)
(49.6691 13.2566 4.1684e-16)
(49.6687 13.2665 -9.55866e-16)
(49.6541 13.2555 -2.58858e-16)
(49.6387 13.2465 2.0819e-16)
(49.6234 13.2399 0)
(49.6056 13.2317 -3.93067e-16)
(49.586 13.2225 -1.01423e-18)
(49.5652 13.2129 0)
(49.5429 13.2026 0)
(49.5194 13.1914 2.60981e-16)
(49.4946 13.1794 5.50123e-17)
(49.4687 13.1664 1.81019e-16)
(49.4416 13.1524 3.29704e-17)
(49.4134 13.1373 1.19243e-18)
(49.3841 13.1211 -3.70658e-17)
(49.3538 13.1037 -4.03998e-17)
(49.3224 13.0851 6.5999e-17)
(49.2901 13.0651 7.17796e-17)
(49.2567 13.0437 -1.28174e-16)
(49.2223 13.0208 -8.284e-17)
(49.187 12.9963 -6.0308e-17)
(49.1507 12.9702 4.87079e-17)
(49.1135 12.9424 -5.33746e-17)
(49.0753 12.9127 3.84298e-17)
(49.0364 12.8812 1.04278e-17)
(48.9954 12.847 5.56092e-18)
(48.952 12.8219 -2.14379e-19)
(49.679 13.2595 4.62012e-16)
(49.6696 13.2614 -4.81699e-16)
(49.6688 13.2713 6.19148e-17)
(49.6541 13.2614 -6.59621e-17)
(49.6385 13.253 -2.07944e-16)
(49.6229 13.2469 7.48056e-17)
(49.6049 13.2392 0)
(49.5852 13.2306 -5.90123e-16)
(49.5641 13.2215 0)
(49.5417 13.2117 -1.44206e-16)
(49.5179 13.201 -5.29011e-17)
(49.493 13.1895 -5.50723e-17)
(49.4668 13.1771 -5.12095e-16)
(49.4395 13.1637 0)
(49.411 13.1493 -3.4367e-17)
(49.3815 13.1337 -3.70611e-17)
(49.3509 13.117 -1.62876e-16)
(49.3192 13.099 1.75904e-16)
(49.2866 13.0797 -2.33345e-17)
(49.2528 13.059 2.61488e-17)
(49.2181 13.0368 2.50481e-16)
(49.1824 13.0132 5.99733e-17)
(49.1457 12.9879 6.50935e-17)
(49.108 12.9608 1.76559e-16)
(49.0694 12.932 -5.70163e-17)
(49.0297 12.9013 0)
(48.9894 12.8688 0)
(48.9469 12.8334 -1.22455e-17)
(48.902 12.8075 -1.1874e-19)
(49.6805 13.2644 4.0389e-16)
(49.6702 13.2661 0)
(49.669 13.2759 4.84777e-16)
(49.6542 13.267 -5.85277e-16)
(49.6382 13.2592 -1.80491e-18)
(49.6224 13.2536 1.83167e-18)
(49.6043 13.2465 -1.18102e-16)
(49.5844 13.2385 4.41115e-17)
(49.5632 13.2299 -9.06126e-17)
(49.5406 13.2206 6.31416e-16)
(49.5166 13.2105 1.03755e-16)
(49.4915 13.1996 5.51443e-17)
(49.4651 13.1878 2.41366e-16)
(49.4375 13.175 6.4914e-17)
(49.4088 13.1611 0)
(49.3791 13.1462 3.83568e-17)
(49.3482 13.1301 4.13969e-17)
(49.3163 13.1128 0)
(49.2833 13.0942 0)
(49.2492 13.0742 -1.28543e-16)
(49.2142 13.0528 -2.49115e-16)
(49.1781 13.0299 -3.00205e-16)
(49.141 13.0054 -1.63016e-16)
(49.1029 12.9792 -1.17384e-19)
(49.0638 12.9513 5.76568e-17)
(49.0237 12.9215 7.62516e-19)
(48.9826 12.8897 0)
(48.9408 12.8561 -2.31992e-19)
(48.8968 12.8195 0)
(48.8502 12.7926 -9.29845e-21)
(49.6819 13.2691 4.69677e-17)
(49.6708 13.2706 -4.24907e-16)
(49.6691 13.2804 6.21372e-17)
(49.6543 13.2725 5.25429e-16)
(49.6381 13.2653 3.50716e-16)
(49.6221 13.2602 -1.47932e-16)
(49.6038 13.2537 -7.82663e-17)
(49.5838 13.2462 4.30878e-17)
(49.5624 13.2382 -9.08386e-17)
(49.5396 13.2295 -7.30276e-16)
(49.5155 13.2199 -1.05284e-16)
(49.4901 13.2096 5.52278e-17)
(49.4635 13.1983 0)
(49.4358 13.1861 3.30216e-17)
(49.4069 13.1729 -3.13571e-16)
(49.3768 13.1586 -3.83631e-17)
(49.3457 13.1431 1.63757e-16)
(49.3135 13.1265 -2.18417e-16)
(49.2802 13.1086 -2.37595e-16)
(49.2459 13.0894 1.02588e-16)
(49.2105 13.0687 1.38154e-16)
(49.174 13.0466 1.2001e-16)
(49.1365 13.0229 1.61796e-16)
(49.098 12.9975 -1.58468e-16)
(49.0585 12.9705 7.60992e-17)
(49.0179 12.9416 0)
(48.9764 12.9108 4.55886e-17)
(48.9337 12.8779 -6.09784e-17)
(48.8904 12.8431 1.29676e-17)
(48.8448 12.8053 -1.4335e-17)
(48.7967 12.7774 2.6607e-19)
(49.6833 13.2734 -4.67267e-16)
(49.6715 13.2749 4.91254e-16)
(49.6694 13.2847 -4.90622e-16)
(49.6544 13.2778 -1.31669e-16)
(49.638 13.2712 -2.10928e-16)
(49.6218 13.2667 2.25245e-16)
(49.6034 13.2607 -7.85622e-17)
(49.5832 13.2538 1.36688e-18)
(49.5616 13.2464 3.63265e-16)
(49.5387 13.2382 8.28004e-16)
(49.5144 13.2292 -2.6277e-16)
(49.4889 13.2194 -1.68892e-16)
(49.4621 13.2087 0)
(49.4342 13.1971 -3.30512e-17)
(49.405 13.1845 2.45937e-16)
(49.3748 13.1709 3.01043e-16)
(49.3434 13.1561 -1.22907e-16)
(49.3109 13.1401 2.09966e-18)
(49.2774 13.1229 1.89796e-16)
(49.2427 13.1044 5.03278e-17)
(49.207 13.0845 0)
(49.1702 13.0631 1.50062e-16)
(49.1324 13.0402 0)
(49.0935 13.0157 7.02225e-17)
(49.0535 12.9895 3.78812e-17)
(49.0125 12.9615 8.22931e-17)
(48.9704 12.9316 -1.56702e-16)
(48.9274 12.8998 2.46862e-17)
(48.8832 12.8658 -4.86038e-19)
(48.8383 12.8298 2.88466e-17)
(48.7911 12.7908 -7.90894e-18)
(48.7413 12.7618 0)
(49.6848 13.2775 0)
(49.6722 13.279 0)
(49.6696 13.2888 4.95132e-16)
(49.6546 13.2829 0)
(49.638 13.277 1.41252e-16)
(49.6216 13.2729 -7.42237e-17)
(49.6031 13.2676 -4.0515e-17)
(49.5827 13.2613 1.45979e-18)
(49.561 13.2544 -6.83709e-16)
(49.5379 13.2468 -1.69254e-18)
(49.5135 13.2384 5.3264e-17)
(49.4878 13.2292 5.63752e-17)
(49.4609 13.2191 -2.41349e-16)
(49.4327 13.2081 -3.30859e-17)
(49.4034 13.1961 3.13982e-16)
(49.3729 13.1831 -6.0351e-16)
(49.3413 13.1689 -4.14061e-17)
(49.3086 13.1536 2.20489e-16)
(49.2748 13.1371 1.66513e-18)
(49.2398 13.1193 -2.60599e-17)
(49.2038 13.1002 2.81684e-17)
(49.1667 13.0796 -1.19762e-16)
(49.1285 13.0575 1.17009e-18)
(49.0892 13.0338 -1.75579e-16)
(49.0488 13.0084 -7.59281e-17)
(49.0074 12.9813 -1.84536e-16)
(48.9649 12.9524 8.91671e-17)
(48.9213 12.9215 2.37306e-17)
(48.8767 12.8885 1.33579e-17)
(48.8309 12.8534 7.08406e-17)
(48.7844 12.8162 -1.51803e-17)
(48.7355 12.7759 8.24657e-18)
(48.684 12.7459 0)
(49.6862 13.2814 5.2588e-16)
(49.673 13.2829 -6.10668e-17)
(49.6699 13.2927 -4.97236e-16)
(49.6549 13.2878 0)
(49.6381 13.2825 -7.18462e-17)
(49.6215 13.2791 -7.45516e-17)
(49.6028 13.2743 0)
(49.5823 13.2686 4.28911e-16)
(49.5605 13.2622 1.67298e-18)
(49.5373 13.2552 -8.32129e-16)
(49.5127 13.2474 0)
(49.4869 13.2388 1.70449e-16)
(49.4598 13.2293 1.81181e-16)
(49.4314 13.2189 0)
(49.4019 13.2075 -5.61895e-16)
(49.3713 13.1951 1.22386e-18)
(49.3394 13.1817 4.1425e-17)
(49.3065 13.1671 2.18388e-16)
(49.2724 13.1513 -4.65786e-17)
(49.2372 13.1342 1.81007e-18)
(49.2009 13.1158 -2.21708e-16)
(49.1634 13.096 -2.93656e-17)
(49.1249 13.0747 0)
(49.0852 13.0518 -3.39938e-17)
(49.0444 13.0273 -1.14043e-16)
(49.0026 13.0011 1.87051e-19)
(48.9596 12.973 0)
(48.9156 12.9431 -1.20816e-16)
(48.8704 12.9111 0)
(48.8242 12.8771 -1.41783e-16)
(48.7768 12.8407 1.56881e-17)
(48.7287 12.8023 -5.04567e-17)
(48.678 12.7606 9.25834e-18)
(48.6248 12.7295 3.48951e-19)
(49.6876 13.285 -4.79675e-16)
(49.6738 13.2867 -1.24481e-16)
(49.6703 13.2966 1.06645e-15)
(49.6552 13.2925 -6.79253e-17)
(49.6382 13.288 -7.21714e-17)
(49.6214 13.285 3.76745e-16)
(49.6026 13.2809 -4.08112e-17)
(49.5821 13.2757 0)
(49.5601 13.27 3.69428e-16)
(49.5368 13.2636 3.9393e-16)
(49.5121 13.2563 0)
(49.4861 13.2483 -2.82809e-16)
(49.4588 13.2394 0)
(49.4303 13.2296 6.42115e-17)
(49.4006 13.2189 2.81327e-16)
(49.3698 13.2071 3.40103e-16)
(49.3378 13.1943 0)
(49.3046 13.1804 -2.19158e-16)
(49.2702 13.1653 -1.89138e-16)
(49.2348 13.1489 -2.04221e-16)
(49.1981 13.1313 3.87697e-16)
(49.1604 13.1122 -1.0702e-18)
(49.1215 13.0917 0)
(49.0815 13.0697 1.75512e-16)
(49.0404 13.046 1.51415e-16)
(48.9981 13.0207 8.19728e-17)
(48.9547 12.9936 2.26e-17)
(48.9102 12.9646 1.92239e-16)
(48.8645 12.9336 2.55999e-17)
(48.8177 12.9005 1.00075e-19)
(48.7699 12.8653 4.63319e-17)
(48.7208 12.8278 -1.63104e-17)
(48.671 12.788 1.77701e-17)
(48.6186 12.745 -9.65504e-18)
(48.5635 12.7127 -3.63603e-19)
(49.689 13.2884 -1.11472e-16)
(49.6747 13.2903 6.26595e-16)
(49.6707 13.3002 -4.41782e-16)
(49.6556 13.2971 5.37296e-16)
(49.6384 13.2932 7.08137e-17)
(49.6214 13.2908 -2.2944e-16)
(49.6026 13.2873 -8.19421e-17)
(49.5819 13.2828 -1.18163e-18)
(49.5598 13.2776 0)
(49.5363 13.2718 -9.86162e-17)
(49.5115 13.2651 5.36256e-17)
(49.4854 13.2577 5.10398e-16)
(49.458 13.2494 5.98658e-17)
(49.4294 13.2402 0)
(49.3995 13.2301 0)
(49.3685 13.219 0)
(49.3363 13.2069 0)
(49.3029 13.1936 0)
(49.2683 13.1792 3.79149e-16)
(49.2326 13.1636 2.05021e-16)
(49.1957 13.1467 -2.21388e-16)
(49.1576 13.1284 0)
(49.1184 13.1087 1.60566e-16)
(49.0781 13.0875 -1.39373e-16)
(49.0366 13.0647 -3.71082e-17)
(48.9939 13.0402 -4.16584e-17)
(48.9501 13.014 2.2559e-17)
(48.9051 12.9859 -2.15404e-16)
(48.859 12.9559 0)
(48.8117 12.9239 5.64262e-17)
(48.7633 12.8897 6.10968e-17)
(48.7137 12.8533 -8.26141e-17)
(48.6629 12.8145 1.83615e-17)
(48.6114 12.7734 9.97287e-18)
(48.5571 12.729 0)
(48.5002 12.6955 -4.07741e-19)
(49.6904 13.2916 0)
(49.6756 13.2938 -4.43329e-16)
(49.6711 13.3038 4.42918e-16)
(49.656 13.3015 -5.42866e-16)
(49.6387 13.2983 -5.75532e-16)
(49.6215 13.2965 0)
(49.6026 13.2936 8.22847e-17)
(49.5818 13.2896 4.74595e-16)
(49.5596 13.2851 -3.23057e-16)
(49.536 13.2798 0)
(49.5111 13.2738 -1.59801e-18)
(49.4849 13.2669 -2.83461e-16)
(49.4573 13.2593 1.93668e-18)
(49.4286 13.2507 1.94539e-16)
(49.3986 13.2412 0)
(49.3674 13.2308 -2.63721e-16)
(49.3349 13.2193 3.25598e-16)
(49.3013 13.2068 1.75483e-16)
(49.2665 13.1931 -1.90093e-16)
(49.2306 13.1782 0)
(49.1934 13.162 -5.62834e-17)
(49.1551 13.1445 -2.07886e-16)
(49.1156 13.1256 -9.63832e-17)
(49.0749 13.1052 1.042e-16)
(49.0331 13.0832 -1.12215e-16)
(48.99 13.0596 0)
(48.9458 13.0343 -1.33129e-16)
(48.9004 13.0072 1.12703e-18)
(48.8538 12.9782 2.64373e-17)
(48.806 12.9472 -1.1234e-16)
(48.757 12.914 -1.21957e-16)
(48.7069 12.8787 6.62142e-17)
(48.6556 12.8411 1.76352e-17)
(48.603 12.801 -9.70433e-17)
(48.5497 12.7585 -1.03998e-17)
(48.4936 12.7127 0)
(48.4348 12.6779 8.65421e-19)
(49.6918 13.2946 -5.37323e-17)
(49.6765 13.2972 0)
(49.6716 13.3072 -9.59144e-16)
(49.6564 13.3058 -5.43091e-16)
(49.639 13.3033 5.8155e-16)
(49.6217 13.302 0)
(49.6026 13.2997 0)
(49.5817 13.2964 -3.90228e-16)
(49.5595 13.2924 2.79164e-16)
(49.5358 13.2878 5.0327e-17)
(49.5108 13.2823 0)
(49.4845 13.2761 5.09828e-16)
(49.4568 13.269 0)
(49.4279 13.2611 -6.55798e-16)
(49.3978 13.2523 6.94014e-17)
(49.3664 13.2425 -3.70658e-17)
(49.3338 13.2317 -4.17884e-17)
(49.3 13.2198 -5.27731e-16)
(49.265 13.2068 1.89393e-16)
(49.2288 13.1926 1.52203e-16)
(49.1914 13.1772 -5.62998e-17)
(49.1528 13.1605 5.36208e-16)
(49.113 13.1423 -3.1699e-17)
(49.072 13.1228 -6.97865e-17)
(49.0298 13.1017 3.75667e-17)
(48.9864 13.0789 -4.00842e-17)
(48.9418 13.0545 5.35357e-19)
(48.896 13.0283 1.91212e-16)
(48.8489 13.0003 -2.54395e-17)
(48.8007 12.9703 1.96882e-16)
(48.7512 12.9382 6.08963e-17)
(48.7005 12.904 -6.58955e-17)
(48.6486 12.8674 0)
(48.5955 12.8286 7.77345e-17)
(48.5411 12.7871 0)
(48.4859 12.7432 0)
(48.4279 12.6959 0)
(48.3672 12.6598 -4.66426e-19)
(49.6931 13.2974 -4.24095e-16)
(49.6774 13.3004 0)
(49.6721 13.3105 5.82121e-16)
(49.6569 13.3099 4.81564e-16)
(49.6394 13.3081 -5.0774e-16)
(49.6219 13.3074 7.80162e-17)
(49.6028 13.3057 3.26496e-16)
(49.5818 13.303 0)
(49.5595 13.2996 -4.59359e-17)
(49.5357 13.2956 4.90592e-17)
(49.5106 13.2907 3.1797e-16)
(49.4842 13.2851 -4.57555e-16)
(49.4565 13.2787 -2.44036e-16)
(49.4274 13.2714 -6.53562e-17)
(49.3972 13.2632 3.51269e-16)
(49.3656 13.2541 2.66067e-16)
(49.3329 13.2439 -2.87798e-16)
(49.2989 13.2327 3.53385e-16)
(49.2637 13.2205 -9.13294e-19)
(49.2273 13.207 -2.05426e-16)
(49.1896 13.1923 5.43687e-17)
(49.1508 13.1763 -1.80637e-16)
(49.1107 13.159 -2.57479e-16)
(49.0694 13.1403 1.03631e-16)
(49.0269 13.12 -8.13923e-19)
(48.9831 13.0981 -1.62764e-16)
(48.9381 13.0746 1.3176e-16)
(48.8919 13.0494 9.50463e-17)
(48.8444 13.0223 -1.03255e-16)
(48.7957 12.9933 -1.12166e-16)
(48.7457 12.9623 0)
(48.6945 12.9291 1.31597e-16)
(48.642 12.8937 -1.81823e-17)
(48.5883 12.8559 0)
(48.5334 12.8157 0)
(48.4771 12.7729 2.32421e-17)
(48.42 12.7275 -2.47539e-17)
(48.36 12.6787 -6.85746e-18)
(48.2973 12.6412 0)
(49.6944 13.3001 4.85014e-16)
(49.6784 13.3034 0)
(49.6726 13.3137 -5.83739e-16)
(49.6574 13.3139 -6.80642e-17)
(49.6398 13.3128 1.17215e-15)
(49.6222 13.3126 -7.67602e-17)
(49.603 13.3116 -7.39213e-16)
(49.582 13.3095 3.49255e-16)
(49.5596 13.3067 3.72521e-16)
(49.5358 13.3033 -5.06507e-17)
(49.5106 13.299 -4.8257e-16)
(49.4841 13.294 -3.41647e-16)
(49.4562 13.2882 3.08428e-16)
(49.4271 13.2815 1.97201e-16)
(49.3967 13.274 -4.96462e-16)
(49.365 13.2655 0)
(49.3321 13.2561 4.03088e-17)
(49.298 13.2456 0)
(49.2626 13.234 4.74612e-17)
(49.226 13.2213 0)
(49.1881 13.2073 0)
(49.149 13.1921 6.08537e-17)
(49.1086 13.1756 2.91482e-16)
(49.067 13.1577 -4.53494e-16)
(49.0242 13.1382 1.49638e-16)
(48.9801 13.1173 1.61796e-16)
(48.9347 13.0947 4.49184e-17)
(48.8881 13.0703 -1.44237e-16)
(48.8402 13.0442 1.03436e-16)
(48.791 13.0162 0)
(48.7405 12.9862 3.08732e-17)
(48.6888 12.9541 -1.96876e-16)
(48.6358 12.9198 -1.81353e-17)
(48.5815 12.8832 1.15734e-16)
(48.5259 12.8442 -8.36606e-17)
(48.4691 12.8026 -6.85555e-17)
(48.4109 12.7584 1.30193e-17)
(48.3519 12.7115 -1.36518e-17)
(48.2899 12.6611 1.4568e-17)
(48.2252 12.6222 0)
(49.6957 13.3025 0)
(49.6794 13.3063 -4.52278e-16)
(49.6732 13.3167 5.24439e-16)
(49.658 13.3177 -4.13728e-16)
(49.6403 13.3173 -5.91152e-16)
(49.6226 13.3178 -6.99778e-16)
(49.6033 13.3173 2.47815e-16)
(49.5822 13.3158 -3.52951e-16)
(49.5597 13.3137 -3.76322e-16)
(49.5359 13.3108 0)
(49.5106 13.3072 5.2815e-17)
(49.484 13.3028 9.74182e-16)
(49.4561 13.2976 -6.05939e-17)
(49.4269 13.2916 -1.32135e-16)
(49.3964 13.2847 6.37172e-16)
(49.3646 13.2769 3.87978e-17)
(49.3315 13.2681 0)
(49.2972 13.2583 0)
(49.2617 13.2474 4.74732e-17)
(49.2248 13.2354 -2.55313e-16)
(49.1868 13.2222 2.20978e-16)
(49.1474 13.2078 -6.08925e-17)
(49.1068 13.1921 -6.34512e-17)
(49.0649 13.175 2.45242e-16)
(49.0218 13.1564 3.70304e-17)
(48.9773 13.1363 -1.47879e-18)
(48.9316 13.1146 4.32929e-17)
(48.8846 13.0912 -9.54182e-17)
(48.8363 13.066 -2.62894e-17)
(48.7867 13.039 -1.11527e-16)
(48.7358 13.01 0)
(48.6835 12.9789 1.56032e-18)
(48.63 12.9457 3.6192e-17)
(48.5751 12.9103 1.87314e-17)
(48.5189 12.8724 6.30774e-17)
(48.4615 12.8321 4.53373e-17)
(48.4027 12.7892 3.66706e-17)
(48.3425 12.7435 -6.64249e-17)
(48.2815 12.6951 4.62955e-20)
(48.2175 12.6431 -1.57531e-17)
(48.1507 12.6026 0)
(49.697 13.3049 -4.24907e-16)
(49.6804 13.3091 1.04228e-15)
(49.6738 13.3197 -1.33225e-16)
(49.6586 13.3214 5.59237e-16)
(49.6408 13.3217 -7.31786e-17)
(49.623 13.3228 1.25244e-15)
(49.6037 13.3229 -2.48788e-16)
(49.5826 13.3221 4.25114e-17)
(49.56 13.3205 -4.23091e-16)
(49.5361 13.3183 0)
(49.5108 13.3153 4.28421e-16)
(49.4841 13.3115 -4.61738e-16)
(49.4561 13.3069 0)
(49.4268 13.3015 0)
(49.3962 13.2953 -1.42912e-16)
(49.3643 13.2881 3.04728e-16)
(49.3311 13.28 -3.68348e-16)
(49.2967 13.2709 4.5056e-17)
(49.261 13.2608 -5.71677e-16)
(49.2239 13.2495 1.55604e-16)
(49.1857 13.2371 -1.14609e-18)
(49.1461 13.2234 0)
(49.1052 13.2085 2.88323e-16)
(49.0631 13.1921 0)
(49.0196 13.1744 0)
(48.9749 13.1552 4.15093e-17)
(48.9288 13.1344 2.19116e-16)
(48.8814 13.1119 0)
(48.8327 13.0877 7.69236e-17)
(48.7827 13.0616 2.77858e-17)
(48.7313 13.0337 1.20631e-16)
(48.6786 13.0037 2.61715e-16)
(48.6245 12.9716 -3.48245e-17)
(48.5691 12.9373 -1.83654e-17)
(48.5124 12.9006 0)
(48.4543 12.8615 -2.30101e-17)
(48.3948 12.8198 -7.39018e-17)
(48.3341 12.7754 2.66048e-17)
(48.2719 12.7282 4.35795e-17)
(48.2088 12.6782 -3.13629e-17)
(48.1428 12.6246 8.36426e-18)
(48.0738 12.5826 0)
(49.6983 13.307 5.5453e-16)
(49.6814 13.3118 -5.91822e-16)
(49.6744 13.3225 -4.6195e-16)
(49.6592 13.325 -4.89455e-16)
(49.6414 13.326 0)
(49.6235 13.3276 -6.31711e-16)
(49.6041 13.3284 3.34814e-16)
(49.583 13.3281 -3.53671e-16)
(49.5604 13.3272 4.2616e-16)
(49.5364 13.3256 4.97888e-17)
(49.5111 13.3232 -2.97386e-18)
(49.4844 13.32 0)
(49.4563 13.3161 0)
(49.4269 13.3114 2.64521e-16)
(49.3962 13.3058 2.84087e-16)
(49.3642 13.2993 -3.82696e-16)
(49.3309 13.2918 3.30534e-16)
(49.2963 13.2834 -4.51351e-17)
(49.2604 13.274 3.36205e-16)
(49.2233 13.2635 -2.57735e-16)
(49.1848 13.2518 -2.7917e-16)
(49.145 13.2389 0)
(49.1039 13.2247 -3.42233e-17)
(49.0615 13.2092 3.43067e-17)
(49.0178 13.1924 3.00919e-16)
(48.9727 13.174 0)
(48.9263 13.1541 -1.74946e-16)
(48.8786 13.1325 0)
(48.8295 13.1093 0)
(48.779 13.0842 5.59016e-17)
(48.7272 13.0573 -1.20908e-16)
(48.674 13.0283 -1.64202e-16)
(48.6194 12.9973 1.774e-16)
(48.5635 12.9641 -2.29923e-16)
(48.5062 12.9286 -2.04128e-17)
(48.4475 12.8907 2.29504e-17)
(48.3874 12.8503 7.28925e-17)
(48.3259 12.8072 5.30264e-17)
(48.2632 12.7614 1.41248e-17)
(48.1989 12.7126 -1.53329e-17)
(48.1338 12.6609 1.66522e-17)
(48.0656 12.6056 -9.19523e-18)
(47.9944 12.562 0)
(49.6995 13.3091 -5.71521e-17)
(49.6825 13.3144 -6.56489e-16)
(49.675 13.3253 5.36129e-16)
(49.6599 13.3285 4.25007e-16)
(49.642 13.3302 0)
(49.6241 13.3324 7.99812e-17)
(49.6046 13.3338 0)
(49.5835 13.3341 2.59662e-18)
(49.5609 13.3338 0)
(49.5369 13.3328 0)
(49.5115 13.331 -4.34437e-16)
(49.4847 13.3285 4.02751e-16)
(49.4566 13.3252 0)
(49.4272 13.3211 -2.67053e-16)
(49.3964 13.3161 -5.71471e-16)
(49.3643 13.3103 0)
(49.3309 13.3035 0)
(49.2962 13.2958 3.54303e-16)
(49.2601 13.2871 3.79941e-16)
(49.2228 13.2773 4.12434e-16)
(49.1841 13.2664 3.3298e-16)
(49.1441 13.2543 -2.41311e-16)
(49.1028 13.2409 -2.59509e-16)
(49.0602 13.2262 3.13065e-16)
(49.0162 13.2102 -6.03611e-16)
(48.9708 13.1927 0)
(48.9241 13.1737 0)
(48.876 13.153 -2.36929e-16)
(48.8265 13.1307 -2.05645e-16)
(48.7757 13.1067 2.22489e-16)
(48.7234 13.0807 2.96292e-17)
(48.6698 13.0528 -3.32673e-17)
(48.6147 13.0229 -1.06865e-16)
(48.5583 12.9908 1.85765e-18)
(48.5004 12.9565 0)
(48.4411 12.9198 2.28986e-17)
(48.3804 12.8806 -2.39351e-17)
(48.3183 12.8388 -1.05528e-16)
(48.2547 12.7943 -8.53937e-17)
(48.1899 12.7469 0)
(48.1235 12.6966 5.08947e-17)
(48.0563 12.6432 -1.84664e-17)
(47.9859 12.5861 0)
(47.9125 12.5408 5.79769e-21)
(49.7007 13.311 0)
(49.6835 13.3169 4.67403e-16)
(49.6757 13.3279 -4.68479e-16)
(49.6606 13.3319 0)
(49.6427 13.3342 6.7469e-16)
(49.6247 13.337 -8.04081e-17)
(49.6052 13.339 -1.26062e-16)
(49.584 13.34 3.14194e-16)
(49.5614 13.3402 0)
(49.5374 13.3398 -3.53632e-16)
(49.512 13.3387 0)
(49.4852 13.3368 -4.66505e-16)
(49.457 13.3341 6.13365e-17)
(49.4275 13.3306 0)
(49.3967 13.3264 2.87514e-16)
(49.3645 13.3212 0)
(49.331 13.3151 0)
(49.2962 13.3081 -3.57299e-16)
(49.26 13.3001 -2.41551e-18)
(49.2225 13.2911 -1.56413e-16)
(49.1837 13.2809 -4.45373e-16)
(49.1435 13.2696 1.81813e-16)
(49.102 13.257 1.29689e-16)
(49.0591 13.2431 -1.47712e-18)
(49.0148 13.2279 1.53098e-18)
(48.9692 13.2113 0)
(48.9222 13.1932 0)
(48.8737 13.1735 1.90994e-16)
(48.8239 13.1521 1.5399e-16)
(48.7727 13.129 -2.2331e-16)
(48.72 13.1041 -1.20335e-16)
(48.6659 13.0772 -3.3243e-17)
(48.6104 13.0484 1.75676e-16)
(48.5534 13.0174 1.53165e-16)
(48.495 12.9842 -1.63859e-16)
(48.4351 12.9487 2.2856e-17)
(48.3738 12.9107 -2.38818e-17)
(48.311 12.8702 7.86569e-17)
(48.2468 12.827 5.71901e-17)
(48.1812 12.7811 6.18965e-17)
(48.1142 12.7321 3.35149e-17)
(48.0457 12.6801 -1.82495e-17)
(47.9763 12.625 9.73149e-18)
(47.9037 12.5661 1.09492e-17)
(47.8281 12.519 0)
(49.7019 13.3128 0)
(49.6845 13.3192 6.61123e-17)
(49.6764 13.3305 6.1278e-16)
(49.6613 13.3351 0)
(49.6434 13.3381 -6.08443e-16)
(49.6253 13.3415 0)
(49.6059 13.3441 -2.53587e-16)
(49.5847 13.3457 9.00606e-17)
(49.562 13.3466 -1.23332e-18)
(49.538 13.3468 5.49643e-17)
(49.5126 13.3463 1.54654e-18)
(49.4858 13.345 0)