/*--------------------------------*- C++ -*----------------------------------*\
  =========                 |
  \\      /  F ield         | OpenFOAM: The Open Source CFD Toolbox
   \\    /   O peration     | Website:  https://openfoam.org
    \\  /    A nd           | Version:  7
     \\/     M anipulation  |
\*---------------------------------------------------------------------------*/
FoamFile
{
    version     2.0;
    format      ascii;
    class       volScalarField;
    location    "400";
    object      nut;
}
// * * * * * * * * * * * * * * * * * * * * * * * * * * * * * * * * * * * * * //

dimensions      [0 2 -1 0 0 0 0];

internalField   nonuniform List<scalar> 
23117
(
5.21787e-06
5.21578e-06
5.22945e-06
5.21566e-06
5.22806e-06
5.23708e-06
5.21507e-06
5.22748e-06
5.23544e-06
5.24025e-06
5.2148e-06
5.22677e-06
5.23441e-06
5.23709e-06
5.237e-06
5.21455e-06
5.22622e-06
5.23321e-06
5.23518e-06
5.23205e-06
5.22859e-06
5.21436e-06
5.22565e-06
5.23196e-06
5.23288e-06
5.22938e-06
5.22326e-06
5.22007e-06
5.21419e-06
5.22509e-06
5.23063e-06
5.23058e-06
5.22635e-06
5.22101e-06
5.21671e-06
5.21605e-06
5.21405e-06
5.2245e-06
5.22922e-06
5.22827e-06
5.22366e-06
5.21865e-06
5.2159e-06
5.21498e-06
5.2159e-06
5.21391e-06
5.22387e-06
5.22775e-06
5.226e-06
5.22122e-06
5.21691e-06
5.215e-06
5.21497e-06
5.21639e-06
5.21918e-06
5.21378e-06
5.2232e-06
5.22623e-06
5.22381e-06
5.2191e-06
5.21561e-06
5.2145e-06
5.215e-06
5.21735e-06
5.22165e-06
5.22548e-06
5.21365e-06
5.22249e-06
5.22468e-06
5.22175e-06
5.21733e-06
5.21472e-06
5.21421e-06
5.21534e-06
5.21857e-06
5.22322e-06
5.22841e-06
5.23157e-06
5.21351e-06
5.22173e-06
5.22313e-06
5.21986e-06
5.2159e-06
5.21411e-06
5.21412e-06
5.21596e-06
5.21994e-06
5.2249e-06
5.22943e-06
5.23305e-06
5.2346e-06
5.21336e-06
5.22093e-06
5.22161e-06
5.21816e-06
5.2148e-06
5.21369e-06
5.21422e-06
5.21684e-06
5.22134e-06
5.22629e-06
5.23037e-06
5.23276e-06
5.23368e-06
5.23379e-06
5.2132e-06
5.22009e-06
5.22013e-06
5.21668e-06
5.21401e-06
5.21344e-06
5.21451e-06
5.21788e-06
5.22269e-06
5.22739e-06
5.23075e-06
5.23232e-06
5.23217e-06
5.23085e-06
5.23022e-06
5.21302e-06
5.21923e-06
5.21872e-06
5.21543e-06
5.21348e-06
5.21333e-06
5.215e-06
5.21897e-06
5.22389e-06
5.22813e-06
5.23068e-06
5.23135e-06
5.23053e-06
5.22874e-06
5.22638e-06
5.22566e-06
5.21283e-06
5.21835e-06
5.2174e-06
5.2144e-06
5.21308e-06
5.21335e-06
5.21567e-06
5.22007e-06
5.22487e-06
5.2285e-06
5.23021e-06
5.23009e-06
5.22866e-06
5.22657e-06
5.22434e-06
5.222e-06
5.22153e-06
5.21261e-06
5.21747e-06
5.2162e-06
5.21359e-06
5.21281e-06
5.21348e-06
5.21646e-06
5.22109e-06
5.22559e-06
5.22852e-06
5.22942e-06
5.22861e-06
5.22676e-06
5.22449e-06
5.22228e-06
5.22043e-06
5.21868e-06
5.21849e-06
5.21238e-06
5.21659e-06
5.21512e-06
5.21298e-06
5.21263e-06
5.21374e-06
5.21726e-06
5.22199e-06
5.22604e-06
5.22822e-06
5.22837e-06
5.22702e-06
5.22489e-06
5.22259e-06
5.22052e-06
5.21883e-06
5.21762e-06
5.21656e-06
5.21656e-06
5.21213e-06
5.21574e-06
5.21416e-06
5.21255e-06
5.21254e-06
5.21413e-06
5.21808e-06
5.22272e-06
5.22622e-06
5.22766e-06
5.22716e-06
5.2254e-06
5.22313e-06
5.2209e-06
5.21902e-06
5.21758e-06
5.21656e-06
5.21592e-06
5.2154e-06
5.21548e-06
5.21187e-06
5.21491e-06
5.21335e-06
5.21227e-06
5.21252e-06
5.21464e-06
5.21886e-06
5.22327e-06
5.22615e-06
5.22688e-06
5.22585e-06
5.22381e-06
5.22152e-06
5.21943e-06
5.21777e-06
5.21657e-06
5.21577e-06
5.21528e-06
5.21502e-06
5.21486e-06
5.21495e-06
5.21159e-06
5.21412e-06
5.21267e-06
5.21206e-06
5.21258e-06
5.2152e-06
5.21956e-06
5.22363e-06
5.22586e-06
5.22596e-06
5.2245e-06
5.22231e-06
5.22007e-06
5.21817e-06
5.21674e-06
5.21576e-06
5.21516e-06
5.21482e-06
5.21467e-06
5.21463e-06
5.21469e-06
5.21476e-06
5.2113e-06
5.21338e-06
5.21212e-06
5.2119e-06
5.2127e-06
5.21577e-06
5.22016e-06
5.22379e-06
5.22538e-06
5.22493e-06
5.22316e-06
5.22091e-06
5.21879e-06
5.2171e-06
5.21589e-06
5.21512e-06
5.21468e-06
5.21448e-06
5.21443e-06
5.21448e-06
5.21455e-06
5.21473e-06
5.21476e-06
5.211e-06
5.21269e-06
5.21169e-06
5.21179e-06
5.2129e-06
5.21633e-06
5.22064e-06
5.22378e-06
5.22476e-06
5.22384e-06
5.22187e-06
5.21964e-06
5.21768e-06
5.2162e-06
5.2152e-06
5.21461e-06
5.21431e-06
5.21422e-06
5.21426e-06
5.21437e-06
5.21453e-06
5.21467e-06
5.21492e-06
5.21491e-06
5.2107e-06
5.21207e-06
5.21138e-06
5.21174e-06
5.21317e-06
5.21687e-06
5.22099e-06
5.2236e-06
5.22403e-06
5.22274e-06
5.22065e-06
5.21851e-06
5.21673e-06
5.21545e-06
5.21464e-06
5.2142e-06
5.21402e-06
5.21403e-06
5.21414e-06
5.21433e-06
5.21453e-06
5.21476e-06
5.21493e-06
5.21522e-06
5.21516e-06
5.21039e-06
5.21152e-06
5.21118e-06
5.21172e-06
5.21352e-06
5.21737e-06
5.22122e-06
5.22329e-06
5.22322e-06
5.22166e-06
5.21953e-06
5.2175e-06
5.21591e-06
5.21482e-06
5.21418e-06
5.21387e-06
5.2138e-06
5.21389e-06
5.21408e-06
5.21432e-06
5.21458e-06
5.21485e-06
5.21511e-06
5.21528e-06
5.2156e-06
5.21548e-06
5.21009e-06
5.21103e-06
5.21107e-06
5.21174e-06
5.21389e-06
5.2178e-06
5.22131e-06
5.22287e-06
5.22237e-06
5.22062e-06
5.21851e-06
5.21662e-06
5.21521e-06
5.2143e-06
5.2138e-06
5.21361e-06
5.21363e-06
5.2138e-06
5.21405e-06
5.21435e-06
5.21467e-06
5.21497e-06
5.21526e-06
5.21553e-06
5.2157e-06
5.21603e-06
5.21584e-06
5.20979e-06
5.21062e-06
5.21099e-06
5.21178e-06
5.21425e-06
5.21816e-06
5.22129e-06
5.22236e-06
5.22151e-06
5.21963e-06
5.21758e-06
5.21585e-06
5.21462e-06
5.21386e-06
5.21349e-06
5.2134e-06
5.21351e-06
5.21375e-06
5.21406e-06
5.21441e-06
5.21477e-06
5.21512e-06
5.21545e-06
5.21574e-06
5.216e-06
5.21616e-06
5.21648e-06
5.21625e-06
5.20949e-06
5.21028e-06
5.21094e-06
5.21186e-06
5.2146e-06
5.21844e-06
5.22117e-06
5.22178e-06
5.22065e-06
5.21871e-06
5.21675e-06
5.21518e-06
5.21411e-06
5.21349e-06
5.21323e-06
5.21324e-06
5.21343e-06
5.21373e-06
5.2141e-06
5.2145e-06
5.2149e-06
5.21529e-06
5.21565e-06
5.21597e-06
5.21625e-06
5.2165e-06
5.21663e-06
5.21693e-06
5.21669e-06
5.20921e-06
5.21001e-06
5.21091e-06
5.21197e-06
5.21494e-06
5.21863e-06
5.22096e-06
5.22116e-06
5.21981e-06
5.21786e-06
5.21601e-06
5.2146e-06
5.21367e-06
5.21317e-06
5.21302e-06
5.21311e-06
5.21337e-06
5.21374e-06
5.21416e-06
5.21461e-06
5.21505e-06
5.21547e-06
5.21586e-06
5.21621e-06
5.21652e-06
5.21678e-06
5.21701e-06
5.21711e-06
5.21738e-06
5.21713e-06
5.20893e-06
5.2098e-06
5.21091e-06
5.21211e-06
5.21525e-06
5.21875e-06
5.22067e-06
5.22052e-06
5.21901e-06
5.21709e-06
5.21536e-06
5.21409e-06
5.21329e-06
5.21291e-06
5.21285e-06
5.21302e-06
5.21335e-06
5.21377e-06
5.21424e-06
5.21473e-06
5.2152e-06
5.21565e-06
5.21607e-06
5.21645e-06
5.21678e-06
5.21707e-06
5.21731e-06
5.21751e-06
5.21759e-06
5.21783e-06
5.21758e-06
5.20868e-06
5.20966e-06
5.21091e-06
5.21228e-06
5.21553e-06
5.2188e-06
5.22031e-06
5.21986e-06
5.21825e-06
5.21638e-06
5.21478e-06
5.21364e-06
5.21296e-06
5.21268e-06
5.21271e-06
5.21295e-06
5.21335e-06
5.21382e-06
5.21434e-06
5.21486e-06
5.21536e-06
5.21584e-06
5.21628e-06
5.21668e-06
5.21704e-06
5.21735e-06
5.21762e-06
5.21783e-06
5.21801e-06
5.21806e-06
5.21827e-06
5.21801e-06
5.20844e-06
5.20958e-06
5.21094e-06
5.21249e-06
5.21577e-06
5.21877e-06
5.21992e-06
5.21921e-06
5.21754e-06
5.21574e-06
5.21427e-06
5.21325e-06
5.21268e-06
5.21249e-06
5.2126e-06
5.21292e-06
5.21337e-06
5.21389e-06
5.21445e-06
5.215e-06
5.21553e-06
5.21603e-06
5.21649e-06
5.21692e-06
5.2173e-06
5.21764e-06
5.21793e-06
5.21817e-06
5.21836e-06
5.21851e-06
5.21853e-06
5.21871e-06
5.21844e-06
5.20822e-06
5.20956e-06
5.21097e-06
5.21272e-06
5.21597e-06
5.21868e-06
5.21948e-06
5.21858e-06
5.21689e-06
5.21517e-06
5.21381e-06
5.2129e-06
5.21243e-06
5.21233e-06
5.21252e-06
5.2129e-06
5.21341e-06
5.21398e-06
5.21456e-06
5.21514e-06
5.2157e-06
5.21622e-06
5.2167e-06
5.21715e-06
5.21755e-06
5.21791e-06
5.21823e-06
5.2185e-06
5.21872e-06
5.21888e-06
5.21901e-06
5.219e-06
5.21913e-06
5.21886e-06
5.20803e-06
5.2096e-06
5.21102e-06
5.21292e-06
5.21612e-06
5.21854e-06
5.21903e-06
5.21797e-06
5.21628e-06
5.21465e-06
5.2134e-06
5.2126e-06
5.21222e-06
5.2122e-06
5.21246e-06
5.2129e-06
5.21346e-06
5.21407e-06
5.21469e-06
5.21529e-06
5.21586e-06
5.2164e-06
5.21691e-06
5.21737e-06
5.2178e-06
5.21819e-06
5.21853e-06
5.21882e-06
5.21907e-06
5.21927e-06
5.2194e-06
5.2195e-06
5.21946e-06
5.21956e-06
5.21927e-06
5.20786e-06
5.20967e-06
5.21107e-06
5.2131e-06
5.21622e-06
5.21835e-06
5.21857e-06
5.21739e-06
5.21572e-06
5.21419e-06
5.21304e-06
5.21233e-06
5.21203e-06
5.21209e-06
5.21242e-06
5.21292e-06
5.21353e-06
5.21417e-06
5.21481e-06
5.21543e-06
5.21603e-06
5.21659e-06
5.21711e-06
5.2176e-06
5.21805e-06
5.21845e-06
5.21882e-06
5.21914e-06
5.21942e-06
5.21964e-06
5.21981e-06
5.21991e-06
5.21998e-06
5.21991e-06
5.21997e-06
5.21967e-06
5.20771e-06
5.20975e-06
5.21112e-06
5.21327e-06
5.21628e-06
5.21812e-06
5.2181e-06
5.21684e-06
5.21521e-06
5.21376e-06
5.21271e-06
5.21209e-06
5.21187e-06
5.21201e-06
5.2124e-06
5.21296e-06
5.2136e-06
5.21427e-06
5.21494e-06
5.21558e-06
5.21619e-06
5.21676e-06
5.21731e-06
5.21781e-06
5.21828e-06
5.21872e-06
5.21911e-06
5.21946e-06
5.21976e-06
5.22001e-06
5.2202e-06
5.22035e-06
5.22042e-06
5.22046e-06
5.22035e-06
5.22037e-06
5.22006e-06
5.20759e-06
5.20984e-06
5.21118e-06
5.21342e-06
5.2163e-06
5.21786e-06
5.21764e-06
5.21632e-06
5.21474e-06
5.21338e-06
5.21241e-06
5.21187e-06
5.21174e-06
5.21194e-06
5.2124e-06
5.213e-06
5.21368e-06
5.21438e-06
5.21506e-06
5.21572e-06
5.21635e-06
5.21694e-06
5.2175e-06
5.21802e-06
5.21852e-06
5.21897e-06
5.21939e-06
5.21976e-06
5.22009e-06
5.22037e-06
5.2206e-06
5.22077e-06
5.22088e-06
5.22093e-06
5.22093e-06
5.22079e-06
5.22076e-06
5.22044e-06
5.20749e-06
5.20993e-06
5.21124e-06
5.21355e-06
5.21628e-06
5.21759e-06
5.21719e-06
5.21584e-06
5.21432e-06
5.21304e-06
5.21215e-06
5.21168e-06
5.21162e-06
5.2119e-06
5.21241e-06
5.21306e-06
5.21377e-06
5.21449e-06
5.21519e-06
5.21586e-06
5.2165e-06
5.21711e-06
5.21768e-06
5.21823e-06
5.21874e-06
5.21922e-06
5.21966e-06
5.22006e-06
5.22042e-06
5.22072e-06
5.22098e-06
5.22118e-06
5.22133e-06
5.22141e-06
5.22142e-06
5.22139e-06
5.22121e-06
5.22114e-06
5.22081e-06
5.20742e-06
5.21002e-06
5.21131e-06
5.21367e-06
5.21622e-06
5.21729e-06
5.21675e-06
5.21539e-06
5.21393e-06
5.21273e-06
5.21191e-06
5.21151e-06
5.21152e-06
5.21187e-06
5.21243e-06
5.21313e-06
5.21386e-06
5.2146e-06
5.21531e-06
5.216e-06
5.21665e-06
5.21727e-06
5.21786e-06
5.21843e-06
5.21896e-06
5.21946e-06
5.21993e-06
5.22035e-06
5.22073e-06
5.22107e-06
5.22136e-06
5.22159e-06
5.22177e-06
5.22188e-06
5.22193e-06
5.22191e-06
5.22184e-06
5.22163e-06
5.22151e-06
5.22117e-06
5.20737e-06
5.21011e-06
5.21139e-06
5.21376e-06
5.21614e-06
5.21699e-06
5.21633e-06
5.21498e-06
5.21358e-06
5.21244e-06
5.21169e-06
5.21136e-06
5.21144e-06
5.21185e-06
5.21247e-06
5.2132e-06
5.21396e-06
5.21471e-06
5.21544e-06
5.21613e-06
5.21679e-06
5.21743e-06
5.21804e-06
5.21862e-06
5.21917e-06
5.21969e-06
5.22018e-06
5.22063e-06
5.22104e-06
5.22141e-06
5.22173e-06
5.22199e-06
5.2222e-06
5.22234e-06
5.22243e-06
5.22245e-06
5.22239e-06
5.22229e-06
5.22203e-06
5.22186e-06
5.22152e-06
5.20735e-06
5.2102e-06
5.21148e-06
5.21383e-06
5.21603e-06
5.21668e-06
5.21593e-06
5.21459e-06
5.21325e-06
5.21218e-06
5.21149e-06
5.21123e-06
5.21138e-06
5.21185e-06
5.21251e-06
5.21327e-06
5.21405e-06
5.21482e-06
5.21556e-06
5.21626e-06
5.21694e-06
5.21758e-06
5.21821e-06
5.2188e-06
5.21938e-06
5.21992e-06
5.22043e-06
5.22091e-06
5.22134e-06
5.22174e-06
5.22208e-06
5.22238e-06
5.22262e-06
5.2228e-06
5.22292e-06
5.22297e-06
5.22296e-06
5.22286e-06
5.22272e-06
5.22242e-06
5.2222e-06
5.22186e-06
5.20736e-06
5.21029e-06
5.21157e-06
5.21388e-06
5.2159e-06
5.21637e-06
5.21556e-06
5.21424e-06
5.21296e-06
5.21194e-06
5.21131e-06
5.21112e-06
5.21134e-06
5.21186e-06
5.21257e-06
5.21335e-06
5.21415e-06
5.21493e-06
5.21567e-06
5.21639e-06
5.21707e-06
5.21773e-06
5.21837e-06
5.21898e-06
5.21957e-06
5.22014e-06
5.22067e-06
5.22117e-06
5.22163e-06
5.22206e-06
5.22243e-06
5.22276e-06
5.22303e-06
5.22325e-06
5.2234e-06
5.22349e-06
5.22351e-06
5.22346e-06
5.22333e-06
5.22314e-06
5.2228e-06
5.22253e-06
5.22219e-06
5.20739e-06
5.21038e-06
5.21167e-06
5.21391e-06
5.21575e-06
5.21606e-06
5.2152e-06
5.21392e-06
5.21268e-06
5.21172e-06
5.21115e-06
5.21102e-06
5.2113e-06
5.21188e-06
5.21262e-06
5.21343e-06
5.21425e-06
5.21503e-06
5.21579e-06
5.21651e-06
5.2172e-06
5.21788e-06
5.21853e-06
5.21916e-06
5.21976e-06
5.22034e-06
5.2209e-06
5.22142e-06
5.22191e-06
5.22236e-06
5.22277e-06
5.22313e-06
5.22344e-06
5.22369e-06
5.22388e-06
5.224e-06
5.22406e-06
5.22404e-06
5.22395e-06
5.22378e-06
5.22355e-06
5.22317e-06
5.22284e-06
5.22251e-06
5.20744e-06
5.21047e-06
5.21176e-06
5.21392e-06
5.21558e-06
5.21576e-06
5.21487e-06
5.21362e-06
5.21243e-06
5.21152e-06
5.21101e-06
5.21094e-06
5.21128e-06
5.21191e-06
5.21269e-06
5.21352e-06
5.21434e-06
5.21514e-06
5.2159e-06
5.21663e-06
5.21733e-06
5.21801e-06
5.21868e-06
5.21932e-06
5.21994e-06
5.22054e-06
5.22112e-06
5.22166e-06
5.22218e-06
5.22266e-06
5.2231e-06
5.22349e-06
5.22383e-06
5.22412e-06
5.22434e-06
5.2245e-06
5.2246e-06
5.22462e-06
5.22457e-06
5.22444e-06
5.22423e-06
5.22395e-06
5.22352e-06
5.22315e-06
5.22282e-06
5.20753e-06
5.21056e-06
5.21183e-06
5.21391e-06
5.21541e-06
5.21547e-06
5.21456e-06
5.21334e-06
5.2122e-06
5.21134e-06
5.21088e-06
5.21087e-06
5.21127e-06
5.21194e-06
5.21275e-06
5.2136e-06
5.21444e-06
5.21524e-06
5.216e-06
5.21674e-06
5.21745e-06
5.21815e-06
5.21882e-06
5.21948e-06
5.22011e-06
5.22073e-06
5.22133e-06
5.2219e-06
5.22244e-06
5.22294e-06
5.22341e-06
5.22384e-06
5.22421e-06
5.22453e-06
5.2248e-06
5.225e-06
5.22513e-06
5.22519e-06
5.22517e-06
5.22509e-06
5.22492e-06
5.22466e-06
5.22434e-06
5.22387e-06
5.22344e-06
5.22312e-06
5.20767e-06
5.21064e-06
5.21188e-06
5.21388e-06
5.21523e-06
5.2152e-06
5.21427e-06
5.21308e-06
5.21199e-06
5.21117e-06
5.21076e-06
5.21082e-06
5.21127e-06
5.21199e-06
5.21283e-06
5.21369e-06
5.21453e-06
5.21534e-06
5.21611e-06
5.21685e-06
5.21757e-06
5.21827e-06
5.21896e-06
5.21963e-06
5.22028e-06
5.22091e-06
5.22153e-06
5.22212e-06
5.22268e-06
5.22322e-06
5.22371e-06
5.22417e-06
5.22458e-06
5.22494e-06
5.22524e-06
5.22548e-06
5.22565e-06
5.22575e-06
5.22578e-06
5.22573e-06
5.2256e-06
5.22539e-06
5.22509e-06
5.22471e-06
5.2242e-06
5.22372e-06
5.22341e-06
5.20789e-06
5.21071e-06
5.21192e-06
5.21383e-06
5.21505e-06
5.21493e-06
5.214e-06
5.21285e-06
5.21179e-06
5.21101e-06
5.21066e-06
5.21077e-06
5.21128e-06
5.21204e-06
5.2129e-06
5.21377e-06
5.21462e-06
5.21543e-06
5.21621e-06
5.21696e-06
5.21769e-06
5.2184e-06
5.21909e-06
5.21977e-06
5.22044e-06
5.22108e-06
5.22172e-06
5.22233e-06
5.22292e-06
5.22348e-06
5.224e-06
5.2245e-06
5.22494e-06
5.22534e-06
5.22568e-06
5.22595e-06
5.22617e-06
5.22631e-06
5.22637e-06
5.22636e-06
5.22627e-06
5.2261e-06
5.22584e-06
5.2255e-06
5.22507e-06
5.22452e-06
5.22399e-06
5.22369e-06
5.20812e-06
5.21078e-06
5.21195e-06
5.21378e-06
5.21486e-06
5.21468e-06
5.21375e-06
5.21263e-06
5.2116e-06
5.21087e-06
5.21057e-06
5.21074e-06
5.2113e-06
5.21209e-06
5.21297e-06
5.21386e-06
5.21471e-06
5.21553e-06
5.21631e-06
5.21706e-06
5.2178e-06
5.21852e-06
5.21922e-06
5.21991e-06
5.22058e-06
5.22125e-06
5.2219e-06
5.22253e-06
5.22314e-06
5.22372e-06
5.22428e-06
5.2248e-06
5.22529e-06
5.22572e-06
5.2261e-06
5.22642e-06
5.22667e-06
5.22685e-06
5.22696e-06
5.22699e-06
5.22694e-06
5.22681e-06
5.22659e-06
5.22629e-06
5.2259e-06
5.22542e-06
5.22484e-06
5.22425e-06
5.22396e-06
5.20836e-06
5.21083e-06
5.21196e-06
5.21371e-06
5.21468e-06
5.21444e-06
5.21352e-06
5.21243e-06
5.21143e-06
5.21074e-06
5.21049e-06
5.21072e-06
5.21132e-06
5.21215e-06
5.21305e-06
5.21394e-06
5.2148e-06
5.21562e-06
5.21641e-06
5.21717e-06
5.21791e-06
5.21863e-06
5.21934e-06
5.22004e-06
5.22073e-06
5.2214e-06
5.22207e-06
5.22272e-06
5.22335e-06
5.22396e-06
5.22455e-06
5.2251e-06
5.22562e-06
5.22609e-06
5.22651e-06
5.22687e-06
5.22716e-06
5.22739e-06
5.22754e-06
5.22761e-06
5.2276e-06
5.22751e-06
5.22734e-06
5.22708e-06
5.22673e-06
5.22629e-06
5.22574e-06
5.22514e-06
5.22449e-06
5.22423e-06
5.20858e-06
5.21086e-06
5.21197e-06
5.21363e-06
5.2145e-06
5.21421e-06
5.21331e-06
5.21224e-06
5.21128e-06
5.21062e-06
5.21042e-06
5.2107e-06
5.21136e-06
5.21221e-06
5.21312e-06
5.21403e-06
5.21489e-06
5.21571e-06
5.2165e-06
5.21726e-06
5.21801e-06
5.21874e-06
5.21946e-06
5.22016e-06
5.22086e-06
5.22155e-06
5.22223e-06
5.22289e-06
5.22355e-06
5.22418e-06
5.2248e-06
5.22538e-06
5.22593e-06
5.22644e-06
5.2269e-06
5.2273e-06
5.22764e-06
5.22791e-06
5.22811e-06
5.22822e-06
5.22826e-06
5.22821e-06
5.22808e-06
5.22786e-06
5.22755e-06
5.22715e-06
5.22667e-06
5.22605e-06
5.22542e-06
5.22472e-06
5.22449e-06
5.20873e-06
5.21089e-06
5.21196e-06
5.21355e-06
5.21432e-06
5.214e-06
5.21311e-06
5.21207e-06
5.21113e-06
5.21051e-06
5.21036e-06
5.2107e-06
5.21139e-06
5.21227e-06
5.2132e-06
5.21411e-06
5.21498e-06
5.2158e-06
5.21659e-06
5.21736e-06
5.21811e-06
5.21884e-06
5.21957e-06
5.22028e-06
5.22099e-06
5.22169e-06
5.22238e-06
5.22306e-06
5.22373e-06
5.22439e-06
5.22503e-06
5.22565e-06
5.22623e-06
5.22678e-06
5.22728e-06
5.22772e-06
5.22811e-06
5.22842e-06
5.22867e-06
5.22883e-06
5.22891e-06
5.2289e-06
5.22881e-06
5.22863e-06
5.22836e-06
5.22801e-06
5.22756e-06
5.22703e-06
5.22635e-06
5.2257e-06
5.22495e-06
5.22476e-06
5.20887e-06
5.2109e-06
5.21195e-06
5.21346e-06
5.21415e-06
5.2138e-06
5.21292e-06
5.21191e-06
5.211e-06
5.21041e-06
5.21031e-06
5.2107e-06
5.21143e-06
5.21234e-06
5.21328e-06
5.21419e-06
5.21506e-06
5.21589e-06
5.21668e-06
5.21745e-06
5.21821e-06
5.21894e-06
5.21967e-06
5.22039e-06
5.22111e-06
5.22182e-06
5.22252e-06
5.22322e-06
5.22391e-06
5.22459e-06
5.22526e-06
5.2259e-06
5.22652e-06
5.2271e-06
5.22764e-06
5.22813e-06
5.22856e-06
5.22892e-06
5.22921e-06
5.22942e-06
5.22955e-06
5.22959e-06
5.22954e-06
5.2294e-06
5.22918e-06
5.22886e-06
5.22846e-06
5.22796e-06
5.22737e-06
5.22662e-06
5.22597e-06
5.22518e-06
5.22504e-06
5.209e-06
5.21091e-06
5.21193e-06
5.21336e-06
5.21398e-06
5.21362e-06
5.21275e-06
5.21176e-06
5.21087e-06
5.21032e-06
5.21027e-06
5.21071e-06
5.21148e-06
5.2124e-06
5.21336e-06
5.21427e-06
5.21514e-06
5.21597e-06
5.21677e-06
5.21754e-06
5.2183e-06
5.21904e-06
5.21977e-06
5.2205e-06
5.22122e-06
5.22194e-06
5.22266e-06
5.22337e-06
5.22408e-06
5.22478e-06
5.22547e-06
5.22614e-06
5.22678e-06
5.2274e-06
5.22798e-06
5.22851e-06
5.22899e-06
5.2294e-06
5.22974e-06
5.23e-06
5.23018e-06
5.23027e-06
5.23027e-06
5.23017e-06
5.22999e-06
5.22971e-06
5.22935e-06
5.22889e-06
5.22834e-06
5.22769e-06
5.22689e-06
5.22623e-06
5.22541e-06
5.22533e-06
5.20912e-06
5.21092e-06
5.2119e-06
5.21327e-06
5.21382e-06
5.21345e-06
5.21259e-06
5.21162e-06
5.21076e-06
5.21024e-06
5.21024e-06
5.21072e-06
5.21153e-06
5.21247e-06
5.21343e-06
5.21435e-06
5.21523e-06
5.21606e-06
5.21686e-06
5.21763e-06
5.21839e-06
5.21913e-06
5.21987e-06
5.2206e-06
5.22133e-06
5.22205e-06
5.22278e-06
5.22351e-06
5.22423e-06
5.22495e-06
5.22566e-06
5.22636e-06
5.22704e-06
5.22769e-06
5.22831e-06
5.22888e-06
5.2294e-06
5.22986e-06
5.23026e-06
5.23057e-06
5.2308e-06
5.23094e-06
5.23099e-06
5.23094e-06
5.2308e-06
5.23056e-06
5.23023e-06
5.22982e-06
5.22931e-06
5.22871e-06
5.22799e-06
5.22714e-06
5.22648e-06
5.22565e-06
5.22562e-06
5.20923e-06
5.21092e-06
5.21187e-06
5.21317e-06
5.21367e-06
5.21329e-06
5.21245e-06
5.21149e-06
5.21065e-06
5.21017e-06
5.21022e-06
5.21074e-06
5.21158e-06
5.21254e-06
5.21351e-06
5.21443e-06
5.21531e-06
5.21614e-06
5.21694e-06
5.21772e-06
5.21848e-06
5.21922e-06
5.21996e-06
5.2207e-06
5.22143e-06
5.22216e-06
5.2229e-06
5.22364e-06
5.22438e-06
5.22511e-06
5.22585e-06
5.22657e-06
5.22728e-06
5.22796e-06
5.22862e-06
5.22923e-06
5.2298e-06
5.23031e-06
5.23075e-06
5.23112e-06
5.2314e-06
5.2316e-06
5.23169e-06
5.2317e-06
5.2316e-06
5.23141e-06
5.23112e-06
5.23074e-06
5.23027e-06
5.22971e-06
5.22905e-06
5.22828e-06
5.22739e-06
5.22672e-06
5.22589e-06
5.22591e-06
5.20934e-06
5.21091e-06
5.21183e-06
5.21307e-06
5.21353e-06
5.21314e-06
5.21231e-06
5.21137e-06
5.21055e-06
5.21011e-06
5.2102e-06
5.21077e-06
5.21163e-06
5.21261e-06
5.21359e-06
5.21451e-06
5.21539e-06
5.21622e-06
5.21702e-06
5.2178e-06
5.21856e-06
5.21931e-06
5.22005e-06
5.22079e-06
5.22153e-06
5.22227e-06
5.22301e-06
5.22376e-06
5.22451e-06
5.22526e-06
5.22602e-06
5.22676e-06
5.2275e-06
5.22821e-06
5.2289e-06
5.22956e-06
5.23017e-06
5.23073e-06
5.23123e-06
5.23165e-06
5.23199e-06
5.23224e-06
5.23239e-06
5.23245e-06
5.2324e-06
5.23225e-06
5.23201e-06
5.23167e-06
5.23123e-06
5.23071e-06
5.23009e-06
5.22938e-06
5.22854e-06
5.22762e-06
5.22696e-06
5.22613e-06
5.22621e-06
5.20944e-06
5.21091e-06
5.21179e-06
5.21297e-06
5.2134e-06
5.213e-06
5.21219e-06
5.21126e-06
5.21046e-06
5.21006e-06
5.21019e-06
5.21079e-06
5.21169e-06
5.21268e-06
5.21366e-06
5.21459e-06
5.21546e-06
5.2163e-06
5.2171e-06
5.21788e-06
5.21864e-06
5.21939e-06
5.22014e-06
5.22088e-06
5.22162e-06
5.22236e-06
5.22311e-06
5.22387e-06
5.22463e-06
5.2254e-06
5.22617e-06
5.22694e-06
5.2277e-06
5.22845e-06
5.22918e-06
5.22987e-06
5.23053e-06
5.23113e-06
5.23168e-06
5.23216e-06
5.23255e-06
5.23286e-06
5.23307e-06
5.23319e-06
5.23319e-06
5.23309e-06
5.23289e-06
5.23259e-06
5.2322e-06
5.23171e-06
5.23113e-06
5.23046e-06
5.22969e-06
5.22879e-06
5.22785e-06
5.22719e-06
5.22637e-06
5.22651e-06
5.20953e-06
5.2109e-06
5.21175e-06
5.21287e-06
5.21327e-06
5.21287e-06
5.21207e-06
5.21116e-06
5.21038e-06
5.21001e-06
5.21018e-06
5.21083e-06
5.21175e-06
5.21275e-06
5.21374e-06
5.21467e-06
5.21554e-06
5.21638e-06
5.21718e-06
5.21796e-06
5.21872e-06
5.21947e-06
5.22022e-06
5.22096e-06
5.2217e-06
5.22245e-06
5.22321e-06
5.22398e-06
5.22475e-06
5.22553e-06
5.22632e-06
5.22711e-06
5.22789e-06
5.22867e-06
5.22943e-06
5.23016e-06
5.23086e-06
5.23151e-06
5.23211e-06
5.23264e-06
5.2331e-06
5.23346e-06
5.23374e-06
5.23391e-06
5.23397e-06
5.23393e-06
5.23378e-06
5.23352e-06
5.23316e-06
5.23271e-06
5.23216e-06
5.23153e-06
5.2308e-06
5.22998e-06
5.22902e-06
5.22807e-06
5.22742e-06
5.2266e-06
5.22681e-06
5.20962e-06
5.21089e-06
5.21169e-06
5.21278e-06
5.21315e-06
5.21276e-06
5.21196e-06
5.21106e-06
5.21031e-06
5.20997e-06
5.21018e-06
5.21086e-06
5.21181e-06
5.21282e-06
5.21381e-06
5.21474e-06
5.21562e-06
5.21645e-06
5.21726e-06
5.21804e-06
5.2188e-06
5.21955e-06
5.22029e-06
5.22104e-06
5.22178e-06
5.22254e-06
5.2233e-06
5.22407e-06
5.22486e-06
5.22565e-06
5.22645e-06
5.22726e-06
5.22807e-06
5.22887e-06
5.22966e-06
5.23043e-06
5.23117e-06
5.23186e-06
5.23251e-06
5.2331e-06
5.23361e-06
5.23404e-06
5.23438e-06
5.23461e-06
5.23474e-06
5.23475e-06
5.23465e-06
5.23444e-06
5.23413e-06
5.23371e-06
5.2332e-06
5.2326e-06
5.23191e-06
5.23113e-06
5.23024e-06
5.22924e-06
5.22828e-06
5.22764e-06
5.22684e-06
5.22712e-06
5.20971e-06
5.21088e-06
5.21164e-06
5.21269e-06
5.21304e-06
5.21265e-06
5.21186e-06
5.21098e-06
5.21024e-06
5.20993e-06
5.21019e-06
5.2109e-06
5.21187e-06
5.21289e-06
5.21388e-06
5.21482e-06
5.21569e-06
5.21653e-06
5.21733e-06
5.21811e-06
5.21887e-06
5.21962e-06
5.22037e-06
5.22111e-06
5.22186e-06
5.22262e-06
5.22338e-06
5.22416e-06
5.22496e-06
5.22576e-06
5.22658e-06
5.2274e-06
5.22823e-06
5.22906e-06
5.22987e-06
5.23068e-06
5.23145e-06
5.23219e-06
5.23289e-06
5.23353e-06
5.2341e-06
5.23459e-06
5.23499e-06
5.23529e-06
5.23548e-06
5.23556e-06
5.23552e-06
5.23536e-06
5.23509e-06
5.23472e-06
5.23424e-06
5.23367e-06
5.23301e-06
5.23227e-06
5.23144e-06
5.23048e-06
5.22944e-06
5.22848e-06
5.22785e-06
5.22707e-06
5.22743e-06
5.20978e-06
5.21086e-06
5.21158e-06
5.2126e-06
5.21294e-06
5.21255e-06
5.21177e-06
5.21089e-06
5.21018e-06
5.2099e-06
5.2102e-06
5.21094e-06
5.21193e-06
5.21296e-06
5.21396e-06
5.21489e-06
5.21577e-06
5.2166e-06
5.21741e-06
5.21819e-06
5.21895e-06
5.2197e-06
5.22044e-06
5.22119e-06
5.22193e-06
5.22269e-06
5.22346e-06
5.22425e-06
5.22505e-06
5.22586e-06
5.22669e-06
5.22753e-06
5.22838e-06
5.22922e-06
5.23007e-06
5.2309e-06
5.23171e-06
5.2325e-06
5.23324e-06
5.23393e-06
5.23456e-06
5.23511e-06
5.23558e-06
5.23594e-06
5.2362e-06
5.23635e-06
5.23637e-06
5.23627e-06
5.23606e-06
5.23572e-06
5.23528e-06
5.23475e-06
5.23412e-06
5.2334e-06
5.2326e-06
5.23172e-06
5.2307e-06
5.22964e-06
5.22867e-06
5.22806e-06
5.22731e-06
5.22775e-06
5.20986e-06
5.21084e-06
5.21152e-06
5.21252e-06
5.21284e-06
5.21245e-06
5.21168e-06
5.21082e-06
5.21012e-06
5.20988e-06
5.21021e-06
5.21099e-06
5.21199e-06
5.21303e-06
5.21403e-06
5.21496e-06
5.21584e-06
5.21668e-06
5.21748e-06
5.21826e-06
5.21902e-06
5.21977e-06
5.22051e-06
5.22125e-06
5.222e-06
5.22276e-06
5.22354e-06
5.22432e-06
5.22513e-06
5.22595e-06
5.22679e-06
5.22764e-06
5.22851e-06
5.22938e-06
5.23024e-06
5.23111e-06
5.23195e-06
5.23278e-06
5.23356e-06
5.2343e-06
5.23499e-06
5.2356e-06
5.23613e-06
5.23656e-06
5.23689e-06
5.23711e-06
5.2372e-06
5.23717e-06
5.23701e-06
5.23673e-06
5.23633e-06
5.23583e-06
5.23523e-06
5.23454e-06
5.23377e-06
5.23292e-06
5.23198e-06
5.2309e-06
5.22982e-06
5.22886e-06
5.22827e-06
5.22755e-06
5.22808e-06
5.20993e-06
5.21083e-06
5.21146e-06
5.21244e-06
5.21276e-06
5.21237e-06
5.21161e-06
5.21075e-06
5.21007e-06
5.20986e-06
5.21023e-06
5.21103e-06
5.21205e-06
5.2131e-06
5.2141e-06
5.21504e-06
5.21591e-06
5.21675e-06
5.21755e-06
5.21833e-06
5.21909e-06
5.21984e-06
5.22058e-06
5.22132e-06
5.22207e-06
5.22283e-06
5.2236e-06
5.22439e-06
5.22521e-06
5.22603e-06
5.22688e-06
5.22775e-06
5.22862e-06
5.22951e-06
5.2304e-06
5.23129e-06
5.23217e-06
5.23303e-06
5.23386e-06
5.23464e-06
5.23538e-06
5.23605e-06
5.23665e-06
5.23715e-06
5.23755e-06
5.23784e-06
5.23801e-06
5.23805e-06
5.23795e-06
5.23773e-06
5.23738e-06
5.23692e-06
5.23635e-06
5.23569e-06
5.23494e-06
5.23411e-06
5.23321e-06
5.23222e-06
5.23108e-06
5.22999e-06
5.22904e-06
5.22847e-06
5.22779e-06
5.22841e-06
5.21e-06
5.21081e-06
5.2114e-06
5.21237e-06
5.21268e-06
5.21229e-06
5.21153e-06
5.21069e-06
5.21003e-06
5.20985e-06
5.21025e-06
5.21108e-06
5.21212e-06
5.21317e-06
5.21417e-06
5.21511e-06
5.21599e-06
5.21682e-06
5.21762e-06
5.2184e-06
5.21916e-06
5.2199e-06
5.22064e-06
5.22138e-06
5.22213e-06
5.22289e-06
5.22367e-06
5.22446e-06
5.22527e-06
5.22611e-06
5.22696e-06
5.22784e-06
5.22873e-06
5.22963e-06
5.23054e-06
5.23145e-06
5.23236e-06
5.23325e-06
5.23412e-06
5.23496e-06
5.23574e-06
5.23647e-06
5.23713e-06
5.2377e-06
5.23817e-06
5.23854e-06
5.23878e-06
5.2389e-06
5.23888e-06
5.23872e-06
5.23843e-06
5.23801e-06
5.23748e-06
5.23684e-06
5.23612e-06
5.23531e-06
5.23443e-06
5.23348e-06
5.23243e-06
5.23124e-06
5.23014e-06
5.22921e-06
5.22868e-06
5.22803e-06
5.22876e-06
5.21006e-06
5.21079e-06
5.21134e-06
5.2123e-06
5.21261e-06
5.21222e-06
5.21147e-06
5.21063e-06
5.20999e-06
5.20984e-06
5.21027e-06
5.21113e-06
5.21218e-06
5.21324e-06
5.21425e-06
5.21518e-06
5.21606e-06
5.21689e-06
5.21769e-06
5.21847e-06
5.21922e-06
5.21997e-06
5.2207e-06
5.22144e-06
5.22219e-06
5.22295e-06
5.22373e-06
5.22452e-06
5.22534e-06
5.22618e-06
5.22704e-06
5.22792e-06
5.22882e-06
5.22973e-06
5.23066e-06
5.2316e-06
5.23253e-06
5.23345e-06
5.23436e-06
5.23524e-06
5.23607e-06
5.23686e-06
5.23757e-06
5.23821e-06
5.23876e-06
5.2392e-06
5.23952e-06
5.23971e-06
5.23977e-06
5.23969e-06
5.23946e-06
5.2391e-06
5.23861e-06
5.23801e-06
5.23731e-06
5.23652e-06
5.23565e-06
5.23472e-06
5.23372e-06
5.23262e-06
5.23139e-06
5.23029e-06
5.22937e-06
5.22888e-06
5.22828e-06
5.22912e-06
5.21013e-06
5.21077e-06
5.21127e-06
5.21224e-06
5.21254e-06
5.21215e-06
5.21141e-06
5.21058e-06
5.20995e-06
5.20983e-06
5.2103e-06
5.21118e-06
5.21225e-06
5.21331e-06
5.21432e-06
5.21525e-06
5.21613e-06
5.21696e-06
5.21776e-06
5.21853e-06
5.21929e-06
5.22003e-06
5.22077e-06
5.2215e-06
5.22225e-06
5.22301e-06
5.22378e-06
5.22458e-06
5.22539e-06
5.22623e-06
5.2271e-06
5.22799e-06
5.2289e-06
5.22982e-06
5.23077e-06
5.23172e-06
5.23268e-06
5.23363e-06
5.23457e-06
5.23549e-06
5.23637e-06
5.2372e-06
5.23798e-06
5.23868e-06
5.2393e-06
5.23982e-06
5.24022e-06
5.24049e-06
5.24063e-06
5.24063e-06
5.24048e-06
5.24018e-06
5.23974e-06
5.23918e-06
5.23851e-06
5.23774e-06
5.23689e-06
5.23597e-06
5.23499e-06
5.23394e-06
5.23278e-06
5.23152e-06
5.23043e-06
5.22953e-06
5.22908e-06
5.22854e-06
5.22948e-06
5.21019e-06
5.21074e-06
5.21121e-06
5.21218e-06
5.21248e-06
5.21209e-06
5.21135e-06
5.21054e-06
5.20992e-06
5.20983e-06
5.21033e-06
5.21124e-06
5.21231e-06
5.21338e-06
5.21439e-06
5.21532e-06
5.2162e-06
5.21703e-06
5.21783e-06
5.2186e-06
5.21935e-06
5.22009e-06
5.22082e-06
5.22156e-06
5.2223e-06
5.22306e-06
5.22383e-06
5.22463e-06
5.22545e-06
5.22629e-06
5.22715e-06
5.22805e-06
5.22896e-06
5.2299e-06
5.23086e-06
5.23182e-06
5.2328e-06
5.23378e-06
5.23475e-06
5.2357e-06
5.23663e-06
5.23752e-06
5.23835e-06
5.23912e-06
5.2398e-06
5.24039e-06
5.24087e-06
5.24123e-06
5.24146e-06
5.24154e-06
5.24147e-06
5.24124e-06
5.24087e-06
5.24036e-06
5.23972e-06
5.23897e-06
5.23814e-06
5.23723e-06
5.23626e-06
5.23522e-06
5.23413e-06
5.23291e-06
5.23164e-06
5.23055e-06
5.22968e-06
5.22928e-06
5.2288e-06
5.22986e-06
5.21024e-06
5.21072e-06
5.21115e-06
5.21213e-06
5.21242e-06
5.21204e-06
5.2113e-06
5.21049e-06
5.2099e-06
5.20983e-06
5.21036e-06
5.21129e-06
5.21238e-06
5.21345e-06
5.21446e-06
5.21539e-06
5.21627e-06
5.2171e-06
5.2179e-06
5.21867e-06
5.21941e-06
5.22015e-06
5.22088e-06
5.22162e-06
5.22236e-06
5.22311e-06
5.22388e-06
5.22467e-06
5.22549e-06
5.22633e-06
5.2272e-06
5.2281e-06
5.22902e-06
5.22996e-06
5.23093e-06
5.23191e-06
5.23291e-06
5.23391e-06
5.23491e-06
5.23589e-06
5.23686e-06
5.23779e-06
5.23868e-06
5.23951e-06
5.24026e-06
5.24092e-06
5.24148e-06
5.24193e-06
5.24224e-06
5.24241e-06
5.24242e-06
5.24228e-06
5.24198e-06
5.24153e-06
5.24094e-06
5.24023e-06
5.23941e-06
5.2385e-06
5.23754e-06
5.23651e-06
5.23543e-06
5.2343e-06
5.23303e-06
5.23175e-06
5.23067e-06
5.22983e-06
5.22949e-06
5.22908e-06
5.23026e-06
5.2103e-06
5.21069e-06
5.21108e-06
5.21209e-06
5.21238e-06
5.21199e-06
5.21126e-06
5.21046e-06
5.20988e-06
5.20984e-06
5.21039e-06
5.21134e-06
5.21244e-06
5.21352e-06
5.21453e-06
5.21546e-06
5.21634e-06
5.21717e-06
5.21796e-06
5.21873e-06
5.21948e-06
5.22021e-06
5.22094e-06
5.22167e-06
5.22241e-06
5.22316e-06
5.22393e-06
5.22472e-06
5.22553e-06
5.22637e-06
5.22724e-06
5.22814e-06
5.22906e-06
5.23001e-06
5.23098e-06
5.23198e-06
5.23299e-06
5.23401e-06
5.23504e-06
5.23605e-06
5.23706e-06
5.23804e-06
5.23897e-06
5.23986e-06
5.24068e-06
5.24141e-06
5.24205e-06
5.24258e-06
5.24298e-06
5.24323e-06