/*--------------------------------*- C++ -*----------------------------------*\
  =========                 |
  \\      /  F ield         | OpenFOAM: The Open Source CFD Toolbox
   \\    /   O peration     | Website:  https://openfoam.org
    \\  /    A nd           | Version:  7
     \\/     M anipulation  |
\*---------------------------------------------------------------------------*/
FoamFile
{
    version     2.0;
    format      ascii;
    class       volScalarField;
    location    "400";
    object      p;
}
// * * * * * * * * * * * * * * * * * * * * * * * * * * * * * * * * * * * * * //

dimensions      [0 2 -2 0 0 0 0];

internalField   nonuniform List<scalar> 
23117
(
2.08445
5.9059
0.532258
8.99748
2.02392
0.58794
11.3516
4.001
2.01008
0.695205
13.3227
5.67992
3.74283
2.22333
0.607176
15.024
7.17273
5.29157
4.00692
1.92118
0.602861
16.5388
8.46472
6.75095
5.57456
3.61884
1.81407
0.619697
17.9105
9.60575
8.08226
7.0498
5.12681
3.46349
1.76689
0.622759
19.169
10.621
9.30988
8.40437
6.56847
4.93174
3.39886
1.70762
0.620985
20.3325
11.5337
10.4436
9.6617
7.90429
6.35795
4.84067
3.32077
1.67136
0.612164
21.4159
12.3604
11.4976
10.8287
9.15595
7.69296
6.25397
4.73962
3.26344
1.65231
0.59769
22.4288
13.1138
12.4824
11.9162
10.3275
8.95674
7.58402
6.14167
4.66386
3.22169
1.63813
0.584043
23.3791
13.8036
13.4073
12.9326
11.4281
10.1501
8.85178
7.46696
6.05674
4.60749
3.18465
1.62426
0.575599
24.2732
14.4376
14.2795
13.8856
12.4644
11.28
10.056
8.73771
7.37916
5.99166
4.55866
3.15069
1.60777
0.573136
25.1154
15.0219
15.1052
14.7813
13.4429
12.3515
11.2028
9.9514
8.65376
7.3114
5.93472
4.51447
3.11844
1.5876
0.574944
25.9112
15.5618
15.8892
15.6253
14.3691
13.3696
12.2958
11.1134
9.87705
8.58903
7.25207
5.88306
4.47225
3.08629
1.56461
0.578385
26.6634
16.0608
16.6355
16.4218
15.2477
14.3388
13.3394
12.2266
11.0538
9.8205
8.53223
7.19809
5.83372
4.42945
3.05323
1.54002
0.581269
27.3755
16.5229
17.3476
17.1748
16.0829
15.2628
14.3369
13.2945
12.1863
11.0102
9.77098
8.4803
7.14604
5.78384
4.38464
3.01851
1.51459
0.58247
28.0499
16.9509
18.0282
17.8875
16.8781
16.1449
15.2917
14.32
13.2775
12.1597
10.9723
9.72544
8.42954
7.09279
5.7316
4.3369
2.98146
1.48847
0.581762
28.6892
17.3476
18.6795
18.5623
17.6362
16.9881
16.2068
15.306
14.3296
13.2717
12.1374
10.9371
9.67998
8.37674
7.03631
5.67571
4.28561
2.94155
1.46144
0.579393
29.2956
17.7151
19.3036
19.2018
18.3598
17.7948
17.0845
16.2547
15.3452
14.348
13.2686
12.1164
10.9007
9.63138
8.31979
6.97523
5.61525
4.23028
2.89838
1.43306
0.575703
29.8708
18.0554
19.9022
19.8079
19.0511
18.567
17.9269
17.1684
16.326
15.3906
14.3673
13.2652
12.0927
10.8599
9.57754
8.25726
6.90856
5.54958
4.17049
2.85164
1.40295
0.57092
30.4169
18.3706
20.4769
20.3823
19.7119
19.3065
18.736
18.0487
17.2738
16.401
15.4353
14.3846
13.2574
12.0631
10.8127
9.51701
8.18815
6.83565
5.47824
4.10592
2.8011
1.37083
0.565134
30.9356
18.6621
21.029
20.9267
20.344
20.0148
19.5131
18.897
18.1901
17.3809
16.4738
15.4763
14.3959
13.2422
12.0256
10.7575
9.44881
8.11178
6.75605
5.40088
4.03627
2.74656
1.33649
0.558336
31.4285
18.9315
21.5596
21.4425
20.9488
20.6932
20.2598
19.7148
19.076
18.3312
17.4841
16.5411
15.5095
14.3981
13.2176
11.9789
10.6935
9.37235
8.02779
6.66948
5.31728
3.96134
2.68787
1.29982
0.550462
31.897
19.1801
22.0699
21.9309
21.5276
21.343
20.9772
20.503
19.9326
19.2529
18.4671
17.5803
16.599
15.5319
14.3894
13.1823
11.9221
10.6201
9.2873
7.93595
6.57578
5.22729
3.88096
2.62489
1.26071
0.541438
32.3426
19.4093
22.5608
22.3932
22.0817
21.9651
21.6663
21.2626
20.7607
20.1468
19.4234
18.5943
17.6652
16.6444
15.5417
14.3683
13.1355
11.8546
10.5371
9.19358
7.83624
6.47492
5.13084
3.79502
2.5575
1.21907
0.531193
32.7665
19.6203
23.0333
22.8304
22.6122
22.5606
22.3281
21.9945
21.561
21.0135
20.3536
19.5839
18.7089
17.7362
16.6754
15.5375
14.334
13.0766
11.7764
10.4445
9.09129
7.72874
6.3669
5.02787
3.70342
2.48559
1.17483
0.519659
33.1701
19.8142
23.4881
23.2437
23.12
23.1302
22.9635
22.6992
22.3341
21.8537
21.2583
20.5493
19.7303
18.8078
17.791
16.6906
15.5184
14.2862
13.0057
11.6877
10.3427
8.98068
7.61362
6.25182
4.9184
3.60612
2.40908
1.1279
0.506775
33.5546
19.9921
23.9262
23.6339
23.606
23.6747
23.5731
23.3774
23.0805
22.6675
22.1377
21.491
20.7296
19.8595
18.8888
17.8281
16.689
15.4839
14.2248
12.923
11.5887
10.2319
8.86208
7.49113
6.12981
4.80245
3.50306
2.32787
1.07822
0.492473
33.9211
20.155
24.3481
24.0021
24.0712
24.1949
24.1576
24.0296
23.8006
23.4553
22.992
22.4089
21.7072
20.8914
19.9692
18.9504
17.8465
16.6703
15.4343
14.1503
12.8291
11.4802
10.1128
8.73594
7.36156
6.00102
4.68006
3.39421
2.2419
1.02572
0.47669
34.2706
20.3038
24.7546
24.3492
24.5164
24.6915
24.7179
24.6564
24.4948
24.2174
23.8213
23.3032
22.6628
21.9037
21.0322
20.0576
18.9912
17.8458
16.6344
15.3697
14.0631
12.7246
11.3628
9.98595
8.60274
7.22524
5.86563
4.5513
3.27955
2.1511
0.970349
0.459356
34.6043
20.4395
25.1464
24.676
24.9424
25.1652
25.2544
25.2582
25.1634
24.954
24.6256
24.1737
23.5965
22.8961
22.0778
21.15
20.1234
19.0109
17.8258
16.5817
15.291
13.9643
12.6106
11.2373
9.85207
8.46299
7.0825
5.72383
4.41623
3.1591
2.05544
0.912068
0.440402
34.9232
20.563
25.524
24.9835
25.3498
25.6166
25.7678
25.8355
25.8068
25.6651
25.405
25.0203
24.5079
23.8685
23.1059
22.2273
21.2432
20.1658
19.0091
17.787
16.5131
15.1991
13.8548
12.4879
11.1047
9.71187
8.31723
6.93371
5.57581
4.27495
3.03287
1.95488
0.850838
0.419754
35.2282
20.675
25.8881
25.2725
25.7395
26.0464
26.2588
26.3887
26.4252
26.3509
26.1594
25.8428
25.3968
24.8204
24.1159
23.2895
22.3505
21.3109
20.1846
18.9862
17.73
16.4293
15.0951
13.7358
12.3577
10.9659
9.56612
8.16599
6.77919
5.42177
4.12755
2.9009
1.84941
0.786641
0.39735
35.52
20.7764
26.2393
25.5438
26.1121
26.4553
26.7278
26.9182
27.019
27.0117
26.8887
26.6411
26.2628
25.7514
25.1076
24.3361
23.4453
22.4462
21.3528
20.1798
18.9428
17.6559
16.3318
14.9804
13.6086
12.2212
10.8219
9.41553
8.00981
6.6193
5.26194
3.97416
2.76324
1.73905
0.719469
0.373121
35.7997
20.868
26.5779
25.7982
26.4683
26.8438
27.1757
27.4246
27.5886
27.6474
27.593
27.4147
27.1055
26.6609
26.0802
25.3666
24.5269
23.5716
22.5138
21.3686
20.152
18.8798
17.5658
16.2218
14.8563
13.4745
12.0795
10.6736
9.26085
7.84918
6.45439
5.09652
3.81491
2.61997
1.62382
0.649333
0.347007
36.068
20.9504
26.9046
26.0366
26.8087
27.2127
27.6028
27.9083
28.1342
28.2584
28.2721
28.1636
27.9243
27.5483
27.0331
26.3802
25.595
24.6866
23.6676
22.5528
21.3587
20.102
18.7984
17.4611
16.1009
14.7243
13.3349
11.9338
10.5219
9.10278
7.68463
6.28479
4.92573
3.64994
2.47119
1.50379
0.576243
0.318955
36.3256
21.0243
27.2197
26.2598
27.134
27.5625
28.0099
28.3698
28.6564
28.8447
28.9262
28.8876
28.719
28.413
27.9655
27.3761
26.6486
25.7907
24.8139
23.7327
22.5635
21.3239
20.031
18.7
17.3436
15.9706
14.5861
13.1911
11.7852
10.3678
8.94199
7.51661
6.11082
4.7498
3.47943
2.31705
1.37903
0.500231
0.288923
36.5732
21.0906
27.5238
26.4684
27.4447
27.894
28.3976
28.8096
29.1554
29.4068
29.5552
29.5863
29.4891
29.2545
28.8766
28.3534
27.6869
26.8831
25.9523
24.9081
23.7669
22.5465
21.2652
19.9402
18.5863
17.2148
15.8328
14.443
13.0446
11.6349
10.2122
8.77911
7.34556
5.93279
4.56898
3.30358
2.15769
1.24965
0.421346
0.256878
36.8116
21.1497
27.8173
26.6633
27.7414
28.2077
28.7665
29.2283
29.6317
29.9448
30.1593
30.2598
30.2342
30.072
29.7656
29.3112
28.7088
27.9628
27.0818
26.0786
24.9688
23.7704
22.5025
21.1838
19.8313
18.459
17.0765
15.689
14.2968
12.8967
11.484
10.0557
8.61472
7.17192
5.75101
4.38352
3.12259
1.99328
1.11579
0.339642
0.222798
37.0415
21.2023
28.1005
26.8452
28.0246
28.5044
29.1171
29.6263
30.0859
30.459
30.7386
30.908
30.954
30.865
30.6316
30.2483
29.7131
29.0285
28.2016
27.2435
26.169
24.996
23.744
22.4327
21.0812
19.706
18.3198
16.9305
15.5409
14.1489
12.7485
11.3334
9.89931
8.44937
6.99606
5.56581
4.19366
2.93671
1.82405
0.977604
0.255185
0.186684
37.2633
21.2489
28.3738
27.0147
28.2949
28.7847
29.4501
30.0044
30.5183
30.95
31.2934
31.5307
31.6483
31.6329
31.4739
31.1638
30.6987
30.0791
29.3103
28.4017
27.3671
26.2234
24.9903
23.6885
22.3385
20.9591
19.566
18.1706
16.7787
15.3903
14.0007
12.6014
11.184
9.74355
8.28355
6.81836
5.37746
3.99968
2.74621
1.65022
0.835289
0.168062
0.148544
37.4776
21.2902
28.6376
27.1727
28.5528
29.0492
29.7662
30.363
30.9296
31.4179
31.8238
32.1282
32.3168
32.3754
32.2917
32.0566
31.6642
31.1132
30.4066
29.552
28.5618
27.4521
26.2419
24.9524
23.6053
22.2214
20.8192
19.4134
18.0134
16.6227
15.2388
13.8536
12.4564
11.0367
9.58908
8.11771
6.63916
5.18627
3.80188
2.55137
1.47206
0.68907
0.078355
0.108404
37.6851
21.3267
28.8921
27.3198
28.7988
29.2986
30.0658
30.7027
31.3203
31.8634
32.3302
32.7005
32.9595
33.0919
33.0843
32.9257
32.6086
32.1293
31.4888
30.693
29.7521
28.6811
27.4984
26.225
24.8833
23.4958
22.0832
20.6636
19.25
17.8501
16.4645
15.0878
13.709
12.3145
10.8923
9.43645
7.95225
6.45877
4.99253
3.60055
2.35251
1.28986
0.539179
-0.013849
0.0663162
37.8862
21.3588
29.1376
27.4566
29.0333
29.5335
30.3498
31.0243
31.6909
32.287
32.813
33.2478
33.5763
33.7823
33.8511
33.7703
33.5305
33.1259
32.5555
31.8228
30.9364
29.9094
28.7592
27.5064
26.1736
24.7844
23.3616
21.9258
20.494
19.0778
17.6824
16.3057
14.9389
13.568
12.1767
10.7515
9.28615
7.78752
6.2775
4.79654
3.396
2.14998
1.10392
0.385872
-0.108436
0.0223541
38.0814
21.3869
29.3744
27.5838
29.2567
29.7545
30.6185
31.3282
32.0422
32.689
33.2726
33.7703
34.1673
34.4462
34.5916
34.5895
34.4287
34.1016
33.6049
32.9398
32.1128
31.1353
30.0231
28.7961
27.4766
26.0889
24.6571
23.2045
21.751
20.3124
18.8986
17.5121
16.1478
14.7934
13.4316
12.0438
10.6147
9.13858
7.62384
6.09562
4.59859
3.18858
1.94412
0.91455
0.22945
-0.205293
-0.0233985
38.2713
21.4117
29.6028
27.7019
29.4696
29.9623
30.8727
31.6152
32.3746
33.0702
33.7094
34.2685
34.7325
35.0836
35.3053
35.3825
35.3022
35.055
34.6352
34.042
33.2795
32.357
31.2887
30.0931
28.7922
27.4101
25.9722
24.5033
23.0263
21.5608
20.1209
18.7144
17.3411
15.9923
14.6525
13.301
11.9164
10.4826
8.99411
7.46148
5.9134
4.39899
2.97861
1.73529
0.722111
0.0702275
-0.304311
-0.0708321
38.456
21.4334
29.823
27.8117
29.6722
30.1575
31.1129
31.8858
32.6889
33.4312
34.1241
34.7426
35.2722
35.6944
35.992
36.1486
36.15
35.9847
35.6449
35.1276
34.4344
33.5725
32.554
31.396
30.1194
28.7482
27.308
25.8251
24.3246
22.8292
21.3572
19.9213
18.527
17.1708
15.8408
14.5175
13.1769
11.7953
10.3556
8.85303
7.3007
5.7311
4.19804
2.76643
1.5239
0.526967
-0.0914844
-0.405371
-0.119809
38.6362
21.4524
30.0351
27.9135
29.8649
30.3406
31.3397
32.1408
32.9856
33.7724
34.5171
35.1932
35.7868
36.2787
36.6514
36.8874
36.9711
36.8893
36.6323
36.1945
35.5753
34.7794
33.8169
32.7028
31.4569
30.1025
28.6651
27.1719
25.6495
24.1231
22.6149
21.1421
19.7156
18.338
17.0029
15.6944
14.3893
13.0602
11.681
10.234
8.71557
7.14169
5.54895
3.99601
2.55241
1.31037
0.329474
-0.255343
-0.508332
-0.170191
38.8121
21.4692
30.2394
28.0081
30.0482
30.5123
31.5536
32.3807
33.2655
34.0946
34.889
35.6208
36.2765
36.8367
37.2834
37.5984
37.7648
37.7679
37.5958
37.2409
36.7001
35.9755
35.0749
34.0114
32.803
31.4718
30.0432
28.5445
27.0034
25.4471
23.9008
22.3856
20.9175
19.5054
18.1491
16.8387
15.5543
14.2688
12.9513
11.5739
10.1181
8.58193
6.98464
5.36715
3.79322
2.33692
1.09509
0.130016
-0.42098
-0.613084
-0.22181
38.9841
21.4841
30.4359
28.0959
30.2223
30.6731
31.7553
32.6062
33.5291
34.3985
35.2405
36.0258
36.7417
37.3686
37.8881
38.2813
38.5304
38.6191
38.534
38.2649
37.8064
37.1583
36.3256
35.3193
34.1553
32.8544
31.4412
29.9428
28.3877
26.8043
25.22
23.6595
22.1431
20.6852
19.2925
17.9618
16.6795
15.4216
14.1568
12.851
11.4742
10.008
8.45225
6.82969
5.18594
3.58999
2.12033
0.878479
-0.0709986
-0.588059
-0.71949
-0.27448
39.1526
21.4974
30.625
28.1774
30.3876
30.8236
31.9452
32.8179
33.7772
34.6846
35.5723
36.4089
37.183
37.8747
38.4655
38.936
39.2674
39.4423
39.4454
39.2647
38.8923
38.3253
37.5663
36.6236
35.5112
34.248
32.8575
31.3662
29.8027
28.1966
26.5767
24.9702
23.4013
21.8893
20.447
19.0785
17.7775
16.5265
15.2972
14.054
12.7596
11.3823
9.90398
8.3266
6.67698
5.00554
3.38661
1.90301
0.660998
-0.273206
-0.756207
-0.827406
-0.328009
39.3179
21.5093
30.8067
28.2532
30.5444
30.9643
32.1238
33.0164
34.0103
34.9537
35.8849
36.7708
37.601
38.3555
39.0158
39.5623
39.9755
40.2366
40.329
40.2387
39.9556
39.4741
38.7942
37.9217
36.8679
35.65
34.2898
32.813
31.248
29.6247
27.9731
26.3225
24.6998
23.1282
21.6261
20.2045
18.8648
17.5975
16.3808
15.1818
13.9608
12.6774
11.2983
9.80599
8.20506
6.52662
4.82612
3.18336
1.68536
0.443038
-0.476204
-0.925045
-0.936695
-0.382191
39.4803
21.5202
30.9811
28.3236
30.693
31.0958
32.2917
33.2023
34.2291
35.2065
36.1791
37.112
37.9961
38.8113
39.5394
40.1604
40.6542
41.0014
41.1837
41.1854
40.9943
40.6023
40.0067
39.2104
38.2224
37.0574
35.7355
34.2811
32.722
31.0882
29.4105
27.7194
26.0439
24.4106
22.8421
21.3552
19.9592
18.6529
17.423
16.2432
15.0761
13.8778
12.6047
11.2223
9.71407
8.08765
6.3787
4.64789
2.98059
1.46773
0.225037
-0.679586
-1.09421
-1.04722
-0.436819
39.6399
21.5302
31.1483
28.3891
30.8336
31.2185
32.4493
33.3763
34.4342
35.4435
36.4556
37.4333
38.3691
39.2428
40.0367
40.7304
41.3037
41.7361
42.0085
42.1035
42.0066
41.7076
41.2009
40.4868
39.5714
38.4669
37.1914
35.7678
34.2227
32.586
30.8888
29.1624
27.4375
25.743
24.1048
22.5447
21.0783
19.7127
18.4439
17.2548
16.1145
14.9807
13.8052
12.5415
11.1542
9.62819
7.97436
6.2333
4.47105
2.77855
1.25049
0.00742892
-0.882965
-1.26334
-1.15885
-0.491661
39.7971
21.5397
31.3085
28.45
30.9666
31.333
32.5971
33.5388
34.6263
35.6656
36.7151
37.7353
38.7206
39.6506
40.508
41.2726
41.9237
42.4406
42.8028
42.9917
42.9909
42.7878
42.3743
41.7478
40.9116
39.8753
38.6544
37.27
35.7476
34.1161
32.4068
30.6517
28.8824
27.1296
25.4218
23.7842
22.2378
20.7968
19.4662
18.2391
17.094
15.9955
14.8961
13.7433
12.488
11.0941
9.54827
7.86514
6.09049
4.29576
2.57755
1.03404
-0.209377
-1.08596
-1.43209
-1.27141
-0.546501
39.9522
21.5488
31.4617
28.5069
31.0922
31.4397
32.7357
33.6905
34.806
35.8733
36.9582
38.0188
39.0513
40.0353
40.954
41.7873
42.5146
43.1145
43.566
43.8491
43.9457
43.841
43.5244
42.9906
42.2399
41.2789
40.1208
38.7842
37.2933
35.6759
33.9629
32.1864
30.3792
28.5729
26.798
25.0824
23.4508
21.923
20.5122
19.221
18.0393
16.9414
15.8866
14.8224
13.6921
12.444
11.0418
9.47419
7.75998
5.95032
4.1222
2.37789
0.818731
-0.424984
-1.28822
-1.60009
-1.38477
-0.601121
40.1051
21.5577
31.608
28.56
31.2106
31.5391
32.8654
33.832
34.9738
36.0674
37.1857
38.2846
39.362
40.3976
41.3752
42.275
43.0764
43.7579
44.2977
44.6748
44.8696
44.8652
44.6489
44.2122
43.5528
42.6743
41.5868
40.3069
38.8565
37.2622
35.5543
33.7649
31.9271
30.0737
28.2363
26.4449
24.7268
23.1061
21.6019
20.2258
18.9782
17.8455
16.7975
15.7882
14.7599
13.6517
12.4094
10.9971
9.40581
7.65877
5.81283
3.95056
2.17985
0.604909
-0.639012
-1.48932
-1.76701
-1.49878
-0.655294
40.2564
21.5666
31.7476
28.6097
31.3221
31.6316
32.9866
33.9637
35.1304
36.2484
37.3982
38.5333
39.6533
40.7381
41.7723
42.7363
43.6097
44.3709
44.9977
45.4682
45.7614
45.8589
45.7454
45.41
44.8472
44.0577
43.0488
41.834
40.4333
38.8716
37.178
35.3845
33.5244
31.6311
29.7376
27.8749
26.0724
24.3569
22.752
21.2759
19.9387
18.7387
17.6585
16.663
15.7008
14.7088
13.622
12.3842
10.9598
9.34292
7.56143
5.67809
3.781
1.9837
0.392907
-0.851048
-1.68893
-1.93253
-1.61327
-0.70881
40.406
21.5756
31.8803
28.6563
31.427
31.7176
33.0998
34.0862
35.2763
36.4171
37.5965
38.7656
39.9261
41.0577
42.146
43.1717
44.1148
44.9536
45.6658
46.2287
46.6204
46.8206
46.812
46.5813
46.12
45.4257
44.5027
43.3616
42.0197
40.5001
38.8305
37.0423
35.1687
33.2438
31.3012
29.3734
27.491
25.6826
23.9746
22.3899
20.9461
19.652
18.5033
17.4788
16.5383
15.6245
14.6691
13.6028
12.368
10.9297
9.28535
7.46789
5.54612
3.61368
1.7897
0.183093
-1.06076
-1.88673
-2.09632
-1.72809
-0.761463
40.5542
21.5848
32.0065
28.7002
31.5254
31.7975
33.2053
34.2
35.412
36.5739
37.7813
38.9824
40.181
41.3572
42.4971
43.5819
44.5922
45.5065
46.3021
46.9561
47.4457
47.749
47.847
47.7237
47.3682
46.7749
45.9447
44.8855
43.6116
42.1437
40.508
38.7348
36.8571
34.9093
32.9258
30.94
28.9838
27.0869
25.2776
23.5815
22.0213
20.6139
19.3667
18.2729
17.3071
16.4237
15.5595
14.6406
13.594
12.3605
10.9064
9.23286
7.37803
5.41694
3.44875
1.59812
-0.0242361
-1.2678
-2.08235
-2.25811
-1.84309
-0.813056
40.701
21.5943
32.126
28.7416
31.6175
31.8716
33.3037
34.3055
35.5381
36.7196
37.9532
39.1842
40.419
41.6372
42.8262
43.9677
45.0426
46.0299
46.9069
47.6504
48.2367
48.6431
48.8486
48.8352
48.5891
48.1019
47.3712
46.4015
45.2044
43.7979
42.2061
40.458
38.5861
36.6247
34.6089
32.5731
30.5502
28.5711
26.665
24.8592
23.1793
21.6474
20.2802
19.0836
18.048
17.1438
16.3195
15.5058
14.6232
13.5952
12.3614
10.8897
9.18524
7.29175
5.29059
3.28638
1.40921
-0.228785
-1.47183
-2.27548
-2.41761
-1.9581
-0.863417
40.8465
21.6043
32.239
28.7807
31.7036
31.9405
33.3951
34.4033
35.6552
36.8548
38.1127
39.372
40.6406
41.8986
43.1343
44.3297
45.4667
46.5243
47.4804
48.3114
48.9932
49.502
49.8155
49.9136
49.7801
49.4034
48.7782
47.9057
46.7939
45.4583
43.9206
42.2079
40.3518
38.3866
36.3477
34.2704
32.1886
30.1345
28.138
26.2274
24.4294
22.7694
21.2695
19.946
18.8034
17.8293
16.9892
16.2258
15.4633
14.6168
13.6062
12.3703
10.8792
9.14223
7.20892
5.1671
3.12671
1.22318
-0.430237
-1.67255
-2.46584
-2.57455
-2.07298
-0.912371
40.9912
21.6148
32.3455
28.8178
31.7839
32.0043
33.48
34.4938
35.7636
36.9799
38.2607
39.5462
40.8467
42.1423
43.422
44.6689
45.8651
46.9905
48.0231
48.9394
49.7149
50.3252
50.7466
50.9573
50.9387
50.6766
50.1623
49.3937
48.3757
47.1203
45.6466
43.9798
42.1502
40.1913
38.1389
36.029
33.8967
31.7752
29.6957
27.6869
25.7761
23.9899
22.3532
20.8886
19.6121
18.5269
17.6172
16.8437
16.1427
15.4319
14.6209
13.6265
12.3869
10.8745
9.10358
7.12946
5.0465
2.96987
1.04029
-0.628338
-1.86968
-2.65312
-2.72874
-2.18754
-0.959754
41.1353
21.6258
32.4455
28.8532
31.8586
32.0634
33.5587
34.5773
35.8639
37.0956
38.3977
39.7076
41.0381
42.3689
43.6904
44.986
46.2388
47.4292
48.5355
49.5346
50.4019
51.1122
51.641
51.9648
52.063
51.9186
51.5201
50.8618
49.9452
48.7791
47.3795
45.7692
43.9767
42.0347
39.9788
37.8457
35.6715
33.4908
31.3359
29.2364
27.2201
25.3133
23.5421
21.932
20.5058
19.2793
18.2544
17.412
16.7073
16.0702
15.4114
14.6354
13.6557
12.4107
10.8754
9.06906
7.05323
4.92878
2.816
0.860719
-0.822821
-2.06296
-2.8371
-2.87991
-2.30162
-1.00543
41.2785
21.6372
32.5393
28.887
31.9279
32.1182
33.6316
34.6544
35.9565
37.2023
38.5242
39.8569
41.2153
42.5792
43.94
45.2818
46.5885
47.841
49.0183
50.0976
51.0542
51.8629
52.498
52.9349
53.1509
53.127
52.8483
52.3061
51.4982
50.43
49.1143
47.571
45.8265
43.9124
41.8635
39.717
37.51
35.2784
33.0559
30.8735
28.7594
26.7399
24.8408
23.0877
21.5069
20.1218
18.9482
17.9866
17.2141
16.5803
16.0081
15.4016
14.6597
13.6934
12.4412
10.8813
9.0384
6.98012
4.814
2.66524
0.684683
-1.01345
-2.25217
-3.0175
-3.02786
-2.41506
-1.04929
41.4188
21.6496
32.627
28.9194
31.992
32.1688
33.699
34.7253
36.0419
37.3006
38.6409
39.9948
41.3792
42.7741
44.1719
45.5573
46.9151
48.2268
49.4722
50.6288
51.6723
52.577
53.317
53.8664
54.201
54.2993
54.144
53.7229
53.0305
52.0684
50.846
49.3802
47.6948
45.8196
43.7888
41.6392
39.4089
37.135
34.853
32.5952
30.3911
28.2672
26.2486
24.3602
22.628
21.0789
19.7374
18.6195
17.7238
17.0237
16.4627
15.9564
15.4021
14.6935
13.739
12.478
10.8921
9.01137
6.91004
4.70216
2.5177
0.512358
-1.20004
-2.43707
-3.19407
-3.17241
-2.5277
-1.09123
41.5574
21.664
32.7084
28.9506
32.051
32.2156
33.761
34.7905
36.1204
37.391
38.7483
40.1217
41.5305
42.9543
44.3868
45.8133
47.2194
48.5875
49.898
51.129
52.2565
53.2549
54.0979
54.7588
55.2119
55.4337
55.4044
55.1088
54.5379
53.6896
52.5697
51.1916
49.5764
47.7515
45.7499
43.6082
41.3645
39.0575
36.724
34.3985
32.1118
29.8915
27.7623
25.7481
23.8733
22.1643
20.6491
19.3534
18.2935
17.4663
16.841
16.3544
15.9149
15.4125
14.7362
13.7921
12.5206
10.9071
8.98771
6.84288
4.59329
2.37349
0.343889
-1.38235
-2.61742
-3.36662
-3.31342
-2.6394
-1.13116
41.7017
21.6792
32.7832
28.981
32.1052
32.2587
33.8181
34.8503
36.1926
37.4739
38.847
40.2384
41.6697
43.1205
44.5855
46.0506
47.5023
48.924
50.2966
51.5989
52.8074
53.8969
54.8406
55.6114
56.1824
56.5284
56.6272
56.4607
56.0166
55.2892
54.2803
52.9999
51.4658
49.7028
47.7422
45.6194
43.3731
41.0425
38.6662
36.2805
33.9183
31.6088
29.3774
27.2471
25.2405
23.3816
21.6976
20.2181
18.9703
17.9708
17.2145
16.666
16.2554
15.8832
15.4326
14.7874
13.8522
12.5685
10.9262
8.96719
6.77853
4.48739
2.23269
0.179458
-1.56017
-2.79308
-3.53496
-3.45073
-2.74997
-1.16901
41.8547
21.6901
32.8514
29.0108
32.1549
32.2986
33.8706
34.9051
36.2586
37.5498
38.9374
40.3455
41.7977
43.2735
44.7688
46.2701
47.7649
49.2371
50.6687
52.0393
53.3258
54.5033
55.5452
56.4239
57.1117
57.5819
57.8102
57.7757
57.463
56.8628
55.973
54.7999
53.3576
51.6681
49.7602
47.6683
45.4305
43.0866
40.6765
38.2386
35.8079
33.4158
31.0892
28.8515
26.7238
24.7275
22.8865
21.2291
19.7868
18.5887
17.6516
16.9685
16.4988
16.1655
15.8611
15.4617
14.8466
13.9186
12.6213
10.9489
8.94958
6.7169
4.38446
2.09543
0.0192314
-1.73336
-2.9639
-3.69892
-3.58421
-2.85927
-1.20473
41.9916
21.6963
32.9156
29.0396
32.2
32.3355
33.9186
34.9551
36.319
37.6191
39.02
40.4434
41.9149
43.4139
44.9375
46.4727
48.0078
49.5278
51.0154
52.451
53.8123
55.0747
56.212
57.1963
57.9993
58.5931
58.9514
59.0512
58.8737
58.4063
57.6431
56.5862
55.2462
53.6416
51.7987
49.7497
47.532
45.1857
42.7517
40.27
37.7781
35.3097
32.8941
30.556
28.3164
26.1946
24.2108
22.3892
20.7597
19.3559
18.209
17.3364
16.7285
16.3394
16.0846
15.8483
15.4995
14.9131
13.9908
12.6785
10.9749
8.93467
6.65788
4.28455
1.96182
-0.13669
-1.90178
-3.12973
-3.85834
-3.71376
-2.96716
-1.23829
42.0805
21.717
32.9771
29.0662
32.2405
32.3695
33.9626
35.0006
36.374
37.6822
39.0953
40.5327
42.022
43.5426
45.0924
46.6592
48.2322
49.7971
51.3377
52.8351
54.2678
55.612
56.8415
57.9288
58.8448
59.561
60.0494
60.2848
60.2457
59.9159
59.2858
58.3537
57.126
55.6177
53.8516
51.8581
49.6729
47.3357
44.8882
42.3719
39.8264
37.2883
34.7893
32.3564
30.012
27.7745
25.6614
23.6921
21.8911
20.2901
18.9258
17.8317
17.0253
16.4946
16.1878
16.0124
15.8442
15.5453
14.9864
14.0684
12.7396
11.0039
8.92222
6.60141
4.18767
1.83191
-0.288201
-2.0653
-3.29045
-4.01308
-3.83928
-3.07347
-1.26966
42.1848
21.7747
33.0285
29.0912
32.277
32.4005
34.0026
35.0422
36.424
37.7394
39.1637
40.6139
42.1196
43.66
45.2342
46.8304
48.4388
50.0459
51.6365
53.1924
54.6933
56.1157
57.4343
58.6215
59.6482
60.485
61.1029
61.4747
61.5761
61.388
60.897
60.0974
58.9915
57.5903
55.9133
53.9878
51.8478
49.5319
47.0821
44.5411
41.9507
39.3496
36.7728
34.2501
31.8059
29.4599
27.2281
25.1262
23.1727
21.393
19.8213
18.4973
17.4571
16.7187
16.2669
16.0439
15.9487
15.8486
15.5988
15.066
14.1507
12.8042
11.0354
8.91205
6.54741
4.09381
1.70576
-0.435193
-2.22378
-3.44595
-4.16303
-3.96069
-3.17807
-1.29884
42.3603
21.8167
33.0589
29.1207
32.3106
32.4283
34.0387
35.0799
36.4695
37.7912
39.2256
40.6875
42.2083
43.767
45.3636
46.9871
48.6285
50.2752
51.9127
53.5241
55.0897
56.587
57.9911
59.275
60.4095
61.3649
62.111
62.619
62.8625
62.8193
62.4726
61.8124
60.8372
59.5536
57.9775
56.1327
54.0508
51.7692
49.3293
46.7744
44.1482
41.4918
38.8432
36.2352
33.6953
31.2454
28.9022
26.6794
24.5907
22.654
20.896
19.3537
18.0706
17.0855
16.4166
16.0455
15.9076
15.8933
15.8611
15.6593
15.1512
14.2373
12.8717
11.0692
8.90398
6.49579
4.00299
1.58346
-0.577572
-2.37714
-3.59617
-4.30807
-4.07793
-3.28083
-1.32584
42.415
21.7448
33.0882
29.161
32.3406
32.4535
34.0708
35.1138
36.5107
37.838
39.2814
40.754
42.2886
43.864
45.4814
47.1301
48.8022
50.4858
52.1675
53.8312
55.458
57.0266
58.5128
59.8899
61.1291
62.2004
63.0729
63.7165
64.1028
64.2069
64.0086
63.4942
62.6577
61.5018
60.0379
58.2865
56.2761
54.0419
51.6246
49.0678
46.416
43.7129
40.999
38.3107
35.6788
33.1282
30.6778
28.3415
26.1305
24.0565
22.1372
20.401
18.8881
17.6462
16.7171
16.1192
15.8304
15.7787
15.8457
15.881
15.7263
15.2416
14.3275
12.9419
11.105
8.8978
6.44647
3.91522
1.46506
-0.715267
-2.52529
-3.74101
-4.44812
-4.19096
-3.38162
-1.35068
42.4721
21.7186
33.1386
29.1949
32.3648
32.4793
34.0999
35.1433
36.5474
37.8803
39.3318
40.8137
42.3608
43.9516
45.5881
47.2602
48.9608
50.6788
52.4018
54.1146
55.7994
57.4357
59.0002
60.4669
61.8075
62.9917
63.9884
64.7662
65.2953
65.5482
65.5016
65.1383
64.448
63.429
62.0884
60.4428
58.5171
56.3441
53.9629
51.4166
48.7507
46.0104
43.239
40.476
37.7559
35.107
32.5516
30.1056
27.78
25.5831
23.525
21.6234
19.9087
18.425
17.2246
16.3524
15.8268
15.6215
15.6572
15.8057
15.908
15.7993
15.3365
14.4209
13.0143
11.1425
8.89336
6.3994
3.83049
1.3506
-0.848216
-2.66816
-3.88045
-4.58312
-4.29973
-3.48031
-1.37339
42.5292
21.6918
33.152
29.1817
32.3853
32.5079
34.1278
35.1695
36.5793
37.9178
39.3772
40.8674
42.4256
44.0304
45.6845
47.378
49.105
50.855
52.6166
54.3755
56.1149
57.8154
59.4545
61.007
62.4452
63.739
64.8571
65.7674
66.4385
66.8409
66.9486
66.7407
66.2031
65.3296
64.1228
62.5949
60.7672
58.6693
56.3381
53.8159
51.1481
48.3814
45.5613
42.7303
39.9265
37.1822
34.5231
31.9686
29.5316
27.2198
25.0389
22.9976
21.1136
19.4198
17.9649
16.8059
15.9914
15.5394
15.419
15.5427
15.7729
15.9415
15.8776
15.4353
14.517
13.0884
11.1813
8.89049
6.35451
3.74883
1.24014
-0.976366
-2.80569
-4.01443
-4.713
-4.40422
-3.5768
-1.39401
42.5868
21.6653
33.1659
29.1751
32.3978
32.531
34.1556
35.1957
36.6073
37.9499
39.4173
40.9155
42.4837
44.1009
45.771
47.4844
49.2356
51.0153
52.8128
54.6148
56.4056
58.1667
59.8766
61.5111
63.043
64.4429
65.6793
66.7196
67.5314
68.0833
68.3468
68.2979
67.9185
67.1982
66.1349
64.7364
63.0196
61.0108
58.744
56.2599
53.6036
50.8224
47.9637
45.0726
42.1907
39.3543
36.593
33.9301
31.3819
28.9578
26.6628
24.4997
22.4756
20.6087
18.935
17.5081
16.3906
15.6344
15.257
15.2226
15.4351
15.7469
15.9812
15.9608
15.5376
14.6153
13.1639
11.2214
8.88906
6.31175
3.67021
1.1337
-1.09968
-2.93786
-4.14293
-4.83773
-4.50443
-3.67097
-1.4126
42.6447
21.6393
33.1793
29.1684
32.3992
32.5267
34.178
35.2247
36.6351
37.9773
39.4512
40.9579
42.5357
44.1639
45.8483
47.5798
49.3535
51.1606
52.9914
54.8337
56.6726
58.4908
60.2678
61.9803
63.6021
65.1041
66.4552
67.6227
68.5731
69.2737
69.6938
69.8064
69.5899
69.0295
68.1188
66.8606
65.2674
63.3614
61.1737
58.7425
56.1118
53.3291
50.443
47.5012
44.5481
41.624
38.7627
35.9916
33.331
30.7938
28.3866
26.1109
23.9668
21.96
20.1095
18.4548
17.0552
15.9789
15.2816
14.9798
15.0324
15.3341
15.7273
16.0264
16.0482
15.6427
14.7154
13.2405
11.2623
8.88892
6.27105
3.59465
1.03131
-1.21812
-3.06462
-4.26595
-4.95728
-4.60035
-3.76272
-1.42921
42.7026
21.6136
33.1921
29.1619
32.4008
32.5226
34.1789
35.2472
36.6662
38.0053
39.4798
40.9934
42.5813
44.2202
45.9172
47.6649
49.4593
51.2917
53.1534
55.0331
56.9171
58.7888
60.6292
62.4158
64.1233
65.7234
67.1854
68.4767
69.5632
70.4111
70.9877
71.2635
71.2134
70.8188
70.0686
68.9609
67.5036
65.7142
63.6201
61.2569
58.6667
55.8965
52.9956
50.0136
46.9979
43.9919
41.0338
38.1553
35.3811
32.7283
30.2068
27.8199
25.5656
23.4415
21.4518
19.6167
17.9797
16.6063
15.5711
14.9331
14.7079
14.8482
15.2395
15.7138
16.0766
16.1394
15.7503
14.8167
13.3178
11.3039
8.88994
6.23238
3.52214
0.932984
-1.33168
-3.18597
-4.38349
-5.07163
-4.69198
-3.85198
-1.4439
42.7597
21.5882
33.2049
29.1554
32.4022
32.5186
34.176
35.2405
36.69
38.0383
39.5091
41.0227
42.6191
44.2695
45.9788
47.7408
49.5535
51.4093
53.2997
55.2141
57.14
59.062
60.962
62.8187
64.6078
66.3018
67.8707
69.282
70.5015
71.4946
72.2269
72.6666
72.7857
72.5616
71.979
71.0312
69.7211
68.0616
66.0758
63.7958
61.2616
58.5188
55.6169
52.6067
49.5381
46.4577
43.4075
40.4237
37.5354
34.7643
32.1246
29.6231
27.2595
25.0286
22.9251
20.952
19.131
17.5101
16.1619
15.1674
14.5891
14.4413
14.67
15.1511
15.706
16.1315
16.2337
15.8597
14.9189
13.3955
11.346
8.89202
6.19567
3.45268
0.838738
-1.44035
-3.3019
-4.49555
-5.18079
-4.77935
-3.93866
-1.45675
42.8182
21.5624
33.2175
29.1496
32.4036
32.5146
34.1733
35.2345
36.6818
38.0628
39.5448
41.0531
42.6499
44.3099
46.0325
47.8084
49.6375
51.5141
53.4309
55.3776
57.3425
59.3115
61.2675
63.1903
65.0567
66.8404
68.512
70.0392
71.3882
72.5237
73.4102
74.0137
74.3037
74.2539
73.8449
73.0653
71.9131
70.3962
68.5331
66.3518
63.8894
61.1897
58.3017
55.2767
52.1663
49.0205
45.8846
42.799
39.7974
36.9061
34.144
31.5223
29.0446
26.707
24.501
22.4185
20.4612
18.6528
17.0465
15.7222
14.7679
14.2498
14.18
14.4977
15.0686
15.7034
16.1904
16.3307
15.9704
15.0215
13.4732
11.3884
8.89504
6.1609
3.38624
0.748579
-1.54412
-3.41243
-4.60217
-5.28477
-4.86247
-4.02268
-1.46783
42.8772
21.5377
33.2296
29.1441
32.4048
32.5107
34.1704
35.2288
36.6746
38.0493
39.5709
41.0917
42.6821
44.3424
46.0763
47.8674
49.7123
51.6075
53.5479
55.5245
57.5257
59.5384
61.5467
63.5319
65.4715
67.3404
69.1101
70.7492
72.2237
73.4982
74.5366
75.3031
75.7647
75.892
75.6617
75.0576
74.073
72.7107
70.9841
68.9169
66.5425
63.9022
61.0437
58.0185
54.8793
51.6784
48.4647
45.2826
42.1699
39.1579
36.2702
33.5227
30.9235
28.473
26.164
23.9842
21.9227
19.9802
18.1827
16.5891
15.2875
14.373
13.9152
13.924
14.3312
14.9917
15.7057
16.2529
16.4299
16.0821
15.1243
13.5508
11.4308
8.8989
6.128
3.32284
0.6625
-1.64302
-3.51756
-4.70337
-5.38358
-4.94137
-4.10398
-1.47721
42.9362
21.5136
33.2414
29.1385
32.406
32.5067
34.1675
35.2229
36.6678
38.0396
39.5536
41.1193
42.7241
44.3766
46.111
47.9152
49.7775
51.6907
53.6522
55.6555
57.6904
59.7439
61.8012
63.8446
65.8534
67.8031
69.6664
71.4127
73.0086
74.4184
75.6057
76.5334
77.1665
77.4727
77.4249
77.0028
76.1945
74.9978
73.421
71.4829
69.2127
66.6486
63.8362
60.8263
57.6726
54.4287
51.1469
47.875
44.6554
41.5238
38.5086
35.6306
32.9027
30.3302
27.91
25.6317
23.4792
21.4385
19.5097
17.7211
16.1384
14.858
13.9828
13.5855
13.6735
14.1703
14.9202
15.7123
16.3185
16.5308
16.1943
15.2268
13.6279
11.4732
8.90352
6.09696
3.26244
0.580494
-1.73704
-3.61734
-4.79919
-5.47726
-5.0161
-4.18251
-1.48498
42.9958
21.4897
33.2528
29.1333
32.407
32.5028
34.1645
35.2171
36.6607
38.0303
39.5418
41.0969
42.7537
44.4225
46.1479
47.9528
49.8302