/*--------------------------------*- C++ -*----------------------------------*\
  =========                 |
  \\      /  F ield         | OpenFOAM: The Open Source CFD Toolbox
   \\    /   O peration     | Website:  https://openfoam.org
    \\  /    A nd           | Version:  7
     \\/     M anipulation  |
\*---------------------------------------------------------------------------*/
FoamFile
{
    version     2.0;
    format      ascii;
    class       surfaceScalarField;
    location    "400";
    object      phi;
}
// * * * * * * * * * * * * * * * * * * * * * * * * * * * * * * * * * * * * * //

dimensions      [0 3 -1 0 0 0 0];

internalField   nonuniform List<scalar> 
45906
(
-0.301587
0.0679563
-0.301378
0.0657855
-0.289965
0.0678128
-0.301265
0.0636791
-0.289831
0.0656515
-0.278602
0.0676932
-0.301193
0.0616237
-0.28971
0.0635582
-0.278492
0.065542
-0.267705
0.0675637
-0.301144
0.059631
-0.289614
0.061527
-0.27839
0.0634559
-0.267591
0.065428
-0.257204
0.0674457
-0.301108
0.0577023
-0.289536
0.0595531
-0.278299
0.0614366
-0.267488
0.0633524
-0.257091
0.065315
-0.246965
0.0673247
-0.301079
0.0558637
-0.289472
0.0576381
-0.27822
0.0594735
-0.267393
0.0613421
-0.256981
0.0632427
-0.246845
0.0651956
-0.237102
0.0671959
-0.301056
0.0540877
-0.289417
0.0558093
-0.278149
0.0575676
-0.267306
0.059386
-0.256877
0.0612376
-0.246728
0.0631251
-0.236975
0.0650689
-0.227589
0.067066
-0.301037
0.0523599
-0.28937
0.0540402
-0.278086
0.0557458
-0.267224
0.0574859
-0.256777
0.0592858
-0.246613
0.0611233
-0.236852
0.0630023
-0.227464
0.0649435
-0.218464
0.0669432
-0.30102
0.0507053
-0.289327
0.0523174
-0.278028
0.0539821
-0.267147
0.0556685
-0.25668
0.0573896
-0.246503
0.0591751
-0.236734
0.0610046
-0.227344
0.0628827
-0.218349
0.0648286
-0.209667
0.0668339
-0.301005
0.0490964
-0.289288
0.0506662
-0.277973
0.0522632
-0.267073
0.053908
-0.256587
0.0555754
-0.246395
0.0572825
-0.23662
0.0590612
-0.227231
0.060891
-0.218241
0.0627748
-0.209568
0.0647292
-0.201293
0.0667399
-0.300992
0.0475455
-0.289252
0.04906
-0.277922
0.0506148
-0.267001
0.0521915
-0.256497
0.0538176
-0.246292
0.055472
-0.236511
0.0571739
-0.227124
0.0589541
-0.21814
0.0607899
-0.209474
0.0626818
-0.201208
0.0646446
-0.193255
0.0666583
-0.300979
0.0460517
-0.289217
0.0475109
-0.277872
0.0490104
-0.266931
0.0505447
-0.256409
0.0521034
-0.246193
0.053718
-0.236408
0.0553687
-0.227023
0.0570732
-0.218045
0.0588599
-0.209388
0.0607031
-0.201128
0.0626014
-0.193181
0.0645703
-0.18555
0.0665846
-0.300968
0.0446014
-0.289184
0.0460184
-0.277824
0.0474625
-0.266862
0.0489415
-0.256323
0.0504587
-0.246097
0.0520076
-0.23631
0.05362
-0.226929
0.0552744
-0.217958
0.0569855
-0.209306
0.0587787
-0.201052
0.0606272
-0.193108
0.0625291
-0.185481
0.0645013
-0.178147
0.066515
-0.300957
0.0432147
-0.289151
0.0445689
-0.277776
0.0459708
-0.266794
0.0473945
-0.256239
0.0488576
-0.246005
0.0503667
-0.236217
0.051915
-0.226841
0.0535319
-0.217876
0.0551925
-0.20923
0.0569092
-0.20098
0.0587065
-0.193039
0.0605575
-0.185412
0.0624605
-0.17808
0.0644342
-0.171033
0.0664472
-0.300947
0.0418559
-0.289119
0.0431826
-0.277729
0.0445216
-0.266727
0.0459034
-0.256157
0.0473126
-0.245917
0.0487694
-0.23613
0.0502794
-0.226758
0.0518326
-0.217799
0.0534553
-0.209158
0.0551205
-0.200911
0.05684
-0.192971
0.0586386
-0.185345
0.0604903
-0.178013
0.0623935
-0.170967
0.0643681
-0.164187
0.0663811
-0.300937
0.0405506
-0.289088
0.0418241
-0.277682
0.0431356
-0.26666
0.0444548
-0.256077
0.0458237
-0.245832
0.0472284
-0.236048
0.0486872
-0.226681
0.0502023
-0.217727
0.0517606
-0.20909
0.0533867
-0.200844
0.0550535
-0.192904
0.0567734
-0.185278
0.058572
-0.177947
0.060424
-0.170901
0.0623277
-0.164123
0.0643034
-0.157618
0.0663171
-0.300927
0.0392841
-0.289056
0.0405188
-0.277635
0.0417771
-0.266594
0.0430694
-0.256
0.0443774
-0.245752
0.0457433
-0.23597
0.047151
-0.226609
0.0486149
-0.217659
0.0501343
-0.209024
0.0516949
-0.200779
0.0533215
-0.192839
0.054988
-0.185212
0.0567075
-0.177881
0.0585061
-0.170836
0.0603588
-0.164059
0.0622637
-0.157556
0.0642411
-0.151298
0.0662559
-0.300918
0.0380613
-0.289024
0.0392523
-0.277588
0.0404718
-0.266528
0.0417116
-0.255925
0.0429943
-0.245676
0.044301
-0.235897
0.0456706
-0.226541
0.047083
-0.217595
0.0485502
-0.20896
0.0500708
-0.200715
0.051631
-0.192774
0.0532567
-0.185147
0.0549226
-0.177816
0.0566421
-0.170771
0.0584415
-0.163996
0.0602956
-0.157494
0.0622023
-0.151239
0.0641818
-0.145235
0.066198
-0.300909
0.0368766
-0.288992
0.0380292
-0.277541
0.0392052
-0.266464
0.0404072
-0.255852
0.0416391
-0.245603
0.0429218
-0.235829
0.0442326
-0.226477
0.0456064
-0.217533
0.0470211
-0.208899
0.0484885
-0.200652
0.0500079
-0.19271
0.0515669
-0.185082
0.0531917
-0.177751
0.0548576
-0.170707
0.056578
-0.163933
0.0583789
-0.157434
0.0602351
-0.151181
0.0621442
-0.145179
0.0641261
-0.139414
0.0661437
-0.300899
0.0357297
-0.28896
0.0368442
-0.277494
0.0379821
-0.2664
0.0391416
-0.255783
0.0403374
-0.245535
0.0415705
-0.235764
0.0428573
-0.226416
0.0441717
-0.217473
0.0455468
-0.208838
0.0469608
-0.20059
0.0484264
-0.192646
0.0499442
-0.185017
0.0515023
-0.177686
0.0531271
-0.170644
0.0547939
-0.163871
0.056516
-0.157374
0.0583191
-0.151123
0.0601777
-0.145124
0.0620894
-0.139362
0.0640739
-0.133817
0.0660931
-0.30089
0.0346218
-0.288927
0.035697
-0.277447
0.0367972
-0.266338
0.0379197
-0.255716
0.0390747
-0.24547
0.0402725
-0.235704
0.0415096
-0.226358
0.0427993
-0.217415
0.0441139
-0.208779
0.0454875
-0.200528
0.0468993
-0.192583
0.0483631
-0.184953
0.04988
-0.177622
0.0514382
-0.17058
0.053064
-0.16381
0.0547325
-0.157315
0.0564567
-0.151067
0.0582623
-0.14507
0.0601236
-0.139311
0.062038
-0.133769
0.0640252
-0.128449
0.0660459
-0.30088
0.0335473
-0.288894
0.0345887
-0.2774
0.0356502
-0.266277
0.0367362
-0.255652
0.0378557
-0.245408
0.0390133
-0.235646
0.0402149
-0.226302
0.041454
-0.217359
0.042743
-0.208721
0.0440555
-0.200467
0.0454265
-0.19252
0.0468364
-0.184889
0.0482994
-0.177558
0.0498165
-0.170518
0.0513756
-0.163749
0.0530031
-0.157256
0.0546736
-0.15101
0.0564003
-0.145016
0.0582085
-0.13926
0.0600726
-0.13372
0.0619899
-0.128404
0.0639799
-0.1233
0.0660023
-0.300871
0.0325075
-0.28886
0.0335139
-0.277354
0.0345423
-0.266217
0.0355907
-0.255591
0.0366752
-0.24535
0.0377978
-0.235592
0.0389588
-0.226249
0.0401615
-0.217304
0.0413991
-0.208663
0.0426853
-0.200407
0.0439949
-0.192457
0.045364
-0.184826
0.0467732
-0.177495
0.0482363
-0.170456
0.0497544
-0.163688
0.0513151
-0.157197
0.0529445
-0.150954
0.0546174
-0.144963
0.0563467
-0.139209
0.0581577
-0.133673
0.0600248
-0.128359
0.061945
-0.123258
0.0639379
-0.118345
0.065962
-0.300861
0.0314995
-0.288827
0.0324738
-0.277308
0.0334679
-0.266159
0.0344845
-0.255533
0.0355328
-0.245296
0.0366205
-0.23554
0.037746
-0.226197
0.0389071
-0.21725
0.0401075
-0.208606
0.0413419
-0.200347
0.0426252
-0.192395
0.043933
-0.184763
0.0453013
-0.177433
0.0467106
-0.170394
0.0481747
-0.163628
0.0496942
-0.157139
0.0512569
-0.150898
0.0528885
-0.144909
0.0545639
-0.139158
0.0562959
-0.133625
0.0581098
-0.128314
0.05998
-0.123216
0.0619032
-0.118306
0.0638991
-0.113594
0.065925
-0.300851
0.0305259
-0.288793
0.0314655
-0.277262
0.0324284
-0.266103
0.033412
-0.255478
0.0344295
-0.245244
0.0354812
-0.23549
0.0365712
-0.226147
0.0376959
-0.217197
0.0388541
-0.208549
0.0400509
-0.200287
0.0412823
-0.192334
0.0425637
-0.184701
0.0438707
-0.177371
0.0452392
-0.170333
0.0466495
-0.163568
0.048115
-0.157081
0.0496363
-0.150842
0.051201
-0.144856
0.052835
-0.139107
0.054513
-0.133577
0.0562479
-0.128269
0.0580648
-0.123174
0.0599382
-0.118267
0.0618646
-0.113559
0.0638635
-0.109034
0.0658913
-0.30084
0.0295799
-0.288759
0.0304917
-0.277217
0.0314209
-0.266049
0.0323744
-0.255426
0.03336
-0.245195
0.0343808
-0.235443
0.035434
-0.226098
0.0365225
-0.217145
0.0376437
-0.208493
0.0387981
-0.200228
0.0399919
-0.192273
0.0412214
-0.18464
0.042502
-0.177309
0.0438092
-0.170272
0.0451785
-0.163509
0.04659
-0.157023
0.0480572
-0.150786
0.0495804
-0.144802
0.0511474
-0.139056
0.0527839
-0.133528
0.0544646
-0.128224
0.0562024
-0.123132
0.0580226
-0.118228
0.0598992
-0.113523
0.0618289
-0.109001
0.063831
-0.104653
0.0658608
-0.300829
0.0286667
-0.288724
0.0295456
-0.277174
0.0304478
-0.265998
0.031369
-0.255377
0.0323254
-0.245149
0.033314
-0.235398
0.0343356
-0.226051
0.0353865
-0.217093
0.036471
-0.208438
0.0375883
-0.20017
0.0387396
-0.192213
0.0399315
-0.184578
0.0411602
-0.177248
0.0424409
-0.170212
0.0437488
-0.16345
0.0451193
-0.156966
0.0465324
-0.150731
0.0480015
-0.144749
0.0495268
-0.139005
0.0510961
-0.13348
0.0527352
-0.128178
0.0544187
-0.123089
0.0561596
-0.118189
0.057983
-0.113487
0.0598631
-0.108969
0.0617962
-0.104624
0.0638015
-0.100452
0.0658333
-0.300818
0.0277797
-0.28869
0.0286323
-0.277131
0.0295027
-0.265948
0.0303981
-0.255331
0.0313228
-0.245106
0.0322819
-0.235355
0.0332706
-0.226004
0.0342892
-0.217043
0.0353358
-0.208383
0.0364162
-0.200112
0.0375305
-0.192153
0.0386799
-0.184518
0.039871
-0.177188
0.0410996
-0.170152
0.0423809
-0.163391
0.0436899
-0.156908
0.0450618
-0.150675
0.0464767
-0.144695
0.0479478
-0.138954
0.0494754
-0.133431
0.0510472
-0.128131
0.0526888
-0.123046
0.0543753
-0.118149
0.0561193
-0.11345
0.0579461
-0.108935
0.0598298
-0.104594
0.0617664
-0.100426
0.063775
-0.096417
0.065809
-0.300806
0.0269215
-0.288655
0.0277453
-0.277089
0.0285905
-0.2659
0.0294552
-0.255287
0.0303547
-0.245065
0.0312816
-0.235313
0.03224
-0.225959
0.0332252
-0.216993
0.0342393
-0.208329
0.0352818
-0.200055
0.0363591
-0.192094
0.0374715
-0.184458
0.03862
-0.177127
0.0398109
-0.170092
0.04104
-0.163332
0.0423221
-0.156851
0.0436326
-0.150619
0.0450062
-0.144641
0.046423
-0.138902
0.0478963
-0.133381
0.0494262
-0.128085
0.0510004
-0.123002
0.0526448
-0.118108
0.0543342
-0.113412
0.0560814
-0.108901
0.0579117
-0.104563
0.0597991
-0.100399
0.0617394
-0.0963933
0.0637513
-0.0925468
0.0657875
-0.300794
0.0260905
-0.288621
0.0268871
-0.277048
0.0277047
-0.265855
0.0285452
-0.255246
0.0294144
-0.245026
0.0303156
-0.235272
0.0312412
-0.225915
0.0321956
-0.216944
0.0331761
-0.208276
0.034186
-0.199998
0.0352255
-0.192036
0.0363009
-0.184399
0.0374121
-0.177068
0.0385603
-0.170033
0.0397515
-0.163273
0.0409814
-0.156794
0.0422649
-0.150564
0.0435769
-0.144588
0.0449524
-0.13885
0.0463714
-0.133332
0.0478469
-0.128038
0.0493792
-0.122957
0.0509559
-0.118066
0.052603
-0.113374
0.0542954
-0.108865
0.0560459
-0.104531
0.0578798
-0.100371
0.059771
-0.096369
0.061715
-0.0925259
0.0637303
-0.0888218
0.0657689
-0.300782
0.0252843
-0.288587
0.0260564
-0.277009
0.0268478
-0.265812
0.0276617
-0.255208
0.0285069
-0.244988
0.0293772
-0.235233
0.0302765
-0.225871
0.0311978
-0.216895
0.0321474
-0.208223
0.0331237
-0.199943
0.0341306
-0.191978
0.035168
-0.18434
0.0362422
-0.177009
0.037353
-0.169974
0.0385013
-0.163215
0.0396932
-0.156737
0.0409242
-0.150508
0.0422092
-0.144534
0.0435231
-0.138799
0.0449007
-0.133282
0.0463218
-0.12799
0.0477996
-0.122912
0.0493343
-0.118023
0.0509136
-0.113334
0.0525634
-0.108829
0.0542588
-0.104498
0.0560127
-0.100341
0.0578503
-0.0963433
0.0597453
-0.0925041
0.0616933
-0.0888036
0.0637121
-0.0852574
0.0657531
-0.300769
0.024504
-0.288553
0.0252505
-0.276971
0.0260184
-0.265771
0.026807
-0.255172
0.0276258
-0.244953
0.0284716
-0.235196
0.0293395
-0.225829
0.0302341
-0.216848
0.0311504
-0.208172
0.0320959
-0.199889
0.0330692
-0.191922
0.034074
-0.184282
0.0351101
-0.17695
0.0361836
-0.169915
0.0372943
-0.163157
0.0384431
-0.156679
0.039636
-0.150452
0.0408685
-0.14448
0.0421553
-0.138747
0.0434712
-0.133233
0.044851
-0.127943
0.0462744
-0.122867
0.0477544
-0.117981
0.0492915
-0.113294
0.0508733
-0.108791
0.0525258
-0.104463
0.0542242
-0.10031
0.0559816
-0.096316
0.057823
-0.0924809
0.0597221
-0.0887844
0.0616741
-0.0852417
0.0636964
-0.0818283
0.0657399
-0.300756
0.0237471
-0.28852
0.0244706
-0.276934
0.0252139
-0.265733
0.0259798
-0.255138
0.0267733
-0.244919
0.0275921
-0.235159
0.028435
-0.225787
0.029298
-0.216802
0.0301877
-0.208121
0.0311
-0.199835
0.0320424
-0.191866
0.0330135
-0.184225
0.0340168
-0.176892
0.035052
-0.169857
0.0361253
-0.163099
0.0372363
-0.156622
0.038386
-0.150397
0.0395802
-0.144426
0.0408145
-0.138695
0.0421033
-0.133183
0.0434214
-0.127895
0.0448033
-0.122822
0.046229
-0.117937
0.0477113
-0.113253
0.0492507
-0.108753
0.0508349
-0.104428
0.0524902
-0.100278
0.0541917
-0.096287
0.0559526
-0.0924557
0.0577978
-0.0887634
0.0597011
-0.0852249
0.0616573
-0.0818151
0.0636832
-0.0785447
0.0657293
-0.300742
0.0230134
-0.288487
0.0237141
-0.276899
0.0244354
-0.265696
0.0251774
-0.255107
0.0259482
-0.244887
0.0267412
-0.235124
0.0275566
-0.225747
0.0283945
-0.216756
0.0292526
-0.208072
0.0301384
-0.199783
0.0310476
-0.191811
0.0319877
-0.184168
0.0329571
-0.176834
0.0339593
-0.169799
0.034994
-0.163041
0.0360675
-0.156565
0.0371792
-0.150341
0.0383302
-0.144372
0.0395261
-0.138642
0.0407623
-0.133133
0.0420532
-0.127847
0.0433736
-0.122776
0.0447578
-0.117894
0.0461857
-0.113212
0.0476702
-0.108714
0.0492118
-0.104391
0.0507985
-0.100244
0.0524564
-0.0962563
0.054161
-0.0924286
0.0559255
-0.0887403
0.0577748
-0.0852061
0.0596823
-0.0818006
0.0616428
-0.0785339
0.0636725
-0.0753815
0.0657213
-0.300727
0.0223043
-0.288454
0.022981
-0.276866
0.0236804
-0.265662
0.024401
-0.255077
0.0251478
-0.244856
0.0259175
-0.235089
0.0267068
-0.225707
0.0275172
-0.216712
0.0283503
-0.208024
0.0292044
-0.199731
0.030087
-0.191757
0.0309938
-0.184113
0.0319321
-0.176778
0.0329002
-0.169741
0.0339017
-0.162984
0.0349365
-0.156508
0.0360104
-0.150285
0.0371233
-0.144317
0.0382758
-0.13859
0.0394736
-0.133083
0.040712
-0.127799
0.0420052
-0.12273
0.0433279
-0.117851
0.0447143
-0.11317
0.0461444
-0.108675
0.047631
-0.104354
0.0491748
-0.100209
0.0507638
-0.0962243
0.0524244
-0.0923997
0.0541321
-0.0887151
0.0559002
-0.085185
0.0577536
-0.0817839
0.0596657
-0.0785217
0.0616306
-0.0753731
0.063664
-0.072354
0.0657156
-0.300712
0.0216158
-0.288422
0.0222725
-0.276833
0.0229487
-0.265629
0.023648
-0.255049
0.0243732
-0.244827
0.0251184
-0.235056
0.0258842
-0.225669
0.0266684
-0.216669
0.027474
-0.207977
0.0283032
-0.199681
0.0291543
-0.191705
0.0300343
-0.184058
0.0309391
-0.176721
0.0318759
-0.169684
0.0328431
-0.162926
0.0338444
-0.156451
0.0348795
-0.150229
0.0359544
-0.144263
0.0370688
-0.138537
0.0382231
-0.133032
0.039423
-0.127751
0.0406637
-0.122685
0.0419592
-0.117807
0.0432842
-0.113129
0.0446729
-0.108635
0.046105
-0.104317
0.0475937
-0.100174
0.0491395
-0.0961913
0.0507308
-0.0923693
0.052394
-0.0886878
0.0541049
-0.0851615
0.0558767
-0.0817647
0.0577344
-0.078507
0.059651
-0.075363
0.0616205
-0.0723477
0.0636577
-0.069447
0.0657122
-0.300697
0.0209479
-0.288391
0.0215847
-0.276802
0.0222416
-0.265599
0.0229183
-0.255023
0.0236219
-0.244799
0.024345
-0.235024
0.0250861
-0.225631
0.0258468
-0.216627
0.0266264
-0.207931
0.0274283
-0.199632
0.0282543
-0.191653
0.0291027
-0.184004
0.0299805
-0.176666
0.0308836
-0.169628
0.0318193
-0.162869
0.0327861
-0.156394
0.0337876
-0.150173
0.0348235
-0.144208
0.0358997
-0.138484
0.0370158
-0.132981
0.0381722
-0.127703
0.0393745
-0.122638
0.0406176
-0.117763
0.0419154
-0.113087
0.0432427
-0.108596
0.0446335
-0.10428
0.0460676
-0.100138
0.0475581
-0.0961576
0.0491058
-0.0923379
0.0506993
-0.088659
0.0523651
-0.0851358
0.0540792
-0.0817428
0.0558548
-0.0784895
0.0577169
-0.0753502
0.0596382
-0.0723397
0.0616125
-0.0694428
0.0636536
-0.0666555
0.065711
-0.300681
0.020302
-0.288361
0.0209176
-0.276773
0.0215553
-0.265571
0.0222132
-0.254999
0.0228938
-0.244772
0.0235949
-0.234993
0.0243138
-0.225595
0.0250499
-0.216586
0.0258061
-0.207886
0.026582
-0.199584
0.0273806
-0.191603
0.0282038
-0.183951
0.0290498
-0.176611
0.0299259
-0.169572
0.0308277
-0.162813
0.0317627
-0.156338
0.0327295
-0.150117
0.0337315
-0.144153
0.0347685
-0.138431
0.0358464
-0.13293
0.0369645
-0.127654
0.0381232
-0.122592
0.0393279
-0.117719
0.0405735
-0.113046
0.0418738
-0.108557
0.0432033
-0.104242
0.044596
-0.100103
0.0460319
-0.0961236
0.0475241
-0.0923057
0.0490737
-0.0886289
0.0506692
-0.0851084
0.0523376
-0.0817186
0.0540549
-0.0784692
0.0558345
-0.0753344
0.0577011
-0.0723287
0.0596272
-0.0694367
0.0616063
-0.0666533
0.0636514
-0.0639745
0.0657119
-0.300664
0.0196753
-0.288332
0.0202726
-0.276745
0.0208896
-0.265544
0.0215286
-0.254976
0.0221901
-0.244746
0.0228678
-0.234962
0.0235647
-0.22556
0.0242787
-0.216547
0.0250104
-0.207843
0.0257629
-0.199538
0.0265355
-0.191553
0.0273313
-0.1839
0.028152
-0.176557
0.028996
-0.169517
0.0298706
-0.162756
0.0307715
-0.156281
0.0317063
-0.150061
0.0326734
-0.144098
0.0336763
-0.138377
0.0347148
-0.132878
0.0357946
-0.127604
0.036915
-0.122545
0.0380763
-0.117675
0.0392836
-0.113004
0.0405317
-0.108517
0.0418342
-0.104205
0.0431658
-0.100067
0.0445604
-0.0960897
0.0459979
-0.0922733
0.0474917
-0.0885982
0.049043
-0.0850796
0.0506405
-0.0816924
0.0523115
-0.0784463
0.054032
-0.0753155
0.0558156
-0.0723144
0.0576868
-0.0694274
0.059618
-0.0666491
0.0616021
-0.0639743
0.0636512
-0.0614042
0.0657149
-0.300647
0.019068
-0.288303
0.0196468
-0.276718
0.0202459
-0.265519
0.0208647
-0.254954
0.0215069
-0.244721
0.0221651
-0.234933
0.0228387
-0.225526
0.0235307
-0.216509
0.0242405
-0.207801
0.0249685
-0.199493
0.0257178
-0.191505
0.0264875
-0.183849
0.0272806
-0.176505
0.0280992
-0.169462
0.0289415
-0.162701
0.0298149
-0.156225
0.0307153
-0.150004
0.0316502
-0.144043
0.0326181
-0.138323
0.0336224
-0.132826
0.0346627
-0.127554
0.0357447
-0.122497
0.0368676
-0.11763
0.0380315
-0.112962
0.0392414
-0.108477
0.040492
-0.104167
0.0417968
-0.100032
0.0431304
-0.0960559
0.0445266
-0.092241
0.0459656
-0.0885672
0.0474608
-0.0850502
0.0490135
-0.0816649
0.050613
-0.0784213
0.0522865
-0.0752938
0.0540104
-0.0722969
0.0557981
-0.0694147
0.0576741
-0.0666414
0.0596103
-0.0639718
0.0615996
-0.0614057
0.0636528
-0.0589343
0.0657197
-0.30063
0.0184787
-0.288276
0.0190405
-0.276693
0.0196215
-0.265496
0.0202226
-0.254933
0.0208441
-0.244697
0.0214829
-0.234905
0.022137
-0.225493
0.0228058
-0.216472
0.0234938
-0.207761
0.0242
-0.199449
0.0249248
-0.191458
0.025671
-0.183799
0.0264379
-0.176453
0.0272287
-0.169408
0.0280454
-0.162646
0.0288864
-0.156169
0.0297591
-0.149949
0.0306594
-0.143987
0.0315948
-0.138269
0.0325638
-0.132773
0.0335697
-0.127504
0.0346122
-0.122449
0.0356967
-0.117585
0.0368222
-0.112919
0.0379889
-0.108437
0.0392014
-0.10413
0.0404545
-0.0999962
0.0417614
-0.0960223
0.0430968
-0.0922089
0.0444945
-0.0885364
0.0459348
-0.0850206
0.0474312
-0.0816367
0.0489853
-0.078395
0.0505867
-0.07527
0.0522627
-0.0722764
0.0539899
-0.0693984
0.0557818
-0.06663
0.0576627
-0.0639657
0.0596042
-0.0614049
0.0615987
-0.0589376
0.0636561
-0.05656
0.0657263
-0.300612
0.0179087
-0.288249
0.0184522
-0.276669
0.0190164
-0.265474
0.0195997
-0.254914
0.0202032
-0.244674
0.0208211
-0.234878
0.0214558
-0.225461
0.0221053
-0.216436
0.0227702
-0.207722
0.0234546
-0.199407
0.0241576
-0.191413
0.0248793
-0.183751
0.0256227
-0.176402
0.0263871
-0.169355
0.0271759
-0.162591
0.027991
-0.156114
0.0288311
-0.149893
0.0297034
-0.143932
0.030604
-0.138215
0.0315403
-0.13272
0.0325107
-0.127453
0.0335186
-0.122401
0.0345635
-0.117539
0.0356506
-0.112876
0.036779
-0.108397
0.0379485
-0.104092
0.0391637
-0.0999608
0.0404191
-0.095989
0.0417281
-0.0921772
0.0430651
-0.088506
0.0444641
-0.0849912
0.0459053
-0.0816083
0.0474028
-0.0783678
0.0489582
-0.0752447
0.0505613
-0.0722536
0.0522399
-0.069379
0.0539705
-0.0666149
0.0557667
-0.0639556
0.0576526
-0.0614002
0.0595995
-0.0589383
0.0615994
-0.0565649
0.063661
-0.0542913
0.0657347
-0.300593
0.0173567
-0.288224
0.0178832
-0.276646
0.0184293
-0.265454
0.0189961
-0.254896
0.0195814
-0.244652
0.0201811
-0.234852
0.020795
-0.225431
0.0214252
-0.216402
0.022071
-0.207684
0.0227324
-0.199366
0.0234136
-0.191369
0.0241134
-0.183704
0.0248322
-0.176352
0.025573
-0.169303
0.0263352
-0.162538
0.0271222
-0.156059
0.0279362
-0.149837
0.0287756
-0.143876
0.0296479
-0.13816
0.0305492
-0.132667
0.0314868
-0.127401
0.032459
-0.122351
0.0334693
-0.117492
0.0345167
-0.112832
0.0356068
-0.108356
0.0367381
-0.104054
0.0379104
-0.0999254
0.0391282
-0.0959558
0.040386
-0.0921459
0.0416968
-0.0884761
0.0430352
-0.0849623
0.0444352
-0.0815802
0.0458773
-0.0783406
0.0473755
-0.0752185
0.048932
-0.0722292
0.0505369
-0.0693571
0.052218
-0.0665965
0.0539521
-0.0639416
0.0557527
-0.0613914
0.0576438
-0.058935
0.0595962
-0.0565671
0.0616016
-0.0542978
0.0636675
-0.0521081
0.0657446
-0.300574
0.0168201
-0.288199
0.0173323
-0.276624
0.0178615
-0.265435
0.0184104
-0.254878
0.0189787
-0.244631
0.0195601
-0.234827
0.0201559
-0.225401
0.0207656
-0.216369
0.0213922
-0.207648
0.0220346
-0.199326
0.0226928
-0.191326
0.0233708
-0.183658
0.0240676
-0.176304
0.0247837
-0.169253
0.0255221
-0.162485
0.0262824
-0.156005
0.027068
-0.149782
0.0278811
-0.143821
0.0287203
-0.138105
0.029593
-0.132613
0.0304953
-0.127349
0.0314345
-0.122301
0.0324089
-0.117444
0.0334217
-0.112787
0.0344721
-0.108314
0.0355651
-0.104015
0.0366994
-0.0998896
0.0378746
-0.0959226
0.039095
-0.0921148
0.0403549
-0.0884466
0.0416674
-0.084934
0.0430069
-0.0815528
0.0444077
-0.0783137
0.0458504
-0.0751923
0.0473492
-0.0722039
0.0489068
-0.0693335
0.0505133
-0.0665755
0.0521969
-0.0639241
0.0539346
-0.0613784
0.0557397
-0.0589273
0.0576361
-0.0565651
0.0595942
-0.0543013
0.0616051
-0.0521161
0.0636754
-0.0500105
0.065756
-0.300555
0.0163002
-0.288176
0.0167968
-0.276603
0.0173116
-0.265417
0.0178439
-0.254862
0.0183939
-0.24461
0.0189583
-0.234802
0.019536
-0.225373
0.0201277
-0.216337
0.0207339
-0.207613
0.0213572
-0.199288
0.0219963
-0.191284
0.0226513
-0.183614
0.0233263
-0.176256
0.0240203
-0.169203
0.0247338
-0.162433
0.0254702
-0.155951
0.0262288
-0.149728
0.0270133
-0.143766
0.0278259
-0.13805
0.0286653
-0.132559
0.0295388
-0.127296
0.0304425
-0.12225
0.0313837
-0.117396
0.0323605
-0.112742
0.0333762
-0.108272
0.0344296
-0.103976
0.0355258
-0.0998533
0.0366631
-0.0958892
0.0378412
-0.0920838
0.039064
-0.0884176
0.0403259
-0.0849065
0.0416398
-0.0815261
0.0429803
-0.0782876
0.0443816
-0.0751665
0.0458246
-0.0721786
0.0473239
-0.069309
0.0488823
-0.0665526
0.0504905
-0.0639038
0.0521766
-0.0613618
0.053918
-0.0589153
0.0557277
-0.0565584
0.0576295
-0.0543005
0.0595934
-0.0521209
0.0616099
-0.0500197
0.0636846
-0.0479983
0.0657689
-0.300535
0.0157971
-0.288154
0.0162781
-0.276584
0.0167772
-0.265401
0.0172953
-0.254846
0.0178282
-0.244591
0.0183743
-0.234779
0.0189351
-0.225346
0.0195088
-0.216307
0.0200972
-0.207579
0.0207002
-0.199251
0.0213203
-0.191244
0.0219562
-0.183571
0.0226082
-0.17621
0.0232802
-0.169154
0.0239716
-0.162382
0.0246829
-0.155899
0.0254174
-0.149673
0.0261747
-0.143711
0.0269584
-0.137995
0.0277709
-0.132504
0.0286108
-0.127243
0.0294855
-0.122199
0.030391
-0.117347
0.0313345
-0.112695
0.032314
-0.108229
0.0333327
-0.103936
0.0343893
-0.0998163
0.0354887
-0.0958552
0.0366292
-0.0920526
0.03781
-0.0883888
0.0390352
-0.0848795
0.0402989
-0.0815003
0.041614
-0.0782625
0.0429552
-0.0751417
0.0443567
-0.0721539
0.0457999
-0.0692846
0.0472994
-0.0665289
0.0488586
-0.0638817
0.0504683
-0.0613422
0.0521571
-0.0588995
0.0539021
-0.0565473
0.0557166
-0.0542949
0.0576239
-0.0521212
0.0595936
-0.0500258
0.061616
-0.0480089
0.0636951
-0.0460718
0.065783
-0.300515
0.0153081
-0.288133
0.0157761
-0.276565
0.0162594
-0.265385
0.016762
-0.254831
0.0172804
-0.244572
0.0178094
-0.234757
0.018352
-0.22532
0.0189091
-0.216278
0.0194797
-0.207547
0.0200649
-0.199215
0.0206647
-0.191206
0.0212816
-0.183529
0.0219144
-0.176166
0.0225634
-0.169107
0.0232328
-0.162332
0.0239217
-0.155847
0.024631
-0.14962
0.0253639
-0.143656
0.0261202
-0.13794
0.0269036
-0.13245
0.0277163
-0.127189
0.0285571
-0.122147
0.0294333
-0.117297
0.0303409
-0.112648
0.031287
-0.108184
0.0322695
-0.103894
0.0332914
-0.0997783
0.0343514
-0.0958206
0.0354541
-0.0920211
0.0365976
-0.0883599
0.0377811
-0.0848528
0.0390085
-0.0814753
0.0402738
-0.0782384
0.0415899
-0.075118
0.0429315
-0.0721302
0.044333
-0.0692607
0.045776
-0.0665052
0.0472757
-0.0638586
0.0488355
-0.0613206
0.0504467
-0.0588805
0.0521381
-0.0565322
0.053887
-0.0542846
0.0557063
-0.0521165
0.0576192
-0.0500271
0.0595949
-0.048016
0.0616231
-0.0460835
0.0637068
-0.0442156
0.0657983
-0.300494
0.0148359
-0.288113
0.0152883
-0.276547
0.0157583
-0.265371
0.0162453
-0.254817
0.0167478
-0.244554
0.0172624
-0.234736
0.0177881
-0.225295
0.0183272
-0.21625
0.0188812
-0.207516
0.0194487
-0.199181
0.0200307
-0.191168
0.0206274
-0.183488
0.0212412
-0.176122
0.021871
-0.16906
0.0225172
-0.162283
0.023184
-0.155796
0.0238707
-0.149567
0.0245782
-0.143602
0.0253099
-0.137885
0.0260656
-0.132395
0.0268489
-0.127135
0.0276623
-0.122094
0.0285044
-0.117246
0.0293824
-0.112599
0.0302925
-0.108138
0.0312414
-0.103852
0.0322271
-0.0997393
0.0332524
-0.095785
0.0343158
-0.0919888
0.0354218
-0.0883307
0.0365684
-0.0848262
0.0377545
-0.0814507
0.038984
-0.0782152
0.0402506
-0.0750955
0.0415674
-0.0721078
0.0429091
-0.0692381
0.0443104
-0.0664822
0.045753
-0.0638355
0.0472526
-0.0612981
0.048813
-0.0588595
0.0504257
-0.0565139
0.0521198
-0.0542701
0.0538725
-0.052107
0.0556968
-0.0500233
0.0576154
-0.0480183
0.0595972
-0.0460916
0.0616313
-0.0442284
0.0637196
-0.042435
0.0658147
-0.300472
0.0143778
-0.288094
0.0148172
-0.27653
0.0152713
-0.265358
0.0157452
-0.254804
0.0162317
-0.244537
0.0167306
-0.234715
0.017242
-0.225272
0.0177643
-0.216223
0.0183005
-0.207486
0.0188515
-0.199148
0.0194159
-0.191132
0.0199948
-0.183449
0.0205884
-0.17608
0.0211991
-0.169015
0.0218261
-0.162236
0.0224696
-0.155746
0.023134
-0.149515
0.0238188
-0.143549
0.0245248
-0.137831
0.0252556
-0.13234
0.026011
-0.127081
0.0267946
-0.122041
0.027609
-0.117194
0.0284527
-0.11255
0.029333
-0.108092
0.0302457
-0.103808
0.0311978
-0.0996991
0.0321869
-0.0957483
0.0332157
-0.0919556
0.0342826
-0.0883009
0.035392
-0.0847993
0.0365416
-0.0814263
0.0377302
-0.0781926
0.0389615
-0.0750741
0.0402292
-0.0720868
0.0415464
-0.069217
0.042888
-0.0664605
0.0442887
-0.0638133
0.0457308
-0.0612756
0.0472301
-0.0588375
0.048791
-0.0564933
0.0504052
-0.0542523
0.052102
-0.0520931
0.0538586
-0.0500145
0.055688
-0.0480153
0.0576124
-0.0460948
0.0596004
-0.0442375
0.0616403
-0.0424488
0.0637334
-0.040735
0.0658321
-0.300451
0.0139325
-0.288077
0.0143602
-0.276514
0.0148009
-0.265346
0.0152592
-0.254791
0.0157323
-0.24452
0.0162153
-0.234696
0.016711
-0.225249
0.0172193
-0.216197
0.0177388
-0.207457
0.018272
-0.199117
0.01882
-0.191098
0.0193813
-0.183412
0.0199572
-0.176039
0.0205477
-0.168972
0.0211555
-0.162189
0.0217797
-0.155697
0.0224207
-0.149464
0.023083
-0.143496
0.0237661
-0.137777
0.0244709
-0.132286
0.0252011
-0.127026
0.0259565
-0.121987
0.0267409
-0.117142
0.0275566
-0.1125
0.0284023
-0.108044
0.0292852
-0.103764
0.0302009
-0.0996576
0.0311563
-0.0957104
0.032149
-0.0919213
0.0331814
-0.0882702
0.0342519
-0.0847719
0.0353646
-0.0814018
0.036517
-0.0781705
0.037708
-0.0750535
0.0389409
-0.0720672
0.0402096
-0.0691975
0.0415269
-0.0664406
0.042868
-0.0637925
0.0442679
-0.061254
0.0457092
-0.0588155
0.0472081
-0.0564717
0.0487694
-0.0542322
0.0503851
-0.0520758
0.0520847
-0.0500012
0.0538454
-0.0480072
0.0556799
-0.0460926
0.0576101
-0.0442415
0.0596044
-0.0424588
0.0616503
-0.0407497
0.0637482
-0.0390903
0.0658504
-0.300429
0.0135027
-0.288061
0.0139162
-0.276498
0.0143447
-0.265335
0.0147898
-0.254778
0.0152468
-0.244504
0.0157165
-0.234677
0.0161966
-0.225227
0.0166894
-0.216173
0.0171949
-0.20743
0.0177116
-0.199087
0.0182419
-0.191065
0.0187868
-0.183376
0.0193451
-0.176
0.0199179
-0.16893
0.0205054
-0.162144
0.0211104
-0.155649
0.021732
-0.149414
0.0223707
-0.143444
0.0230311
-0.137724
0.0237127
-0.132232
0.0244167
-0.126972
0.0251467
-0.121933
0.0259025
-0.117089
0.0266879
-0.112448
0.0275054
-0.107995
0.0283534
-0.103717
0.0292391
-0.0996147
0.030158
-0.0956711
0.0311169
-0.0918857
0.0321134
-0.0882382
0.0331495
-0.0847436
0.0342236
-0.0813768
0.0353395
-0.0781482
0.0364948
-0.0750335
0.0376879
-0.0720486
0.0389223
-0.0691795
0.0401916
-0.0664224
0.0415088
-0.0637736
0.0428491
-0.0612341
0.044248
-0.0587945
0.0456882
-0.0564502
0.0471866
-0.054211
0.0487482
-0.0520561
0.0503654
-0.0499843
0.0520678
-0.0479944
0.0538326
-0.0460851
0.0556723
-0.04424
0.0576086
-0.0424636
0.0596092
-0.0407605
0.061661
-0.0391059
0.0637638
-0.0375211
0.0658695
-0.300406
0.0130846
-0.288045
0.0134875
-0.276484
0.0139013
-0.265325
0.0143344
-0.254766
0.0147779
-0.244489
0.0152318
-0.234659
0.0156987
-0.225206
0.016176
-0.21615
0.0166661
-0.207404
0.0171689
-0.199058
0.0176827
-0.191033
0.0182101
-0.183341
0.018752
-0.175962
0.0193072
-0.168889
0.0198771
-0.1621
0.0204617
-0.155603
0.0210639
-0.149365
0.021683
-0.143393
0.0223196
-0.137671
0.0229784
-0.132178
0.0236589
-0.126917
0.0243623
-0.121879
0.0250924
-0.117035
0.025849
-0.112396
0.0266359
-0.107945
0.0274554
-0.10367
0.0283061
-0.0995705
0.0291948
-0.0956303
0.0301173
-0.0918486
0.0310799
-0.088205
0.0320801
-0.0847141
0.03312
-0.0813509
0.0341976
-0.0781255
0.0353168
-0.0750135
0.0364748
-0.0720306
0.0376699
-0.0691627
0.0389055
-0.066406
0.0401751
-0.0637567
0.0414919
-0.0612161
0.0428312
-0.0587753
0.0442287
-0.0564297
0.0456677
-0.0541899
0.0471655
-0.0520352
0.0487273
-0.049965
0.0503461
-0.047978
0.0520514
-0.0460728
0.0538204
-0.0442331
0.0556654
-0.0424626
0.0576077
-0.0407659
0.0596146
-0.0391173
0.0616724
-0.0375375
0.0637802
-0.0360073
0.0658893
-0.300383
0.0126792
-0.288031
0.0130705
-0.276469
0.0134733
-0.265315
0.0138918
-0.254755
0.014323
-0.244475
0.0147636
-0.234642
0.0152148
-0.225187
0.0156791
-0.216128
0.0161538
-0.207379
0.0166413
-0.19903
0.0171413
-0.191002
0.0176522
-0.183307
0.0181766
-0.175926
0.0187155
-0.168849
0.0192677
-0.162058
0.0198346
-0.155557
0.0204164
-0.149318
0.0210161
-0.143343
0.0216329
-0.137619
0.0222677
-0.132124
0.022925
-0.126863
0.0236047
-0.121824
0.024308
-0.116982
0.0250385
-0.112344
0.0257963
-0.107894
0.026585
-0.103622
0.0274069
-0.0995249
0.0282604
-0.095588
0.0291525
-0.09181
0.0300786
-0.0881702
0.0310451
-0.0846832
0.0320492
-0.0813238
0.0330929
-0.078102
0.0341741