/*--------------------------------*- C++ -*----------------------------------*\
  =========                 |
  \\      /  F ield         | OpenFOAM: The Open Source CFD Toolbox
   \\    /   O peration     | Website:  https://openfoam.org
    \\  /    A nd           | Version:  7
     \\/     M anipulation  |
\*---------------------------------------------------------------------------*/
FoamFile
{
    version     2.0;
    format      ascii;
    class       volVectorField;
    location    "400";
    object      U;
}
// * * * * * * * * * * * * * * * * * * * * * * * * * * * * * * * * * * * * * //

dimensions      [0 1 -1 0 0 0 0];

internalField   nonuniform List<vector> 
23117
(
(49.9455 13.1683 0)
(49.8981 13.1148 0)
(50.029 13.1639 0)
(49.8783 13.0815 0)
(49.994 13.1575 0)
(50.0864 13.1434 0)
(49.8628 13.0492 0)
(49.9773 13.1454 0)
(50.0583 13.1363 0)
(50.1478 13.1116 0)
(49.8535 13.0214 0)
(49.9575 13.1309 0)
(50.0435 13.1269 0)
(50.117 13.101 0)
(50.1936 13.09 0)
(49.8465 12.9969 0)
(49.9432 13.1173 0)
(50.0249 13.116 0)
(50.1014 13.0905 0)
(50.1608 13.0825 0)
(50.2258 13.0677 0)
(49.8413 12.9753 0)
(49.931 13.105 0)
(50.0102 13.1046 0)
(50.0817 13.0796 0)
(50.1443 13.0731 0)
(50.1893 13.0602 0)
(50.245 13.043 0)
(49.8371 12.9561 0)
(49.921 13.0944 0)
(49.9967 13.0934 0)
(50.0651 13.0686 0)
(50.122 13.0633 0)
(50.171 13.0506 0)
(50.2039 13.0346 0)
(50.2531 13.0176 0)
(49.8336 12.9391 0)
(49.9123 13.0853 0)
(49.9848 13.0827 0)
(50.0493 13.0579 0)
(50.1026 13.0532 0)
(50.1458 13.0408 0)
(50.184 13.0245 0)
(50.2096 13.0089 0)
(50.2566 12.9927 0)
(49.8306 12.924 0)
(49.9046 13.0777 0)
(49.9739 13.0727 0)
(50.0345 13.0477 0)
(50.0833 13.0432 0)
(50.1234 13.0306 0)
(50.1566 13.0146 0)
(50.1896 12.9991 0)
(50.2138 12.9846 0)
(50.2619 12.9699 0)
(49.828 12.9106 0)
(49.8976 13.0714 0)
(49.9639 13.0635 0)
(50.0204 13.0381 0)
(50.0649 13.0335 0)
(50.1011 13.0205 0)
(50.1325 13.0044 0)
(50.1618 12.9894 0)
(50.1953 12.9753 0)
(50.2223 12.9629 0)
(50.2726 12.9502 0)
(49.8257 12.8986 0)
(49.8912 13.0663 0)
(49.9544 13.0551 0)
(50.0068 13.0292 0)
(50.047 13.0243 0)
(50.0798 13.0106 0)
(50.1088 12.9944 0)
(50.1381 12.9797 0)
(50.1692 12.9663 0)
(50.2061 12.9545 0)
(50.2369 12.9447 0)
(50.2886 12.9334 0)
(49.8236 12.8881 0)
(49.8851 13.0623 0)
(49.9454 13.0473 0)
(49.9935 13.0211 0)
(50.0296 13.0156 0)
(50.0592 13.0011 0)
(50.0864 12.9848 0)
(50.115 12.9704 0)
(50.1474 12.9575 0)
(50.1826 12.9463 0)
(50.2228 12.9368 0)
(50.2558 12.929 0)
(50.3073 12.9185 0)
(49.8216 12.8788 0)
(49.8792 13.0593 0)
(49.9366 13.0403 0)
(49.9805 13.0137 0)
(50.0127 13.0075 0)
(50.0393 12.9921 0)
(50.065 12.9756 0)
(50.0936 12.9614 0)
(50.1263 12.9489 0)
(50.1632 12.9383 0)
(50.2014 12.9292 0)
(50.2428 12.9213 0)
(50.2758 12.9149 0)
(50.326 12.9048 0)
(49.8198 12.8707 0)
(49.8736 13.0572 0)
(49.928 13.034 0)
(49.9677 13.007 0)
(49.9961 13 0)
(50.0202 12.9838 0)
(50.0449 12.9671 0)
(50.0734 12.953 0)
(50.1069 12.9408 0)
(50.1441 12.9305 0)
(50.1836 12.9217 0)
(50.2226 12.9139 0)
(50.263 12.9069 0)
(50.2942 12.9014 0)
(50.3427 12.8915 0)
(49.8181 12.8636 0)
(49.868 13.0558 0)
(49.9195 13.0282 0)
(49.9551 13.001 0)
(49.9799 12.9931 0)
(50.0019 12.9761 0)
(50.0258 12.9592 0)
(50.0547 12.9453 0)
(50.0887 12.9332 0)
(50.1265 12.923 0)
(50.1658 12.9142 0)
(50.2053 12.9065 0)
(50.2429 12.8995 0)
(50.2812 12.8929 0)
(50.31 12.8881 0)
(50.3567 12.8785 0)
(49.8164 12.8576 0)
(49.8626 13.0552 0)
(49.9111 13.023 0)
(49.9425 12.9957 0)
(49.9642 12.9869 0)
(49.9844 12.969 0)
(50.0079 12.9521 0)
(50.0371 12.9382 0)
(50.0717 12.9262 0)
(50.1097 12.9159 0)
(50.1489 12.907 0)
(50.1877 12.899 0)
(50.2254 12.8918 0)
(50.2606 12.8853 0)
(50.2966 12.8792 0)
(50.323 12.8749 0)
(50.3683 12.8658 0)
(49.8148 12.8524 0)
(49.8571 13.0553 0)
(49.9026 13.0184 0)
(49.9301 12.9911 0)
(49.9488 12.9814 0)
(49.9677 12.9627 0)
(49.991 12.9457 0)
(50.0206 12.9318 0)
(50.0556 12.9198 0)
(50.0936 12.9093 0)
(50.1324 12.9 0)
(50.1706 12.8916 0)
(50.2073 12.884 0)
(50.2426 12.8772 0)
(50.2756 12.8712 0)
(50.3096 12.8657 0)
(50.334 12.8622 0)
(50.3782 12.8537 0)
(49.8133 12.8481 0)
(49.8516 13.0559 0)
(49.8942 13.0142 0)
(49.9177 12.9871 0)
(49.934 12.9765 0)
(49.9518 12.9572 0)
(49.9751 12.9401 0)
(50.0052 12.9261 0)
(50.0404 12.9139 0)
(50.0782 12.9031 0)
(50.1164 12.8934 0)
(50.1536 12.8844 0)
(50.1895 12.8763 0)
(50.2239 12.8691 0)
(50.2571 12.8628 0)
(50.2882 12.8575 0)
(50.3207 12.8528 0)
(50.3437 12.85 0)
(50.3868 12.8421 0)
(49.8117 12.8446 0)
(49.8461 13.057 0)
(49.8857 13.0104 0)
(49.9055 12.9837 0)
(49.9196 12.9722 0)
(49.9366 12.9524 0)
(49.9602 12.9352 0)
(49.9906 12.9212 0)
(50.0259 12.9086 0)
(50.0632 12.8974 0)
(50.1006 12.887 0)
(50.1369 12.8774 0)
(50.1719 12.8687 0)
(50.2055 12.861 0)
(50.2379 12.8543 0)
(50.2696 12.8487 0)
(50.2994 12.8443 0)
(50.3308 12.8404 0)
(50.3526 12.8385 0)
(50.3946 12.8312 0)
(49.8102 12.8418 0)
(49.8406 13.0586 0)
(49.8772 13.0071 0)
(49.8935 12.9809 0)
(49.9057 12.9686 0)
(49.9223 12.9483 0)
(49.9461 12.9311 0)
(49.9769 12.9169 0)
(50.012 12.904 0)
(50.0486 12.8921 0)
(50.085 12.8811 0)
(50.1203 12.8707 0)
(50.1543 12.8613 0)
(50.1872 12.853 0)
(50.2192 12.8459 0)
(50.2503 12.84 0)
(50.2808 12.8353 0)
(50.3096 12.8317 0)
(50.34 12.8287 0)
(50.3608 12.8276 0)
(50.4018 12.821 0)
(49.8086 12.8396 0)
(49.835 13.0605 0)
(49.8688 13.0042 0)
(49.8817 12.9787 0)
(49.8924 12.9655 0)
(49.9087 12.9449 0)
(49.9328 12.9277 0)
(49.9638 12.9132 0)
(49.9985 12.8999 0)
(50.0343 12.8873 0)
(50.0696 12.8755 0)
(50.1038 12.8644 0)
(50.1369 12.8542 0)
(50.1691 12.8452 0)
(50.2006 12.8375 0)
(50.2315 12.8312 0)
(50.2616 12.8262 0)
(50.2913 12.8224 0)
(50.3192 12.8198 0)
(50.3487 12.8178 0)
(50.3685 12.8176 0)
(50.4085 12.8115 0)
(49.8071 12.8381 0)
(49.8293 13.0629 0)
(49.8604 13.0016 0)
(49.8702 12.9771 0)
(49.8796 12.963 0)
(49.8959 12.9422 0)
(49.9203 12.925 0)
(49.9512 12.9103 0)
(49.9854 12.8963 0)
(50.0202 12.8831 0)
(50.0543 12.8704 0)
(50.0874 12.8584 0)
(50.1195 12.8474 0)
(50.1511 12.8377 0)
(50.1821 12.8293 0)
(50.2127 12.8225 0)
(50.2428 12.8171 0)
(50.2722 12.813 0)
(50.3012 12.8103 0)
(50.3283 12.8086 0)
(50.357 12.8075 0)
(50.3757 12.8081 0)
(50.4146 12.8027 0)
(49.8055 12.8372 0)
(49.8236 13.0655 0)
(49.852 12.9994 0)
(49.8589 12.9759 0)
(49.8674 12.9611 0)
(49.8838 12.9401 0)
(49.9085 12.923 0)
(49.9392 12.9079 0)
(49.9726 12.8933 0)
(50.0063 12.8793 0)
(50.0391 12.8657 0)
(50.0711 12.8528 0)
(50.1023 12.841 0)
(50.1332 12.8305 0)
(50.1638 12.8215 0)
(50.1941 12.814 0)
(50.2241 12.808 0)
(50.2536 12.8036 0)
(50.2824 12.8006 0)
(50.3106 12.7988 0)
(50.3369 12.7981 0)
(50.3647 12.7979 0)
(50.3825 12.7994 0)
(50.4203 12.7946 0)
(49.8039 12.8367 0)
(49.8178 13.0684 0)
(49.8437 12.9975 0)
(49.8479 12.9753 0)
(49.8558 12.9598 0)
(49.8723 12.9387 0)
(49.8972 12.9216 0)
(49.9276 12.9061 0)
(49.9601 12.8909 0)
(49.9925 12.876 0)
(50.0241 12.8615 0)
(50.0549 12.8477 0)
(50.0853 12.835 0)
(50.1154 12.8237 0)
(50.1456 12.8139 0)
(50.1756 12.8057 0)
(50.2054 12.7991 0)
(50.2349 12.7942 0)
(50.2639 12.7907 0)
(50.2921 12.7887 0)
(50.3196 12.7879 0)
(50.3451 12.7882 0)
(50.372 12.7889 0)
(50.3889 12.7913 0)
(50.4255 12.7871 0)
(49.8022 12.8368 0)
(49.812 13.0715 0)
(49.8355 12.9958 0)
(49.8372 12.9751 0)
(49.8448 12.9589 0)
(49.8615 12.9379 0)
(49.8865 12.9207 0)
(49.9164 12.9048 0)
(49.9478 12.8889 0)
(49.9789 12.8732 0)
(50.0092 12.8578 0)
(50.0388 12.8431 0)
(50.0683 12.8295 0)
(50.0979 12.8173 0)
(50.1275 12.8067 0)
(50.1572 12.7977 0)
(50.1869 12.7905 0)
(50.2163 12.7849 0)
(50.2453 12.7809 0)
(50.2738 12.7785 0)
(50.3013 12.7775 0)
(50.3282 12.7777 0)
(50.353 12.779 0)
(50.379 12.7806 0)
(50.3949 12.7839 0)
(50.4303 12.7803 0)
(49.8005 12.8372 0)
(49.8061 13.0749 0)
(49.8274 12.9945 0)
(49.8269 12.9754 0)
(49.8344 12.9585 0)
(49.8514 12.9376 0)
(49.8763 12.9204 0)
(49.9055 12.904 0)
(49.9358 12.8874 0)
(49.9654 12.8709 0)
(49.9943 12.8545 0)
(50.0229 12.8389 0)
(50.0515 12.8244 0)
(50.0804 12.8113 0)
(50.1096 12.7999 0)
(50.139 12.7901 0)
(50.1684 12.7821 0)
(50.1977 12.7758 0)
(50.2268 12.7712 0)
(50.2553 12.7683 0)
(50.2833 12.7669 0)
(50.3103 12.7669 0)
(50.3365 12.7681 0)
(50.3605 12.7704 0)
(50.3857 12.773 0)
(50.4006 12.7771 0)
(50.4347 12.774 0)
(49.7988 12.8381 0)
(49.8002 13.0783 0)
(49.8194 12.9934 0)
(49.817 12.9761 0)
(49.8245 12.9586 0)
(49.8418 12.9378 0)
(49.8665 12.9206 0)
(49.8949 12.9037 0)
(49.9238 12.8864 0)
(49.9521 12.869 0)
(49.9797 12.8518 0)
(50.0071 12.8353 0)
(50.0349 12.8198 0)
(50.0631 12.8059 0)
(50.0918 12.7935 0)
(50.1208 12.7829 0)
(50.15 12.7741 0)
(50.1792 12.767 0)
(50.2082 12.7617 0)
(50.2369 12.7582 0)
(50.265 12.7562 0)
(50.2925 12.7558 0)
(50.3189 12.7569 0)
(50.3445 12.7591 0)
(50.3678 12.7624 0)
(50.3921 12.7659 0)
(50.4061 12.7709 0)
(50.4388 12.7684 0)
(49.797 12.8393 0)
(49.7942 13.082 0)
(49.8116 12.9925 0)
(49.8075 12.9772 0)
(49.8152 12.959 0)
(49.8327 12.9386 0)
(49.8572 12.9212 0)
(49.8846 12.9039 0)
(49.9121 12.8859 0)
(49.9389 12.8676 0)
(49.9651 12.8495 0)
(49.9915 12.8321 0)
(50.0184 12.8158 0)
(50.0459 12.8009 0)
(50.0741 12.7876 0)
(50.1027 12.7761 0)
(50.1316 12.7664 0)
(50.1607 12.7585 0)
(50.1896 12.7525 0)
(50.2183 12.7482 0)
(50.2467 12.7457 0)
(50.2744 12.7447 0)
(50.3014 12.7454 0)
(50.3273 12.7474 0)
(50.3523 12.7507 0)
(50.3748 12.755 0)
(50.3982 12.7595 0)
(50.4113 12.7653 0)
(50.4426 12.7634 0)
(49.7951 12.8409 0)
(49.7883 13.0857 0)
(49.804 12.9919 0)
(49.7984 12.9787 0)
(49.8065 12.9599 0)
(49.8241 12.9397 0)
(49.8481 12.9222 0)
(49.8745 12.9044 0)
(49.9005 12.8858 0)
(49.9258 12.8667 0)
(49.9508 12.8478 0)
(49.9761 12.8295 0)
(50.0021 12.8122 0)
(50.0289 12.7964 0)
(50.0565 12.7821 0)
(50.0847 12.7697 0)
(50.1133 12.759 0)
(50.1421 12.7503 0)
(50.171 12.7435 0)
(50.1997 12.7385 0)
(50.2282 12.7353 0)
(50.2562 12.7337 0)
(50.2835 12.7338 0)
(50.3101 12.7355 0)
(50.3355 12.7386 0)
(50.3599 12.7429 0)
(50.3817 12.7482 0)
(50.4042 12.7536 0)
(50.4162 12.7602 0)
(50.4461 12.7589 0)
(49.7931 12.8427 0)
(49.7824 13.0895 0)
(49.7966 12.9915 0)
(49.7897 12.9805 0)
(49.7983 12.9611 0)
(49.8159 12.9413 0)
(49.8394 12.9236 0)
(49.8646 12.9054 0)
(49.8891 12.8861 0)
(49.913 12.8663 0)
(49.9366 12.8465 0)
(49.9608 12.8273 0)
(49.9859 12.8092 0)
(50.012 12.7924 0)
(50.039 12.7771 0)
(50.0667 12.7637 0)
(50.095 12.7521 0)
(50.1236 12.7425 0)
(50.1524 12.7348 0)
(50.1811 12.729 0)
(50.2096 12.7251 0)
(50.2378 12.7229 0)
(50.2655 12.7224 0)
(50.2925 12.7235 0)
(50.3186 12.7261 0)
(50.3436 12.7303 0)
(50.3673 12.7356 0)
(50.3884 12.742 0)
(50.4099 12.7483 0)
(50.421 12.7558 0)
(50.4493 12.755 0)
(49.7911 12.8447 0)
(49.7765 13.0933 0)
(49.7894 12.9913 0)
(49.7814 12.9826 0)
(49.7906 12.9626 0)
(49.8082 12.9432 0)
(49.831 12.9254 0)
(49.8549 12.9067 0)
(49.8779 12.8868 0)
(49.9003 12.8663 0)
(49.9227 12.8457 0)
(49.9458 12.8257 0)
(49.9699 12.8067 0)
(49.9952 12.7889 0)
(50.0215 12.7727 0)
(50.0488 12.7582 0)
(50.0767 12.7457 0)
(50.1051 12.7351 0)
(50.1338 12.7265 0)
(50.1624 12.7199 0)
(50.191 12.7151 0)
(50.2193 12.7122 0)
(50.2472 12.711 0)
(50.2746 12.7115 0)
(50.3012 12.7136 0)
(50.327 12.7173 0)
(50.3515 12.7225 0)
(50.3746 12.7289 0)
(50.3949 12.7362 0)
(50.4155 12.7435 0)
(50.4256 12.7518 0)
(50.4523 12.7517 0)
(49.789 12.847 0)
(49.7706 13.0972 0)
(49.7825 12.9913 0)
(49.7736 12.9851 0)
(49.7833 12.9645 0)
(49.8008 12.9454 0)
(49.8229 12.9275 0)
(49.8454 12.9083 0)
(49.8669 12.8878 0)
(49.8879 12.8667 0)
(49.909 12.8454 0)
(49.9309 12.8246 0)
(49.9541 12.8047 0)
(49.9786 12.7859 0)
(50.0042 12.7687 0)
(50.0309 12.7532 0)
(50.0584 12.7396 0)
(50.0866 12.7281 0)
(50.1151 12.7186 0)
(50.1437 12.7111 0)
(50.1723 12.7055 0)
(50.2007 12.7018 0)
(50.2288 12.6999 0)
(50.2564 12.6998 0)
(50.2835 12.7012 0)
(50.3098 12.7043 0)
(50.3352 12.709 0)
(50.3592 12.7152 0)
(50.3818 12.7226 0)
(50.4014 12.731 0)
(50.421 12.7393 0)
(50.43 12.7485 0)
(50.4551 12.7489 0)
(49.7868 12.8495 0)
(49.7648 13.1011 0)
(49.7758 12.9915 0)
(49.7662 12.9878 0)
(49.7766 12.9665 0)
(49.7938 12.948 0)
(49.815 12.9298 0)
(49.8361 12.9102 0)
(49.8562 12.8892 0)
(49.8756 12.8675 0)
(49.8955 12.8456 0)
(49.9163 12.824 0)
(49.9385 12.8032 0)
(49.9621 12.7835 0)
(49.987 12.7652 0)
(50.0131 12.7487 0)
(50.0402 12.7341 0)
(50.068 12.7215 0)
(50.0964 12.711 0)
(50.125 12.7026 0)
(50.1536 12.6962 0)
(50.1821 12.6917 0)
(50.2103 12.6891 0)
(50.2382 12.6882 0)
(50.2655 12.689 0)
(50.2923 12.6914 0)
(50.3183 12.6955 0)
(50.3434 12.7012 0)
(50.3669 12.7084 0)
(50.3889 12.7169 0)
(50.4077 12.7263 0)
(50.4263 12.7356 0)
(50.4343 12.7456 0)
(50.4577 12.7466 0)
(49.7846 12.8522 0)
(49.7591 13.105 0)
(49.7693 12.9918 0)
(49.7591 12.9907 0)
(49.7702 12.9688 0)
(49.7871 12.9508 0)
(49.8074 12.9324 0)
(49.8271 12.9125 0)
(49.8456 12.891 0)
(49.8637 12.8687 0)
(49.8823 12.8462 0)
(49.902 12.8238 0)
(49.9231 12.8022 0)
(49.9458 12.7816 0)
(49.9699 12.7623 0)
(49.9953 12.7447 0)
(50.0219 12.729 0)
(50.0494 12.7153 0)
(50.0776 12.7038 0)
(50.1061 12.6944 0)
(50.1348 12.6871 0)
(50.1634 12.6819 0)
(50.1917 12.6785 0)
(50.2198 12.6769 0)
(50.2474 12.677 0)
(50.2745 12.6788 0)
(50.301 12.6821 0)
(50.3267 12.6871 0)
(50.3514 12.6938 0)
(50.3745 12.702 0)
(50.396 12.7116 0)
(50.414 12.7221 0)
(50.4316 12.7324 0)
(50.4385 12.7432 0)
(50.46 12.7448 0)
(49.7822 12.8549 0)
(49.7534 13.1089 0)
(49.7631 12.9923 0)
(49.7525 12.9939 0)
(49.7642 12.9713 0)
(49.7807 12.9538 0)
(49.8 12.9352 0)
(49.8183 12.915 0)
(49.8353 12.8931 0)
(49.852 12.8703 0)
(49.8693 12.8472 0)
(49.8878 12.8242 0)
(49.9079 12.8017 0)
(49.9296 12.7802 0)
(49.9529 12.7599 0)
(49.9777 12.7412 0)
(50.0037 12.7244 0)
(50.0308 12.7096 0)
(50.0588 12.697 0)
(50.0872 12.6866 0)
(50.1159 12.6784 0)
(50.1446 12.6723 0)
(50.1731 12.6682 0)
(50.2013 12.6659 0)
(50.2291 12.6653 0)
(50.2564 12.6664 0)
(50.2833 12.669 0)
(50.3095 12.6733 0)
(50.335 12.6792 0)
(50.3594 12.6868 0)
(50.382 12.6961 0)
(50.4029 12.7067 0)
(50.4202 12.7183 0)
(50.4367 12.7296 0)
(50.4425 12.7412 0)
(50.4622 12.7434 0)
(49.7798 12.8579 0)
(49.7479 13.1128 0)
(49.7572 12.9929 0)
(49.7463 12.9972 0)
(49.7586 12.974 0)
(49.7746 12.957 0)
(49.7929 12.9382 0)
(49.8097 12.9177 0)
(49.8253 12.8954 0)
(49.8406 12.8722 0)
(49.8566 12.8486 0)
(49.874 12.8249 0)
(49.8929 12.8017 0)
(49.9136 12.7793 0)
(49.936 12.758 0)
(49.96 12.7383 0)
(49.9855 12.7203 0)
(50.0122 12.7044 0)
(50.0399 12.6907 0)
(50.0682 12.6793 0)
(50.0969 12.6701 0)
(50.1257 12.6631 0)
(50.1544 12.6582 0)
(50.1827 12.6552 0)
(50.2107 12.6539 0)
(50.2383 12.6543 0)
(50.2654 12.6562 0)
(50.292 12.6597 0)
(50.318 12.6648 0)
(50.3432 12.6717 0)
(50.3672 12.6803 0)
(50.3895 12.6906 0)
(50.4098 12.7023 0)
(50.4263 12.715 0)
(50.4418 12.7273 0)
(50.4464 12.7398 0)
(50.4641 12.7426 0)
(49.7773 12.8609 0)
(49.7425 13.1167 0)
(49.7515 12.9937 0)
(49.7404 13.0007 0)
(49.7534 12.9767 0)
(49.7687 12.9604 0)
(49.7859 12.9413 0)
(49.8013 12.9206 0)
(49.8155 12.8981 0)
(49.8295 12.8745 0)
(49.8443 12.8504 0)
(49.8604 12.8261 0)
(49.8782 12.8022 0)
(49.8979 12.7789 0)
(49.9193 12.7567 0)
(49.9425 12.7359 0)
(49.9673 12.7168 0)
(49.9936 12.6997 0)
(50.0209 12.6848 0)
(50.0491 12.6723 0)
(50.0778 12.6621 0)
(50.1067 12.6541 0)
(50.1355 12.6484 0)
(50.1641 12.6446 0)
(50.1923 12.6427 0)
(50.2201 12.6425 0)
(50.2474 12.6437 0)
(50.2742 12.6465 0)
(50.3006 12.6508 0)
(50.3263 12.6568 0)
(50.3513 12.6645 0)
(50.3751 12.6741 0)
(50.397 12.6854 0)
(50.4167 12.6983 0)
(50.4324 12.7121 0)
(50.4467 12.7254 0)
(50.4502 12.7387 0)
(50.4659 12.7421 0)
(49.7747 12.8639 0)
(49.7372 13.1204 0)
(49.7461 12.9946 0)
(49.7349 13.0043 0)
(49.7484 12.9797 0)
(49.7631 12.9639 0)
(49.7792 12.9446 0)
(49.7932 12.9238 0)
(49.806 12.9009 0)
(49.8187 12.8771 0)
(49.8322 12.8525 0)
(49.8471 12.8278 0)
(49.8638 12.8031 0)
(49.8823 12.779 0)
(49.9027 12.7559 0)
(49.9251 12.734 0)
(49.9492 12.7138 0)
(49.9749 12.6955 0)
(50.0019 12.6795 0)
(50.0299 12.6657 0)
(50.0586 12.6544 0)
(50.0876 12.6455 0)
(50.1166 12.6388 0)
(50.1454 12.6343 0)
(50.1739 12.6317 0)
(50.2019 12.6309 0)
(50.2293 12.6316 0)
(50.2563 12.6337 0)
(50.2829 12.6373 0)
(50.309 12.6424 0)
(50.3346 12.6491 0)
(50.3593 12.6577 0)
(50.3828 12.6683 0)
(50.4044 12.6807 0)
(50.4236 12.6946 0)
(50.4385 12.7095 0)
(50.4517 12.724 0)
(50.454 12.7381 0)
(50.4675 12.7421 0)
(49.772 12.8671 0)
(49.732 13.1242 0)
(49.7409 12.9956 0)
(49.7297 13.0081 0)
(49.7438 12.9827 0)
(49.7578 12.9675 0)
(49.7727 12.9481 0)
(49.7853 12.9271 0)
(49.7968 12.9041 0)
(49.8082 12.8799 0)
(49.8204 12.855 0)
(49.8342 12.8298 0)
(49.8496 12.8045 0)
(49.867 12.7796 0)
(49.8864 12.7556 0)
(49.9078 12.7327 0)
(49.9311 12.7113 0)
(49.9562 12.6919 0)
(49.9828 12.6746 0)
(50.0105 12.6596 0)
(50.0392 12.6471 0)
(50.0682 12.6371 0)
(50.0975 12.6295 0)
(50.1266 12.6242 0)
(50.1554 12.6209 0)
(50.1836 12.6195 0)
(50.2113 12.6196 0)
(50.2384 12.6212 0)
(50.2651 12.6242 0)
(50.2914 12.6285 0)
(50.3173 12.6343 0)
(50.3427 12.6418 0)
(50.3673 12.6513 0)
(50.3906 12.6628 0)
(50.4117 12.6762 0)
(50.4304 12.6913 0)
(50.4445 12.7074 0)
(50.4565 12.7229 0)
(50.4576 12.7378 0)
(50.469 12.7425 0)
(49.7692 12.8703 0)
(49.727 13.1278 0)
(49.736 12.9967 0)
(49.7249 13.0119 0)
(49.7394 12.9857 0)
(49.7526 12.9713 0)
(49.7665 12.9516 0)
(49.7777 12.9305 0)
(49.7878 12.9074 0)
(49.798 12.8831 0)
(49.809 12.8579 0)
(49.8215 12.8322 0)
(49.8357 12.8063 0)
(49.8519 12.7807 0)
(49.8702 12.7558 0)
(49.8906 12.7319 0)
(49.9131 12.7094 0)
(49.9375 12.6888 0)
(49.9636 12.6702 0)
(49.9911 12.654 0)
(50.0196 12.6403 0)
(50.0487 12.6292 0)
(50.0782 12.6205 0)
(50.1076 12.6143 0)
(50.1367 12.6103 0)
(50.1653 12.6082 0)
(50.1933 12.6079 0)
(50.2206 12.609 0)
(50.2474 12.6114 0)
(50.2738 12.6151 0)
(50.2998 12.6201 0)
(50.3255 12.6266 0)
(50.3508 12.6349 0)
(50.3752 12.6451 0)
(50.3983 12.6576 0)
(50.4191 12.6721 0)
(50.4371 12.6884 0)
(50.4505 12.7056 0)
(50.4613 12.7222 0)
(50.4611 12.738 0)
(50.4703 12.7432 0)
(49.7664 12.8735 0)
(49.7222 13.1314 0)
(49.7314 12.9979 0)
(49.7204 13.0158 0)
(49.7353 12.9889 0)
(49.7476 12.9751 0)
(49.7604 12.9552 0)
(49.7703 12.9341 0)
(49.7792 12.9109 0)
(49.7881 12.8864 0)
(49.7979 12.861 0)
(49.8092 12.8349 0)
(49.8221 12.8085 0)
(49.8371 12.7823 0)
(49.8543 12.7565 0)
(49.8737 12.7316 0)
(49.8952 12.7081 0)
(49.9189 12.6862 0)
(49.9444 12.6664 0)
(49.9715 12.6489 0)
(49.9999 12.6339 0)
(50.029 12.6216 0)
(50.0587 12.6118 0)
(50.0884 12.6046 0)
(50.1179 12.5998 0)
(50.1469 12.5971 0)
(50.1752 12.5962 0)
(50.2028 12.5969 0)
(50.2298 12.5989 0)
(50.2562 12.6021 0)
(50.2823 12.6064 0)
(50.308 12.6121 0)
(50.3336 12.6192 0)
(50.3587 12.6282 0)
(50.383 12.6393 0)
(50.4059 12.6527 0)
(50.4264 12.6683 0)
(50.4439 12.6857 0)
(50.4564 12.7041 0)
(50.466 12.7218 0)
(50.4646 12.7385 0)
(50.4714 12.7443 0)
(49.7634 12.8767 0)
(49.7175 13.1349 0)
(49.7269 12.9992 0)
(49.7162 13.0198 0)
(49.7314 12.992 0)
(49.7428 12.9789 0)
(49.7545 12.9589 0)
(49.7632 12.9379 0)
(49.7709 12.9145 0)
(49.7786 12.89 0)
(49.7872 12.8643 0)
(49.7972 12.8379 0)
(49.8089 12.8111 0)
(49.8226 12.7842 0)
(49.8386 12.7577 0)
(49.8569 12.7319 0)
(49.8775 12.7073 0)
(49.9003 12.6842 0)
(49.9252 12.6631 0)
(49.9518 12.6443 0)
(49.9799 12.628 0)
(50.0091 12.6144 0)
(50.0389 12.6035 0)
(50.0689 12.5952 0)
(50.0988 12.5895 0)
(50.1283 12.586 0)
(50.1571 12.5846 0)
(50.1851 12.5848 0)
(50.2123 12.5865 0)
(50.2388 12.5894 0)
(50.2649 12.5932 0)
(50.2906 12.5982 0)
(50.3161 12.6044 0)
(50.3415 12.6121 0)
(50.3665 12.6217 0)
(50.3908 12.6336 0)
(50.4135 12.648 0)
(50.4337 12.6647 0)
(50.4507 12.6834 0)
(50.4623 12.703 0)
(50.4706 12.7218 0)
(50.468 12.7393 0)
(50.4724 12.7457 0)
(49.7604 12.88 0)
(49.7131 13.1384 0)
(49.7227 13.0005 0)
(49.7122 13.0238 0)
(49.7278 12.9952 0)
(49.7383 12.9828 0)
(49.7489 12.9626 0)
(49.7563 12.9417 0)
(49.7628 12.9183 0)
(49.7694 12.8938 0)
(49.7768 12.868 0)
(49.7855 12.8413 0)
(49.796 12.8141 0)
(49.8084 12.7866 0)
(49.8232 12.7594 0)
(49.8403 12.7327 0)
(49.8599 12.707 0)
(49.8818 12.6828 0)
(49.9059 12.6605 0)
(49.9321 12.6403 0)
(49.9599 12.6227 0)
(49.9889 12.6077 0)
(50.0188 12.5955 0)
(50.0492 12.586 0)
(50.0795 12.5793 0)
(50.1095 12.575 0)
(50.1388 12.573 0)
(50.1673 12.5728 0)
(50.1949 12.5742 0)
(50.2217 12.5768 0)
(50.2477 12.5804 0)
(50.2733 12.5849 0)
(50.2987 12.5903 0)
(50.324 12.597 0)
(50.3493 12.6053 0)
(50.3743 12.6156 0)
(50.3985 12.6283 0)
(50.4211 12.6436 0)
(50.441 12.6615 0)
(50.4574 12.6813 0)
(50.4682 12.7021 0)
(50.4752 12.7221 0)
(50.4713 12.7404 0)
(50.4732 12.7475 0)
(49.7573 12.8832 0)
(49.7088 13.1417 0)
(49.7187 13.0019 0)
(49.7086 13.0277 0)
(49.7243 12.9984 0)
(49.7339 12.9867 0)
(49.7435 12.9663 0)
(49.7497 12.9456 0)
(49.7551 12.9223 0)
(49.7605 12.8977 0)
(49.7667 12.8718 0)
(49.7742 12.8449 0)
(49.7834 12.8174 0)
(49.7946 12.7894 0)
(49.808 12.7615 0)
(49.824 12.734 0)
(49.8424 12.7074 0)
(49.8634 12.682 0)
(49.8867 12.6584 0)
(49.9123 12.6369 0)
(49.9396 12.6178 0)
(49.9685 12.6014 0)
(49.9985 12.5879 0)
(50.0291 12.5772 0)
(50.0599 12.5694 0)
(50.0904 12.5642 0)
(50.1204 12.5614 0)
(50.1495 12.5607 0)
(50.1776 12.5617 0)
(50.2047 12.5641 0)
(50.2309 12.5676 0)
(50.2564 12.5719 0)
(50.2816 12.5769 0)
(50.3066 12.5828 0)
(50.3317 12.5899 0)
(50.3569 12.5987 0)
(50.3819 12.6096 0)
(50.4061 12.6231 0)
(50.4286 12.6394 0)
(50.4482 12.6584 0)
(50.4641 12.6795 0)
(50.474 12.7016 0)
(50.4797 12.7227 0)
(50.4745 12.7418 0)
(50.4738 12.7495 0)
(49.7541 12.8865 0)
(49.7046 13.1449 0)
(49.7149 13.0034 0)
(49.7052 13.0317 0)
(49.721 13.0016 0)
(49.7296 12.9906 0)
(49.7382 12.9701 0)
(49.7433 12.9495 0)
(49.7477 12.9263 0)
(49.7519 12.9018 0)
(49.757 12.8758 0)
(49.7632 12.8488 0)
(49.7711 12.821 0)
(49.781 12.7926 0)
(49.7932 12.7641 0)
(49.8079 12.7358 0)
(49.8252 12.7082 0)
(49.8451 12.6818 0)
(49.8676 12.6569 0)
(49.8924 12.6341 0)
(49.9193 12.6136 0)
(49.9479 12.5958 0)
(49.9779 12.5808 0)
(50.0087 12.5687 0)
(50.0398 12.5597 0)
(50.0709 12.5534 0)
(50.1016 12.5498 0)
(50.1314 12.5485 0)
(50.1601 12.5492 0)
(50.1878 12.5514 0)
(50.2143 12.5548 0)
(50.2399 12.559 0)
(50.2649 12.5638 0)
(50.2896 12.5693 0)
(50.3143 12.5756 0)
(50.3393 12.5831 0)
(50.3644 12.5923 0)
(50.3894 12.6038 0)
(50.4136 12.6181 0)
(50.4361 12.6354 0)
(50.4554 12.6556 0)
(50.4707 12.6779 0)
(50.4798 12.7012 0)
(50.4842 12.7235 0)
(50.4776 12.7436 0)
(50.4744 12.7519 0)
(49.7509 12.8897 0)
(49.7007 13.148 0)
(49.7112 13.0049 0)
(49.702 13.0357 0)
(49.7179 13.0048 0)
(49.7256 12.9945 0)
(49.7332 12.9739 0)
(49.7372 12.9536 0)
(49.7405 12.9304 0)
(49.7437 12.906 0)
(49.7476 12.8801 0)
(49.7526 12.8529 0)
(49.7593 12.8249 0)
(49.7679 12.7961 0)
(49.7787 12.767 0)
(49.7921 12.7381 0)
(49.8082 12.7096 0)
(49.827 12.6821 0)
(49.8485 12.6561 0)
(49.8725 12.6319 0)
(49.8988 12.61 0)
(49.9271 12.5906 0)
(49.9569 12.5742 0)
(49.9879 12.5607 0)
(50.0194 12.5503 0)
(50.0511 12.5429 0)
(50.0824 12.5383 0)
(50.113 12.5363 0)
(50.1425 12.5365 0)
(50.1708 12.5385 0)
(50.1979 12.5418 0)
(50.2238 12.546 0)
(50.2487 12.5509 0)
(50.2731 12.5563 0)
(50.2973 12.5621 0)
(50.3218 12.5687 0)
(50.3466 12.5765 0)
(50.3718 12.5861 0)
(50.3969 12.5983 0)
(50.4211 12.6133 0)
(50.4436 12.6316 0)
(50.4626 12.653 0)
(50.4774 12.6766 0)
(50.4856 12.7012 0)
(50.4886 12.7246 0)
(50.4807 12.7455 0)
(50.4748 12.7545 0)
(49.7475 12.8928 0)
(49.697 13.1511 0)
(49.7078 13.0065 0)
(49.699 13.0396 0)
(49.7149 13.008 0)
(49.7217 12.9984 0)
(49.7284 12.9777 0)
(49.7314 12.9576 0)
(49.7337 12.9346 0)
(49.7358 12.9103 0)
(49.7385 12.8844 0)
(49.7424 12.8573 0)
(49.7477 12.829 0)
(49.755 12.7999 0)
(49.7646 12.7704 0)
(49.7767 12.7408 0)
(49.7915 12.7115 0)
(49.8091 12.6831 0)
(49.8295 12.6558 0)
(49.8527 12.6303 0)
(49.8783 12.607 0)
(49.9061 12.5861 0)
(49.9357 12.5681 0)
(49.9667 12.5531 0)
(49.9985 12.5413 0)
(50.0307 12.5326 0)
(50.0627 12.5269 0)
(50.0941 12.524 0)
(50.1246 12.5236 0)
(50.1537 12.5253 0)
(50.1815 12.5285 0)
(50.2079 12.5329 0)
(50.233 12.5379 0)
(50.2573 12.5434 0)
(50.2811 12.5491 0)
(50.3049 12.5553 0)
(50.329 12.5621 0)
(50.3537 12.5701 0)
(50.379 12.5801 0)
(50.4042 12.5928 0)
(50.4286 12.6087 0)
(50.451 12.628 0)
(50.4698 12.6506 0)
(50.484 12.6754 0)
(50.4913 12.7013 0)
(50.4929 12.726 0)
(50.4836 12.7477 0)
(50.475 12.7573 0)
(49.7441 12.896 0)
(49.6935 13.1539 0)
(49.7045 13.0081 0)
(49.6963 13.0434 0)
(49.712 13.0111 0)
(49.718 13.0022 0)
(49.7238 12.9814 0)
(49.7258 12.9617 0)
(49.7271 12.9388 0)
(49.7282 12.9147 0)
(49.7298 12.8889 0)
(49.7325 12.8618 0)
(49.7366 12.8334 0)
(49.7426 12.8041 0)
(49.7508 12.7742 0)
(49.7615 12.744 0)
(49.775 12.714 0)
(49.7914 12.6846 0)
(49.8107 12.6562 0)
(49.8329 12.6294 0)
(49.8577 12.6046 0)
(49.885 12.5822 0)
(49.9143 12.5626 0)
(49.9452 12.5461 0)
(49.9772 12.5327 0)
(50.0099 12.5226 0)
(50.0426 12.5157 0)
(50.0748 12.5118 0)
(50.1062 12.5106 0)
(50.1363 12.5118 0)
(50.165 12.5148 0)
(50.1921 12.5193 0)
(50.2178 12.5246 0)
(50.2421 12.5304 0)
(50.2656 12.5364 0)
(50.2888 12.5424 0)
(50.3121 12.5487 0)
(50.336 12.5557 0)
(50.3607 12.5639 0)
(50.386 12.5743 0)
(50.4114 12.5876 0)
(50.4359 12.6042 0)
(50.4583 12.6246 0)
(50.4769 12.6483 0)
(50.4906 12.6745 0)
(50.497 12.7017 0)
(50.4972 12.7275 0)
(50.4865 12.7502 0)
(50.4751 12.7604 0)
(49.7406 12.8991 0)
(49.6902 13.1567 0)
(49.7014 13.0097 0)
(49.6937 13.0472 0)
(49.7093 13.0141 0)
(49.7144 13.006 0)
(49.7194 12.9852 0)
(49.7204 12.9658 0)
(49.7209 12.9431 0)
(49.7209 12.9192 0)
(49.7215 12.8935 0)
(49.723 12.8664 0)
(49.7258 12.838 0)
(49.7305 12.8085 0)
(49.7374 12.7783 0)
(49.7468 12.7476 0)
(49.7589 12.7169 0)
(49.774 12.6866 0)
(49.7921 12.6572 0)
(49.8132 12.6291 0)
(49.8371 12.6029 0)
(49.8637 12.579 0)
(49.8926 12.5578 0)
(49.9234 12.5396 0)
(49.9555 12.5246 0)
(49.9885 12.513 0)
(50.0218 12.5047 0)
(50.0549 12.4996 0)
(50.0873 12.4975 0)
(50.1185 12.498 0)
(50.1483 12.5008 0)
(50.1763 12.5052 0)
(50.2027 12.5108 0)
(50.2274 12.517 0)
(50.251 12.5235 0)
(50.2737 12.5298 0)
(50.2962 12.5361 0)
(50.3191 12.5425 0)
(50.3428 12.5495 0)
(50.3674 12.5579 0)
(50.3929 12.5686 0)
(50.4185 12.5824 0)
(50.4432 12.5999 0)
(50.4656 12.6213 0)
(50.484 12.6462 0)
(50.4971 12.6738 0)
(50.5026 12.7023 0)
(50.5014 12.7293 0)
(50.4893 12.7528 0)
(50.4751 12.7636 0)
(49.7371 12.9021 0)
(49.687 13.1594 0)
(49.6984 13.0114 0)
(49.6914 13.051 0)
(49.7068 13.0172 0)
(49.711 13.0098 0)
(49.7151 12.9889 0)
(49.7153 12.9699 0)
(49.7149 12.9474 0)
(49.714 12.9238 0)
(49.7135 12.8982 0)
(49.7138 12.8712 0)
(49.7155 12.8428 0)
(49.7188 12.8132 0)
(49.7244 12.7827 0)
(49.7324 12.7516 0)
(49.7431 12.7202 0)
(49.7568 12.6891 0)
(49.7737 12.6587 0)
(49.7936 12.6295 0)
(49.8166 12.6019 0)
(49.8424 12.5765 0)
(49.8707 12.5537 0)
(49.9012 12.5338 0)
(49.9333 12.5171 0)
(49.9666 12.5038 0)
(50.0005 12.494 0)
(50.0344 12.4876 0)
(50.0678 12.4844 0)
(50.1001 12.4841 0)
(50.1311 12.4864 0)
(50.1603 12.4906 0)
(50.1876 12.4964 0)
(50.2131 12.5031 0)
(50.2369 12.5101 0)
(50.2595 12.5171 0)
(50.2814 12.5237 0)
(50.3033 12.5301 0)
(50.3258 12.5365 0)
(50.3493 12.5435 0)
(50.374 12.552 0)
(50.3996 12.563 0)
(50.4255 12.5774 0)
(50.4504 12.5957 0)
(50.4729 12.6181 0)
(50.4911 12.6443 0)
(50.5036 12.6732 0)
(50.5082 12.7031 0)
(50.5055 12.7313 0)
(50.492 12.7557 0)
(50.4749 12.767 0)
(49.7334 12.9051 0)
(49.6841 13.1619 0)
(49.6955 13.0131 0)
(49.6892 13.0546 0)
(49.7043 13.0201 0)
(49.7077 13.0135 0)
(49.7111 12.9926 0)
(49.7104 12.9739 0)
(49.7091 12.9517 0)
(49.7073 12.9283 0)
(49.7058 12.903 0)
(49.705 12.8761 0)
(49.7055 12.8478 0)
(49.7076 12.8181 0)
(49.7117 12.7874 0)
(49.7183 12.7559 0)
(49.7277 12.724 0)
(49.74 12.6922 0)
(49.7555 12.6609 0)
(49.7742 12.6305 0)
(49.7961 12.6016 0)
(49.821 12.5747 0)
(49.8487 12.5502 0)
(49.8787 12.5286 0)
(49.9108 12.5102 0)
(49.9443 12.4952 0)
(49.9786 12.4838 0)
(50.0132 12.4759 0)
(50.0476 12.4714 0)
(50.0811 12.4701 0)
(50.1133 12.4716 0)
(50.1438 12.4756 0)
(50.1723 12.4813 0)
(50.1988 12.4884 0)
(50.2234 12.496 0)
(50.2462 12.5038 0)
(50.2678 12.5112 0)
(50.2889 12.518 0)
(50.3101 12.5244 0)
(50.3322 12.5307 0)
(50.3555 12.5377 0)
(50.3803 12.5463 0)
(50.4062 12.5575 0)
(50.4324 12.5724 0)
(50.4576 12.5916 0)
(50.4801 12.6151 0)
(50.4981 12.6426 0)
(50.51 12.6728 0)
(50.5137 12.704 0)
(50.5096 12.7334 0)
(50.4946 12.7587 0)
(50.4746 12.7706 0)
(49.7297 12.908 0)
(49.6814 13.1643 0)
(49.6928 13.0148 0)
(49.6872 13.0581 0)
(49.7019 13.0231 0)
(49.7046 13.0171 0)
(49.7072 12.9962 0)
(49.7057 12.978 0)
(49.7037 12.956 0)
(49.7009 12.9329 0)
(49.6984 12.9078 0)
(49.6966 12.8812 0)
(49.6958 12.8529 0)
(49.6967 12.8232 0)
(49.6995 12.7923 0)
(49.7047 12.7606 0)
(49.7126 12.7283 0)
(49.7236 12.6958 0)
(49.7377 12.6636 0)
(49.755 12.6321 0)
(49.7757 12.602 0)
(49.7996 12.5736 0)
(49.8265 12.5475 0)
(49.8561 12.5242 0)
(49.8879 12.504 0)
(49.9214 12.4872 0)
(49.9561 12.474 0)
(49.9913 12.4645 0)
(50.0266 12.4585 0)
(50.0612 12.456 0)
(50.0947 12.4567 0)
(50.1267 12.4601 0)
(50.1566 12.4657 0)
(50.1844 12.4729 0)
(50.21 12.4811 0)
(50.2334 12.4897 0)
(50.2552 12.4981 0)
(50.2758 12.5058 0)
(50.296 12.5128 0)
(50.3165 12.519 0)
(50.3382 12.5252 0)
(50.3615 12.532 0)
(50.3864 12.5406 0)
(50.4126 12.5522 0)
(50.4392 12.5676 0)
(50.4646 12.5876 0)
(50.4872 12.6122 0)
(50.505 12.6409 0)
(50.5164 12.6725 0)
(50.5192 12.7051 0)
(50.5136 12.7357 0)
(50.4972 12.7619 0)
(50.4742 12.7744 0)
(49.726 12.9109 0)
(49.6789 13.1666 0)
(49.6902 13.0165 0)
(49.6854 13.0616 0)
(49.6997 13.0259 0)
(49.7016 13.0207 0)
(49.7035 12.9998 0)
(49.7013 12.982 0)
(49.6984 12.9603 0)
(49.6948 12.9375 0)
(49.6914 12.9127 0)
(49.6885 12.8862 0)
(49.6866 12.8581 0)
(49.6862 12.8285 0)
(49.6877 12.7975 0)
(49.6915 12.7656 0)
(49.698 12.7328 0)
(49.7074 12.6998 0)
(49.7201 12.6668 0)
(49.7361 12.6344 0)
(49.7556 12.603 0)
(49.7783 12.5732 0)
(49.8043 12.5455 0)
(49.8332 12.5205 0)
(49.8646 12.4984 0)
(49.898 12.4798 0)
(49.933 12.4648 0)
(49.9688 12.4535 0)
(50.0049 12.446 0)
(50.0406 12.4421 0)
(50.0754 12.4416 0)
(50.1088 12.4442 0)
(50.1403 12.4494 0)
(50.1696 12.4566 0)
(50.1965 12.4652 0)
(50.221 12.4746 0)
(50.2433 12.484 0)
(50.2639 12.4929 0)
(50.2834 12.5009 0)
(50.3027 12.5078 0)
(50.3227 12.5139 0)
(50.344 12.5198 0)
(50.3672 12.5265 0)
(50.3923 12.5351 0)
(50.4189 12.5469 0)
(50.4458 12.5628 0)
(50.4716 12.5837 0)
(50.4943 12.6094 0)
(50.5119 12.6394 0)