/*--------------------------------*- C++ -*----------------------------------*\
  =========                 |
  \\      /  F ield         | OpenFOAM: The Open Source CFD Toolbox
   \\    /   O peration     | Website:  https://openfoam.org
    \\  /    A nd           | Version:  7
     \\/     M anipulation  |
\*---------------------------------------------------------------------------*/
FoamFile
{
    version     2.0;
    format      ascii;
    class       volScalarField;
    location    "400";
    object      yPlus;
}
// * * * * * * * * * * * * * * * * * * * * * * * * * * * * * * * * * * * * * //

dimensions      [0 0 0 0 0 0 0];

internalField   uniform 0;

boundaryField
{
    inlet-l
    {
        type            calculated;
        value           uniform 0;
    }
    airfoil-l1
    {
        type            calculated;
        value           nonuniform 0();
    }
    empty-1
    {
        type            empty;
    }
    empty-2
    {
        type            empty;
    }
    wall-l1
    {
        type            calculated;
        value           nonuniform List<scalar> 
67
(
132.564
132.31
131.868
131.467
131.109
130.759
130.401
130.046
129.695
129.35
129.009
128.673
128.347
128.025
127.702
127.383
127.076
126.771
126.465
126.164
125.874
125.586
125.296
125.017
124.742
124.47
124.205
123.935
123.675
123.422
123.168
122.922
122.676
122.437
122.194
121.962
121.733
121.506
121.285
121.067
120.851
120.64
120.432
120.227
120.028
119.828
119.634
119.443
119.255
119.071
118.89
118.711
118.537
118.365
118.196
118.031
117.868
117.708
117.554
117.394
117.244
117.097
116.952
116.812
116.67
116.541
116.383
)
;
    }
    airfoil-l2
    {
        type            calculated;
        value           nonuniform List<scalar> 
66
(
23.3083
23.5109
23.6772
23.8155
23.9328
24.0324
24.1221
24.2016
24.2689
24.3276
24.3778
24.4221
24.465
24.5008
24.5324
24.5605
24.5855
24.6078
24.6291
24.6481
24.6626
24.6794
24.6921
24.7047
24.7173
24.7261
24.734
24.7423
24.7496
24.7536
24.7609
24.765
24.7684
24.7713
24.7754
24.7819
24.7846
24.7819
24.7833
24.7899
24.7911
24.7936
24.7972
24.7977
24.7982
24.8005
24.8038
24.8045
24.8053
24.8066
24.8094
24.8153
24.8204
24.8231
24.8263
24.8304
24.8354
24.8418
24.8508
24.8632
24.8782
24.8956
24.925
24.9447
25.0693
24.8717
)
;
    }
    empty-3
    {
        type            empty;
    }
    empty-4
    {
        type            empty;
    }
    wall-l2
    {
        type            calculated;
        value           nonuniform List<scalar> 
74
(
116.36
116.426
116.519
116.615
116.727
116.863
117.021
117.2
117.397
117.615
117.853
118.109
118.385
118.679
118.99
119.319
119.665
120.027
120.405
120.797
121.203
121.622
122.053
122.496
122.948
123.41
123.879
124.355
124.837
125.322
125.809
126.296
126.783
127.266
127.743
128.214
128.674
129.122
129.556
129.971
130.366
130.737
131.081
131.393
131.671
131.91
132.107
132.256
132.352
132.391
132.368
132.276
132.11
131.862
131.527
131.095
130.56
129.912
129.141
128.235
127.183
125.971
124.582
122.998
121.197
119.155
116.842
114.228
111.283
108.002
104.414
100.841
98.0531
97.6742
)
;
    }
    outlet-l
    {
        type            calculated;
        value           uniform 0;
    }
    empty-5
    {
        type            empty;
    }
    empty-6
    {
        type            empty;
    }
    outlet-h
    {
        type            calculated;
        value           nonuniform 0();
    }
    wall-h2
    {
        type            calculated;
        value           nonuniform 0();
    }
    empty-7
    {
        type            empty;
    }
    empty-8
    {
        type            empty;
    }
    airfoil-h2
    {
        type            calculated;
        value           nonuniform 0();
    }
    wall-h1
    {
        type            calculated;
        value           nonuniform 0();
    }
    empty-9
    {
        type            empty;
    }
    empty-10
    {
        type            empty;
    }
    inlet-h
    {
        type            calculated;
        value           nonuniform 0();
    }
    airfoil-h1
    {
        type            calculated;
        value           nonuniform 0();
    }
    empty-11
    {
        type            empty;
    }
    empty-12
    {
        type            empty;
    }
    procBoundary1to0
    {
        type            processor;
        value           uniform 0;
    }
    procBoundary1to2
    {
        type            processor;
        value           uniform 0;
    }
}


// ************************************************************************* //
