# Force coefficient bins
# bins        : 31
# start       : 9.522700e-05
# delta       : 3.216427e-02
# direction   : (1.000000e+00 0.000000e+00 0.000000e+00)
# x co-ords  :	3.225950e-02	6.442377e-02	9.658805e-02	1.287523e-01	1.609166e-01	1.930809e-01	2.252451e-01	2.574094e-01	2.895737e-01	3.217380e-01	3.539022e-01	3.860665e-01	4.182308e-01	4.503951e-01	4.825593e-01	5.147236e-01	5.468879e-01	5.790521e-01	6.112164e-01	6.433807e-01	6.755450e-01	7.077092e-01	7.398735e-01	7.720378e-01	8.042021e-01	8.363663e-01	8.685306e-01	9.006949e-01	9.328592e-01	9.650234e-01	9.971877e-01
# y co-ords  :	0.000000e+00	0.000000e+00	0.000000e+00	0.000000e+00	0.000000e+00	0.000000e+00	0.000000e+00	0.000000e+00	0.000000e+00	0.000000e+00	0.000000e+00	0.000000e+00	0.000000e+00	0.000000e+00	0.000000e+00	0.000000e+00	0.000000e+00	0.000000e+00	0.000000e+00	0.000000e+00	0.000000e+00	0.000000e+00	0.000000e+00	0.000000e+00	0.000000e+00	0.000000e+00	0.000000e+00	0.000000e+00	0.000000e+00	0.000000e+00	0.000000e+00
# z co-ords  :	0.000000e+00	0.000000e+00	0.000000e+00	0.000000e+00	0.000000e+00	0.000000e+00	0.000000e+00	0.000000e+00	0.000000e+00	0.000000e+00	0.000000e+00	0.000000e+00	0.000000e+00	0.000000e+00	0.000000e+00	0.000000e+00	0.000000e+00	0.000000e+00	0.000000e+00	0.000000e+00	0.000000e+00	0.000000e+00	0.000000e+00	0.000000e+00	0.000000e+00	0.000000e+00	0.000000e+00	0.000000e+00	0.000000e+00	0.000000e+00	0.000000e+00
# Time        	Cm(0)         	Cd(0)         	Cl(0)         	Cm(1)         	Cd(1)         	Cl(1)         	Cm(2)         	Cd(2)         	Cl(2)         	Cm(3)         	Cd(3)         	Cl(3)         	Cm(4)         	Cd(4)         	Cl(4)         	Cm(5)         	Cd(5)         	Cl(5)         	Cm(6)         	Cd(6)         	Cl(6)         	Cm(7)         	Cd(7)         	Cl(7)         	Cm(8)         	Cd(8)         	Cl(8)         	Cm(9)         	Cd(9)         	Cl(9)         	Cm(10)        	Cd(10)        	Cl(10)        	Cm(11)        	Cd(11)        	Cl(11)        	Cm(12)        	Cd(12)        	Cl(12)        	Cm(13)        	Cd(13)        	Cl(13)        	Cm(14)        	Cd(14)        	Cl(14)        	Cm(15)        	Cd(15)        	Cl(15)        	Cm(16)        	Cd(16)        	Cl(16)        	Cm(17)        	Cd(17)        	Cl(17)        	Cm(18)        	Cd(18)        	Cl(18)        	Cm(19)        	Cd(19)        	Cl(19)        	Cm(20)        	Cd(20)        	Cl(20)        	Cm(21)        	Cd(21)        	Cl(21)        	Cm(22)        	Cd(22)        	Cl(22)        	Cm(23)        	Cd(23)        	Cl(23)        	Cm(24)        	Cd(24)        	Cl(24)        	Cm(25)        	Cd(25)        	Cl(25)        	Cm(26)        	Cd(26)        	Cl(26)        	Cm(27)        	Cd(27)        	Cl(27)        	Cm(28)        	Cd(28)        	Cl(28)        	Cm(29)        	Cd(29)        	Cl(29)        	Cm(30)        	Cd(30)        	Cl(30)        
0             	-8.854956e-05	6.074250e-01	1.332320e-04	-2.838738e-04	1.076598e+00	-5.465292e-04	-4.323268e-04	1.491421e+00	-3.918886e-04	-7.274172e-04	1.828991e+00	-4.103667e-04	-9.216970e-04	2.165104e+00	-2.830846e-04	-8.568146e-04	2.514214e+00	-2.784112e-05	-7.461467e-04	2.835777e+00	1.545929e-04	-7.230188e-04	3.136882e+00	2.552295e-04	-9.032248e-04	3.522370e+00	3.081061e-04	-7.961916e-04	3.809233e+00	3.171682e-04	-7.556588e-04	4.182731e+00	2.947117e-04	-7.287146e-04	4.456409e+00	2.533878e-04	-8.969178e-04	4.821177e+00	2.290517e-04	-7.695288e-04	5.175527e+00	1.117368e-04	-9.428742e-04	5.438608e+00	1.095851e-04	-1.005826e-03	5.784653e+00	5.343018e-05	-7.814372e-04	6.122083e+00	-1.406534e-04	-5.953554e-04	6.453187e+00	-3.361504e-04	-5.403741e-04	6.779027e+00	-4.386275e-04	-4.561281e-04	7.176741e+00	-6.017642e-04	-4.817231e-04	7.488857e+00	-6.226006e-04	-4.160330e-04	7.791203e+00	-7.602785e-04	-4.554420e-04	8.163842e+00	-7.289131e-04	-4.758529e-04	8.457152e+00	-7.246095e-04	-4.907865e-04	8.820660e+00	-7.124846e-04	-4.990751e-04	9.163809e+00	-6.634759e-04	-4.841195e-04	9.504035e+00	-4.690021e-04	-5.323859e-04	9.832778e+00	-6.152669e-04	-5.638666e-04	1.015492e+01	-6.886007e-04	-5.467242e-04	1.047039e+01	-6.530243e-04	-5.091083e-04	1.083878e+01	-5.975263e-04
1             	9.251608e-04	1.141798e+01	-1.320287e-02	8.700927e-04	1.343732e+01	-1.133195e-02	-2.755920e-03	1.450852e+01	1.491279e-02	-6.198549e-03	1.509622e+01	4.380721e-02	-8.918122e-03	1.551960e+01	7.337523e-02	-1.046868e-02	1.583884e+01	9.914556e-02	-1.096815e-02	1.606502e+01	1.157526e-01	-1.101029e-02	1.624782e+01	1.262440e-01	-1.085880e-02	1.646202e+01	1.352591e-01	-1.059631e-02	1.661357e+01	1.391108e-01	-1.039053e-02	1.681038e+01	1.413075e-01	-1.040990e-02	1.695828e+01	1.410453e-01	-1.093666e-02	1.716433e+01	1.378815e-01	-1.176884e-02	1.737959e+01	1.329241e-01	-1.285728e-02	1.755074e+01	1.280257e-01	-1.457458e-02	1.779270e+01	1.208461e-01	-1.640217e-02	1.805001e+01	1.136401e-01	-1.849218e-02	1.832345e+01	1.063345e-01	-2.054687e-02	1.861347e+01	1.000509e-01	-2.285908e-02	1.899677e+01	9.358975e-02	-2.450451e-02	1.931907e+01	8.951800e-02	-2.574546e-02	1.965155e+01	8.652806e-02	-2.698773e-02	2.008189e+01	8.391186e-02	-2.756281e-02	2.043475e+01	8.276930e-02	-2.787810e-02	2.088383e+01	8.220017e-02	-2.774206e-02	2.132982e+01	8.246786e-02	-2.734844e-02	2.177379e+01	8.318980e-02	-2.628525e-02	2.220581e+01	8.483781e-02	-2.483867e-02	2.262015e+01	8.699840e-02	-2.292245e-02	2.300714e+01	8.974889e-02	-2.031851e-02	2.341061e+01	9.331274e-02
2             	-4.222878e-03	3.334504e+00	1.704001e-02	-9.617472e-03	4.285895e+00	4.593276e-02	-1.389570e-02	4.861071e+00	7.434430e-02	-1.664482e-02	5.188469e+00	9.674264e-02	-1.856460e-02	5.427478e+00	1.171000e-01	-1.965537e-02	5.607321e+00	1.344107e-01	-2.003318e-02	5.734236e+00	1.457377e-01	-2.007648e-02	5.836995e+00	1.529922e-01	-1.987654e-02	5.959287e+00	1.594374e-01	-1.970567e-02	6.048731e+00	1.621509e-01	-1.957703e-02	6.168621e+00	1.635258e-01	-1.960733e-02	6.261433e+00	1.632937e-01	-1.990811e-02	6.393612e+00	1.611669e-01	-2.036847e-02	6.534332e+00	1.584744e-01	-2.089956e-02	6.647406e+00	1.559785e-01	-2.166496e-02	6.808178e+00	1.526734e-01	-2.232339e-02	6.980278e+00	1.500911e-01	-2.303027e-02	7.162526e+00	1.475421e-01	-2.366425e-02	7.354901e+00	1.455475e-01	-2.416498e-02	7.607661e+00	1.440592e-01	-2.441871e-02	7.818589e+00	1.434056e-01	-2.435569e-02	8.034789e+00	1.434802e-01	-2.421089e-02	8.311414e+00	1.437994e-01	-2.366578e-02	8.535976e+00	1.449178e-01	-2.321779e-02	8.817640e+00	1.457373e-01	-2.235208e-02	9.094070e+00	1.472759e-01	-2.130964e-02	9.364759e+00	1.490470e-01	-1.975868e-02	9.623073e+00	1.514852e-01	-1.849573e-02	9.865280e+00	1.533780e-01	-1.731627e-02	1.008568e+01	1.550727e-01	-1.633035e-02	1.030561e+01	1.564286e-01
3             	-2.874408e-04	-4.062251e+00	5.376867e-03	-5.346893e-03	-4.649172e+00	3.069426e-02	-7.359722e-03	-4.881949e+00	4.136149e-02	-7.683268e-03	-4.968892e+00	4.188703e-02	-7.467206e-03	-4.997167e+00	3.783531e-02	-7.187377e-03	-4.984209e+00	3.231723e-02	-7.059614e-03	-4.947040e+00	2.788501e-02	-7.044964e-03	-4.901641e+00	2.396890e-02	-7.061956e-03	-4.833398e+00	1.957634e-02	-7.199370e-03	-4.776208e+00	1.694783e-02	-7.419513e-03	-4.696668e+00	1.423923e-02	-7.598485e-03	-4.636340e+00	1.286714e-02	-7.669588e-03	-4.555431e+00	1.216192e-02	-7.533145e-03	-4.478042e+00	1.292008e-02	-7.249701e-03	-4.422312e+00	1.425907e-02	-6.585627e-03	-4.352524e+00	1.696426e-02	-5.610901e-03	-4.288587e+00	2.055075e-02	-4.375769e-03	-4.232223e+00	2.451096e-02	-2.987918e-03	-4.183038e+00	2.860185e-02	-1.159602e-03	-4.132293e+00	3.348492e-02	2.800337e-04	-4.100085e+00	3.702735e-02	1.676736e-03	-4.075680e+00	4.020854e-02	3.249282e-03	-4.055296e+00	4.357145e-02	4.369344e-03	-4.046298e+00	4.584189e-02	5.495474e-03	-4.043965e+00	4.792886e-02	6.384074e-03	-4.051648e+00	4.950049e-02	7.017012e-03	-4.066387e+00	5.057620e-02	7.418328e-03	-4.088369e+00	5.120755e-02	7.586829e-03	-4.115406e+00	5.145824e-02	7.397171e-03	-4.145536e+00	5.118827e-02	6.572678e-03	-4.184556e+00	5.006601e-02
4             	7.952025e-03	-8.628334e+00	-2.825381e-02	7.431693e-03	-9.635636e+00	-2.724461e-02	8.685145e-03	-1.015587e+01	-3.811092e-02	1.019496e-02	-1.040155e+01	-5.274524e-02	1.163730e-02	-1.053634e+01	-7.006550e-02	1.265531e-02	-1.059178e+01	-8.735074e-02	1.307698e-02	-1.059253e+01	-1.004231e-01	1.313542e-02	-1.057195e+01	-1.107862e-01	1.296868e-02	-1.052817e+01	-1.217031e-01	1.264140e-02	-1.048693e+01	-1.276692e-01	1.217711e-02	-1.042906e+01	-1.332226e-01	1.185278e-02	-1.038722e+01	-1.357519e-01	1.175322e-02	-1.033587e+01	-1.366003e-01	1.196329e-02	-1.029448e+01	-1.353452e-01	1.242587e-02	-1.027062e+01	-1.331304e-01	1.337879e-02	-1.025004e+01	-1.291526e-01	1.461346e-02	-1.024304e+01	-1.245451e-01	1.615280e-02	-1.025082e+01	-1.195147e-01	1.771310e-02	-1.027253e+01	-1.148583e-01	1.962894e-02	-1.031896e+01	-1.096766e-01	2.103157e-02	-1.037049e+01	-1.062049e-01	2.224047e-02	-1.043394e+01	-1.034260e-01	2.346212e-02	-1.052805e+01	-1.008058e-01	2.416249e-02	-1.061322e+01	-9.937938e-02	2.469912e-02	-1.072990e+01	-9.838825e-02	2.488704e-02	-1.085526e+01	-9.805297e-02	2.483972e-02	-1.098493e+01	-9.811957e-02	2.443389e-02	-1.111601e+01	-9.875817e-02	2.385704e-02	-1.124405e+01	-9.962635e-02	2.305655e-02	-1.136407e+01	-1.007739e-01	2.186945e-02	-1.149020e+01	-1.023961e-01
5             	3.307100e-02	-5.896909e+00	-1.388171e-01	3.676179e-02	-6.174997e+00	-1.588602e-01	4.012181e-02	-6.343955e+00	-1.809961e-01	4.210613e-02	-6.421080e+00	-1.973966e-01	4.341193e-02	-6.457193e+00	-2.115380e-01	4.421296e-02	-6.461765e+00	-2.241581e-01	4.455605e-02	-6.445663e+00	-2.340620e-01	4.461818e-02	-6.421981e+00	-2.422513e-01	4.450309e-02	-6.384414e+00	-2.509665e-01	4.422932e-02	-6.352779e+00	-2.559230e-01	4.379525e-02	-6.310611e+00	-2.610584e-01	4.343130e-02	-6.281016e+00	-2.638838e-01	4.313203e-02	-6.244641e+00	-2.660025e-01	4.288876e-02	-6.214335e+00	-2.672050e-01	4.283465e-02	-6.195391e+00	-2.674340e-01	4.282794e-02	-6.175798e+00	-2.674360e-01	4.280525e-02	-6.162689e+00	-2.674394e-01	4.287850e-02	-6.156553e+00	-2.672029e-01	4.280534e-02	-6.156371e+00	-2.673906e-01	4.263784e-02	-6.164229e+00	-2.678040e-01	4.240663e-02	-6.176288e+00	-2.683542e-01	4.207900e-02	-6.192898e+00	-2.690896e-01	4.154451e-02	-6.219081e+00	-2.702127e-01	4.102877e-02	-6.243293e+00	-2.712174e-01	4.035745e-02	-6.276643e+00	-2.724813e-01	3.963378e-02	-6.312048e+00	-2.737503e-01	3.896537e-02	-6.347534e+00	-2.748544e-01	3.831471e-02	-6.381966e+00	-2.758761e-01	3.771339e-02	-6.413607e+00	-2.767793e-01	3.720221e-02	-6.440539e+00	-2.775124e-01	3.681120e-02	-6.465507e+00	-2.780490e-01
6             	9.948864e-02	6.621409e+00	-4.228511e-01	1.023254e-01	7.126463e+00	-4.371802e-01	1.039238e-01	7.401394e+00	-4.460733e-01	1.043715e-01	7.548421e+00	-4.484437e-01	1.043306e-01	7.648304e+00	-4.470361e-01	1.042354e-01	7.717578e+00	-4.448407e-01	1.042234e-01	7.761994e+00	-4.439830e-01	1.042376e-01	7.795399e+00	-4.437967e-01	1.043292e-01	7.832225e+00	-4.434767e-01	1.043319e-01	7.857609e+00	-4.434126e-01	1.043002e-01	7.889335e+00	-4.438270e-01	1.042093e-01	7.912146e+00	-4.443379e-01	1.040995e-01	7.943675e+00	-4.451416e-01	1.038193e-01	7.976643e+00	-4.465794e-01	1.035368e-01	8.003489e+00	-4.479296e-01	1.030011e-01	8.042450e+00	-4.501789e-01	1.022610e-01	8.085551e+00	-4.528696e-01	1.014438e-01	8.132653e+00	-4.555906e-01	1.004864e-01	8.184540e+00	-4.584390e-01	9.927175e-02	8.255752e+00	-4.617041e-01	9.832285e-02	8.317611e+00	-4.640406e-01	9.744395e-02	8.383505e+00	-4.660504e-01	9.645904e-02	8.470850e+00	-4.681459e-01	9.578776e-02	8.544276e+00	-4.694716e-01	9.522386e-02	8.639453e+00	-4.705318e-01	9.483726e-02	8.737342e+00	-4.712088e-01	9.463849e-02	8.836713e+00	-4.715349e-01	9.470792e-02	8.935726e+00	-4.714208e-01	9.497682e-02	9.032474e+00	-4.710167e-01	9.543540e-02	9.124676e+00	-4.703593e-01	9.622349e-02	9.222612e+00	-4.692830e-01
7             	-4.699995e-02	1.138470e+01	1.998506e-01	-4.870914e-02	1.195711e+01	2.098145e-01	-5.128110e-02	1.229206e+01	2.272670e-01	-5.301556e-02	1.246665e+01	2.418694e-01	-5.421327e-02	1.258067e+01	2.549196e-01	-5.485628e-02	1.265471e+01	2.651144e-01	-5.506356e-02	1.269797e+01	2.711974e-01	-5.508625e-02	1.272839e+01	2.754548e-01	-5.491940e-02	1.276018e+01	2.797587e-01	-5.481572e-02	1.278185e+01	2.816709e-01	-5.470881e-02	1.281014e+01	2.828648e-01	-5.470498e-02	1.283211e+01	2.831032e-01	-5.477598e-02	1.286524e+01	2.825441e-01	-5.506391e-02	1.290338e+01	2.810073e-01	-5.540913e-02	1.293632e+01	2.793248e-01	-5.603076e-02	1.298622e+01	2.766790e-01	-5.679241e-02	1.304321e+01	2.738652e-01	-5.762424e-02	1.310689e+01	2.710690e-01	-5.846102e-02	1.317762e+01	2.685544e-01	-5.945531e-02	1.327498e+01	2.658579e-01	-6.015808e-02	1.335933e+01	2.641159e-01	-6.074400e-02	1.344870e+01	2.627705e-01	-6.130341e-02	1.356612e+01	2.615742e-01	-6.161481e-02	1.366362e+01	2.609589e-01	-6.177028e-02	1.378831e+01	2.606648e-01	-6.176988e-02	1.391435e+01	2.606680e-01	-6.165833e-02	1.403959e+01	2.608565e-01	-6.133807e-02	1.416148e+01	2.613655e-01	-6.084005e-02	1.427725e+01	2.621140e-01	-6.022161e-02	1.438359e+01	2.630009e-01	-5.937390e-02	1.449045e+01	2.641598e-01
8             	-2.715235e-01	9.134744e+00	1.155194e+00	-2.814613e-01	9.223798e+00	1.207424e+00	-2.883770e-01	9.273034e+00	1.250574e+00	-2.921191e-01	9.292729e+00	1.279070e+00	-2.942723e-01	9.307452e+00	1.300019e+00	-2.953778e-01	9.322159e+00	1.315413e+00	-2.957878e-01	9.336986e+00	1.325669e+00	-2.958695e-01	9.352603e+00	1.333754e+00	-2.956225e-01	9.375098e+00	1.342594e+00	-2.953451e-01	9.394642e+00	1.347664e+00	-2.948462e-01	9.423670e+00	1.353313e+00	-2.944140e-01	9.447357e+00	1.357103e+00	-2.937380e-01	9.482380e+00	1.361528e+00	-2.930131e-01	9.520374e+00	1.365477e+00	-2.924148e-01	9.550873e+00	1.368221e+00	-2.915144e-01	9.593549e+00	1.371867e+00	-2.904580e-01	9.638076e+00	1.375674e+00	-2.892603e-01	9.683673e+00	1.379505e+00	-2.878884e-01	9.730369e+00	1.383524e+00	-2.860373e-01	9.789351e+00	1.388458e+00	-2.844666e-01	9.836493e+00	1.392298e+00	-2.828645e-01	9.883193e+00	1.395956e+00	-2.808484e-01	9.940229e+00	1.400236e+00	-2.792822e-01	9.984400e+00	1.403353e+00	-2.774343e-01	1.003711e+01	1.406808e+00	-2.757429e-01	1.008654e+01	1.409783e+00	-2.742509e-01	1.013193e+01	1.412262e+00	-2.729580e-01	1.017244e+01	1.414301e+00	-2.718272e-01	1.020710e+01	1.415997e+00	-2.709230e-01	1.023474e+01	1.417293e+00	-2.702426e-01	1.025445e+01	1.418226e+00
9             	-8.150856e-02	-1.023808e+00	3.317988e-01	-8.517869e-02	-1.363756e+00	3.503681e-01	-8.760767e-02	-1.586427e+00	3.643060e-01	-8.883867e-02	-1.709390e+00	3.722889e-01	-8.935429e-02	-1.783834e+00	3.758265e-01	-8.957557e-02	-1.821498e+00	3.774525e-01	-8.966786e-02	-1.831311e+00	3.785079e-01	-8.970390e-02	-1.828200e+00	3.794863e-01	-8.966021e-02	-1.813120e+00	3.802771e-01	-8.964874e-02	-1.795279e+00	3.805328e-01	-8.956261e-02	-1.766486e+00	3.813653e-01	-8.944119e-02	-1.742996e+00	3.824690e-01	-8.911893e-02	-1.710179e+00	3.844999e-01	-8.861853e-02	-1.678063e+00	3.872090e-01	-8.806239e-02	-1.655159e+00	3.897727e-01	-8.706925e-02	-1.627369e+00	3.938316e-01	-8.578944e-02	-1.603483e+00	3.984811e-01	-8.425776e-02	-1.584326e+00	4.034369e-01	-8.254135e-02	-1.569865e+00	4.084989e-01	-8.026774e-02	-1.558905e+00	4.145899e-01	-7.840977e-02	-1.555902e+00	4.191472e-01	-7.660036e-02	-1.557897e+00	4.232873e-01	-7.443535e-02	-1.567251e+00	4.278898e-01	-7.284624e-02	-1.579833e+00	4.310531e-01	-7.110462e-02	-1.601443e+00	4.343100e-01	-6.961168e-02	-1.628719e+00	4.369351e-01	-6.835207e-02	-1.660829e+00	4.390263e-01	-6.739655e-02	-1.696896e+00	4.405325e-01	-6.666824e-02	-1.735998e+00	4.416239e-01	-6.619659e-02	-1.777148e+00	4.422994e-01	-6.608806e-02	-1.829287e+00	4.424505e-01
10            	5.997765e-02	-7.551514e+00	-2.713838e-01	6.224038e-02	-7.875023e+00	-2.840028e-01	6.373438e-02	-8.095576e+00	-2.944976e-01	6.470032e-02	-8.207551e+00	-3.031646e-01	6.542593e-02	-8.272566e+00	-3.116105e-01	6.583799e-02	-8.304720e+00	-3.187830e-01	6.600248e-02	-8.312592e+00	-3.242330e-01	6.602099e-02	-8.309231e+00	-3.287331e-01	6.591821e-02	-8.295214e+00	-3.342296e-01	6.572660e-02	-8.279372e+00	-3.376746e-01	6.546838e-02	-8.254883e+00	-3.408007e-01	6.528450e-02	-8.235762e+00	-3.422812e-01	6.516380e-02	-8.210344e+00	-3.431925e-01	6.518387e-02	-8.187195e+00	-3.430832e-01	6.536796e-02	-8.171891e+00	-3.422424e-01	6.580547e-02	-8.155024e+00	-3.404514e-01	6.641714e-02	-8.142601e+00	-3.382123e-01	6.719712e-02	-8.135062e+00	-3.356825e-01	6.802093e-02	-8.132160e+00	-3.332431e-01	6.907977e-02	-8.135164e+00	-3.303929e-01	6.990259e-02	-8.142695e+00	-3.283691e-01	7.065286e-02	-8.154468e+00	-3.266460e-01	7.149538e-02	-8.174748e+00	-3.248522e-01	7.206374e-02	-8.194893e+00	-3.237184e-01	7.264610e-02	-8.224306e+00	-3.226300e-01	7.311222e-02	-8.257413e+00	-3.218106e-01	7.351694e-02	-8.293279e+00	-3.211399e-01	7.378888e-02	-8.330922e+00	-3.207106e-01	7.398310e-02	-8.369380e+00	-3.204204e-01	7.408679e-02	-8.407648e+00	-3.202725e-01	7.397715e-02	-8.453428e+00	-3.204207e-01
11            	8.450274e-02	-5.705980e+00	-3.635574e-01	8.863919e-02	-5.754172e+00	-3.855237e-01	9.143235e-02	-5.785979e+00	-4.032613e-01	9.325277e-02	-5.786394e+00	-4.173778e-01	9.438492e-02	-5.780066e+00	-4.286798e-01	9.502881e-02	-5.771120e+00	-4.381138e-01	9.532546e-02	-5.760819e+00	-4.461413e-01	9.538607e-02	-5.749502e+00	-4.532469e-01	9.521684e-02	-5.732852e+00	-4.619194e-01	9.491524e-02	-5.719045e+00	-4.673825e-01	9.442311e-02	-5.700300e+00	-4.731468e-01	9.398078e-02	-5.686493e+00	-4.767920e-01	9.339125e-02	-5.668253e+00	-4.808064e-01	9.278754e-02	-5.651054e+00	-4.840787e-01	9.238087e-02	-5.638721e+00	-4.860017e-01	9.184293e-02	-5.623071e+00	-4.882342e-01	9.125805e-02	-5.608191e+00	-4.903512e-01	9.065827e-02	-5.594143e+00	-4.923172e-01	8.995667e-02	-5.580570e+00	-4.943872e-01	8.900998e-02	-5.564326e+00	-4.969132e-01	8.820698e-02	-5.551855e+00	-4.988800e-01	8.737169e-02	-5.539748e+00	-5.007822e-01	8.632836e-02	-5.525156e+00	-5.029983e-01	8.551037e-02	-5.513823e+00	-5.046220e-01	8.458075e-02	-5.500087e+00	-5.063621e-01	8.375698e-02	-5.486677e+00	-5.078102e-01	8.309012e-02	-5.473697e+00	-5.089183e-01	8.256399e-02	-5.461279e+00	-5.097454e-01	8.219970e-02	-5.449737e+00	-5.102920e-01	8.198213e-02	-5.439576e+00	-5.106041e-01	8.184200e-02	-5.432210e+00	-5.107958e-01
12            	-5.104125e-02	1.316915e+00	2.345275e-01	-5.272902e-02	1.462714e+00	2.435330e-01	-5.320458e-02	1.577568e+00	2.467840e-01	-5.301292e-02	1.653036e+00	2.458591e-01	-5.294111e-02	1.703498e+00	2.456725e-01	-5.284342e-02	1.736729e+00	2.446206e-01	-5.274455e-02	1.757452e+00	2.422622e-01	-5.271492e-02	1.773026e+00	2.396434e-01	-5.276147e-02	1.790592e+00	2.362127e-01	-5.287879e-02	1.802927e+00	2.340782e-01	-5.308169e-02	1.818665e+00	2.316979e-01	-5.331231e-02	1.830372e+00	2.298484e-01	-5.366373e-02	1.846851e+00	2.274529e-01	-5.409033e-02	1.864373e+00	2.251441e-01	-5.443923e-02	1.878721e+00	2.234839e-01	-5.498846e-02	1.899734e+00	2.211907e-01	-5.565286e-02	1.923129e+00	2.187654e-01	-5.638700e-02	1.948823e+00	2.163462e-01	-5.720230e-02	1.977029e+00	2.139262e-01	-5.826035e-02	2.015510e+00	2.110868e-01	-5.910565e-02	2.048653e+00	2.090091e-01	-5.993224e-02	2.083692e+00	2.071216e-01	-6.090538e-02	2.129662e+00	2.050512e-01	-6.161926e-02	2.167840e+00	2.036327e-01	-6.237103e-02	2.216716e+00	2.022253e-01	-6.299398e-02	2.266301e+00	2.011307e-01	-6.347551e-02	2.315673e+00	2.003311e-01	-6.380023e-02	2.363851e+00	1.998218e-01	-6.396121e-02	2.409592e+00	1.995809e-01	-6.398282e-02	2.451304e+00	1.995501e-01	-6.385895e-02	2.491052e+00	1.997189e-01
13            	-1.581296e-02	6.922933e+00	7.837292e-02	-1.525945e-02	7.034850e+00	7.603898e-02	-1.502620e-02	7.136970e+00	7.488240e-02	-1.480844e-02	7.188141e+00	7.356249e-02	-1.469396e-02	7.216895e+00	7.261648e-02	-1.453173e-02	7.235730e+00	7.032449e-02	-1.442574e-02	7.249011e+00	6.754706e-02	-1.440187e-02	7.260360e+00	6.488408e-02	-1.445277e-02	7.274967e+00	6.158471e-02	-1.457266e-02	7.286551e+00	5.941911e-02	-1.480767e-02	7.303024e+00	5.666508e-02	-1.507733e-02	7.316378e+00	5.444872e-02	-1.548402e-02	7.336059e+00	5.164980e-02	-1.594287e-02	7.357702e+00	4.913213e-02	-1.631132e-02	7.375524e+00	4.736303e-02	-1.684242e-02	7.401331e+00	4.512621e-02	-1.738912e-02	7.429307e+00	4.311310e-02	-1.790441e-02	7.459046e+00	4.139699e-02	-1.835050e-02	7.490509e+00	4.005967e-02	-1.879263e-02	7.531725e+00	3.886143e-02	-1.903707e-02	7.565852e+00	3.825453e-02	-1.919680e-02	7.600725e+00	3.788848e-02	-1.928361e-02	7.644818e+00	3.769993e-02	-1.928058e-02	7.680146e+00	3.770590e-02	-1.919261e-02	7.723806e+00	3.786941e-02	-1.905638e-02	7.766406e+00	3.810935e-02	-1.889029e-02	7.807152e+00	3.838513e-02	-1.869843e-02	7.845243e+00	3.868903e-02	-1.846396e-02	7.879659e+00	3.904123e-02	-1.821393e-02	7.909071e+00	3.939962e-02	-1.792062e-02	7.933333e+00	3.980066e-02
14            	1.077161e-01	4.222394e+00	-4.687884e-01	1.086893e-01	4.182186e+00	-4.733429e-01	1.084627e-01	4.168208e+00	-4.720997e-01	1.081145e-01	4.139611e+00	-4.698224e-01	1.079540e-01	4.115638e+00	-4.688725e-01	1.079624e-01	4.103319e+00	-4.696942e-01	1.079795e-01	4.101499e+00	-4.707715e-01	1.079748e-01	4.105075e+00	-4.717965e-01	1.079582e-01	4.115269e+00	-4.731091e-01	1.079010e-01	4.126419e+00	-4.741148e-01	1.077739e-01	4.144714e+00	-4.756503e-01	1.076231e-01	4.160360e+00	-4.769023e-01	1.074490e-01	4.183258e+00	-4.781706e-01	1.073049e-01	4.207552e+00	-4.789961e-01	1.072254e-01	4.226506e+00	-4.794164e-01	1.071721e-01	4.252138e+00	-4.796847e-01	1.072231e-01	4.277580e+00	-4.795248e-01	1.074053e-01	4.302204e+00	-4.789653e-01	1.077287e-01	4.325859e+00	-4.780268e-01	1.082898e-01	4.353561e+00	-4.765349e-01	1.088444e-01	4.373963e+00	-4.751796e-01	1.094483e-01	4.392662e+00	-4.737993e-01	1.102409e-01	4.413384e+00	-4.721174e-01	1.108692e-01	4.427766e+00	-4.708678e-01	1.116150e-01	4.442866e+00	-4.694733e-01	1.122941e-01	4.454801e+00	-4.682793e-01	1.129085e-01	4.463431e+00	-4.672597e-01	1.134354e-01	4.468674e+00	-4.664290e-01	1.139122e-01	4.470316e+00	-4.657140e-01	1.143138e-01	4.467966e+00	-4.651389e-01	1.146362e-01	4.457245e+00	-4.646974e-01
15            	9.529218e-02	-2.136522e+00	-4.246149e-01	9.366849e-02	-2.259488e+00	-4.161392e-01	9.194891e-02	-2.360506e+00	-4.059147e-01	9.063386e-02	-2.435885e+00	-3.966866e-01	8.994857e-02	-2.484441e+00	-3.909329e-01	8.963998e-02	-2.509953e+00	-3.875251e-01	8.952204e-02	-2.518327e+00	-3.853733e-01	8.948822e-02	-2.518250e+00	-3.838440e-01	8.953366e-02	-2.510235e+00	-3.822191e-01	8.958118e-02	-2.499722e+00	-3.813229e-01	8.966281e-02	-2.481766e+00	-3.804649e-01	8.973981e-02	-2.466530e+00	-3.798029e-01	8.997183e-02	-2.444903e+00	-3.783400e-01	9.032653e-02	-2.422971e+00	-3.764412e-01	9.068796e-02	-2.406726e+00	-3.747834e-01	9.130570e-02	-2.386140e+00	-3.722697e-01	9.209227e-02	-2.367403e+00	-3.694238e-01	9.304672e-02	-2.351015e+00	-3.663381e-01	9.411127e-02	-2.337007e+00	-3.632038e-01	9.552553e-02	-2.323125e+00	-3.594194e-01	9.667178e-02	-2.315011e+00	-3.566101e-01	9.778119e-02	-2.309532e+00	-3.540730e-01	9.909607e-02	-2.306381e+00	-3.512792e-01	1.000642e-01	-2.306681e+00	-3.493537e-01	1.011463e-01	-2.310417e+00	-3.473295e-01	1.020814e-01	-2.317517e+00	-3.456857e-01	1.029027e-01	-2.327732e+00	-3.443228e-01	1.035797e-01	-2.340743e+00	-3.432560e-01	1.041558e-01	-2.356338e+00	-3.423926e-01	1.046154e-01	-2.374439e+00	-3.417345e-01	1.049359e-01	-2.401197e+00	-3.412952e-01
16            	-2.457007e-02	-4.496824e+00	9.777487e-02	-2.990981e-02	-4.581088e+00	1.248715e-01	-3.237636e-02	-4.680516e+00	1.397624e-01	-3.385360e-02	-4.736874e+00	1.503807e-01	-3.454999e-02	-4.765713e+00	1.565669e-01	-3.487341e-02	-4.778798e+00	1.605067e-01	-3.497476e-02	-4.781682e+00	1.624654e-01	-3.499812e-02	-4.779200e+00	1.634888e-01	-3.496947e-02	-4.770494e+00	1.643247e-01	-3.495506e-02	-4.760892e+00	1.646130e-01	-3.492861e-02	-4.745588e+00	1.648464e-01	-3.488517e-02	-4.733226e+00	1.652360e-01	-3.470697e-02	-4.716210e+00	1.663680e-01	-3.445132e-02	-4.699318e+00	1.677482e-01	-3.418876e-02	-4.686985e+00	1.689557e-01	-3.374230e-02	-4.671534e+00	1.707762e-01	-3.320085e-02	-4.657493e+00	1.727405e-01	-3.257401e-02	-4.645028e+00	1.747680e-01	-3.194557e-02	-4.634002e+00	1.766198e-01	-3.119151e-02	-4.622366e+00	1.786414e-01	-3.064849e-02	-4.614807e+00	1.799731e-01	-3.017993e-02	-4.608764e+00	1.810470e-01	-2.968493e-02	-4.603342e+00	1.820994e-01	-2.935963e-02	-4.600618e+00	1.827472e-01	-2.902854e-02	-4.599154e+00	1.833666e-01	-2.877018e-02	-4.599622e+00	1.838208e-01	-2.853144e-02	-4.601959e+00	1.842164e-01	-2.832908e-02	-4.606069e+00	1.845357e-01	-2.812825e-02	-4.612011e+00	1.848365e-01	-2.793994e-02	-4.620034e+00	1.851059e-01	-2.779798e-02	-4.634769e+00	1.853006e-01
17            	-8.990330e-02	-1.834359e+00	3.920390e-01	-9.292468e-02	-1.836523e+00	4.067677e-01	-9.342097e-02	-1.879283e+00	4.096134e-01	-9.349478e-02	-1.885886e+00	4.099500e-01	-9.335506e-02	-1.881242e+00	4.084757e-01	-9.328068e-02	-1.875829e+00	4.072552e-01	-9.323031e-02	-1.870344e+00	4.056983e-01	-9.321891e-02	-1.864034e+00	4.039555e-01	-9.325303e-02	-1.853994e+00	4.018612e-01	-9.333027e-02	-1.845275e+00	4.004673e-01	-9.344045e-02	-1.832705e+00	3.991307e-01	-9.349910e-02	-1.823045e+00	3.986679e-01	-9.348805e-02	-1.809759e+00	3.987005e-01	-9.344721e-02	-1.796156e+00	3.989213e-01	-9.337485e-02	-1.785781e+00	3.992421e-01	-9.322393e-02	-1.771922e+00	3.998462e-01	-9.303688e-02	-1.757974e+00	4.005216e-01	-9.282669e-02	-1.743901e+00	4.011918e-01	-9.265695e-02	-1.729555e+00	4.016873e-01	-9.248994e-02	-1.711425e+00	4.021339e-01	-9.239702e-02	-1.696885e+00	4.023600e-01	-9.234056e-02	-1.682374e+00	4.024908e-01	-9.229475e-02	-1.664459e+00	4.025872e-01	-9.227042e-02	-1.650393e+00	4.026360e-01	-9.223417e-02	-1.633338e+00	4.027035e-01	-9.218469e-02	-1.616984e+00	4.027904e-01	-9.208919e-02	-1.601671e+00	4.029484e-01	-9.196290e-02	-1.587742e+00	4.031481e-01	-9.179421e-02	-1.575738e+00	4.034010e-01	-9.160799e-02	-1.566483e+00	4.036677e-01	-9.142717e-02	-1.562417e+00	4.039153e-01
18            	-5.455365e-02	1.731530e+00	2.424271e-01	-4.908627e-02	1.745434e+00	2.136847e-01	-4.726082e-02	1.745497e+00	2.022615e-01	-4.587424e-02	1.766159e+00	1.916793e-01	-4.487596e-02	1.781419e+00	1.819482e-01	-4.433399e-02	1.790418e+00	1.741810e-01	-4.410137e-02	1.797259e+00	1.680077e-01	-4.405442e-02	1.803957e+00	1.626482e-01	-4.418180e-02	1.813657e+00	1.565092e-01	-4.440115e-02	1.821813e+00	1.525363e-01	-4.476316e-02	1.833576e+00	1.482940e-01	-4.505453e-02	1.842847e+00	1.458546e-01	-4.543878e-02	1.856229e+00	1.432274e-01	-4.586743e-02	1.870705e+00	1.408758e-01	-4.617971e-02	1.882235e+00	1.393842e-01	-4.657332e-02	1.898390e+00	1.377314e-01	-4.696028e-02	1.915533e+00	1.363110e-01	-4.733950e-02	1.933588e+00	1.350562e-01	-4.771838e-02	1.952522e+00	1.339272e-01	-4.815390e-02	1.977038e+00	1.327548e-01	-4.844958e-02	1.997093e+00	1.320259e-01	-4.869426e-02	2.017386e+00	1.314670e-01	-4.891459e-02	2.042784e+00	1.309962e-01	-4.902984e-02	2.062935e+00	1.307670e-01	-4.909739e-02	2.087586e+00	1.306398e-01	-4.909070e-02	2.111370e+00	1.306512e-01	-4.901210e-02	2.133790e+00	1.307813e-01	-4.888764e-02	2.154344e+00	1.309782e-01	-4.871575e-02	2.172327e+00	1.312361e-01	-4.852588e-02	2.186733e+00	1.315081e-01	-4.832946e-02	2.195565e+00	1.317769e-01
19            	2.588295e-02	2.476543e+00	-1.125381e-01	3.826766e-02	2.432191e+00	-1.758501e-01	3.947321e-02	2.433198e+00	-1.833527e-01	4.033253e-02	2.441313e+00	-1.899868e-01	4.091502e-02	2.438815e+00	-1.959096e-01	4.129733e-02	2.435625e+00	-2.017360e-01	4.148390e-02	2.436475e+00	-2.069658e-01	4.151875e-02	2.439972e+00	-2.116194e-01	4.140114e-02	2.447673e+00	-2.170931e-01	4.119795e-02	2.455545e+00	-2.207621e-01	4.085041e-02	2.468098e+00	-2.248387e-01	4.054285e-02	2.478696e+00	-2.274317e-01	4.008015e-02	2.494558e+00	-2.306025e-01	3.954747e-02	2.511865e+00	-2.335419e-01	3.915515e-02	2.525537e+00	-2.354191e-01	3.865540e-02	2.544447e+00	-2.375194e-01	3.817524e-02	2.564018e+00	-2.392859e-01	3.773254e-02	2.583897e+00	-2.407514e-01	3.735287e-02	2.603844e+00	-2.418855e-01	3.699419e-02	2.628383e+00	-2.428549e-01	3.681268e-02	2.647447e+00	-2.433042e-01	3.671018e-02	2.665865e+00	-2.435386e-01	3.668217e-02	2.687714e+00	-2.436007e-01	3.671392e-02	2.704108e+00	-2.435377e-01	3.680280e-02	2.723013e+00	-2.433721e-01	3.693113e-02	2.740007e+00	-2.431467e-01	3.708579e-02	2.754763e+00	-2.428903e-01	3.724326e-02	2.766977e+00	-2.426415e-01	3.742053e-02	2.776175e+00	-2.423757e-01	3.760190e-02	2.781619e+00	-2.421160e-01	3.778510e-02	2.779983e+00	-2.418654e-01
20            	6.366102e-02	6.831288e-01	-2.827383e-01	7.359535e-02	5.825850e-01	-3.325201e-01	7.210095e-02	5.595438e-01	-3.233220e-01	7.124887e-02	5.363407e-01	-3.171086e-01	7.070938e-02	5.102101e-01	-3.123853e-01	7.054916e-02	4.942476e-01	-3.108283e-01	7.053668e-02	4.889784e-01	-3.111720e-01	7.052996e-02	4.892400e-01	-3.119479e-01	7.050687e-02	4.950381e-01	-3.130807e-01	7.045353e-02	5.026480e-01	-3.140251e-01	7.036494e-02	5.157931e-01	-3.151120e-01	7.026882e-02	5.273042e-01	-3.159264e-01	7.010882e-02	5.445398e-01	-3.170724e-01	6.993869e-02	5.628911e-01	-3.180441e-01	6.985972e-02	5.769784e-01	-3.184528e-01	6.981298e-02	5.958618e-01	-3.186830e-01	6.982284e-02	6.145485e-01	-3.186674e-01	6.991205e-02	6.325150e-01	-3.183996e-01	7.009049e-02	6.494853e-01	-3.178849e-01	7.042716e-02	6.689213e-01	-3.169907e-01	7.076464e-02	6.829019e-01	-3.161664e-01	7.112672e-02	6.954219e-01	-3.153387e-01	7.158904e-02	7.088742e-01	-3.143576e-01	7.193819e-02	7.178365e-01	-3.136632e-01	7.233500e-02	7.267203e-01	-3.129210e-01	7.268429e-02	7.330695e-01	-3.123069e-01	7.299157e-02	7.367893e-01	-3.117971e-01	7.324948e-02	7.378282e-01	-3.113903e-01	7.349432e-02	7.359857e-01	-3.110234e-01	7.372485e-02	7.308413e-01	-3.106935e-01	7.394221e-02	7.176937e-01	-3.103962e-01