# Force coefficients
# liftDir     : (0.000000e+00 1.000000e+00 0.000000e+00)
# dragDir     : (1.000000e+00 0.000000e+00 0.000000e+00)
# pitchAxis   : (0.000000e+00 0.000000e+00 1.000000e+00)
# magUInf     : 5.105270e+01
# lRef        : 1.000000e+00
# Aref        : 1.190359e-03
# CofR        : (2.500000e-01 0.000000e+00 0.000000e+00)
# Time        	Cm            	Cd            	Cl            	Cl(f)         	Cl(r)         
0             	-5.091083e-04	1.083878e+01	-5.975263e-04	-8.078714e-04	2.103452e-04
1             	-2.031851e-02	2.341061e+01	9.331274e-02	2.633786e-02	6.697488e-02
2             	-1.633035e-02	1.030561e+01	1.564286e-01	6.188396e-02	9.454465e-02
3             	6.572678e-03	-4.184556e+00	5.006601e-02	3.160568e-02	1.846033e-02
4             	2.186945e-02	-1.149020e+01	-1.023961e-01	-2.932861e-02	-7.306751e-02
5             	3.681120e-02	-6.465507e+00	-2.780490e-01	-1.022133e-01	-1.758357e-01
6             	9.622349e-02	9.222612e+00	-4.692830e-01	-1.384180e-01	-3.308650e-01
7             	-5.937390e-02	1.449045e+01	2.641598e-01	7.270601e-02	1.914538e-01
8             	-2.702426e-01	1.025445e+01	1.418226e+00	4.388704e-01	9.793556e-01
9             	-6.608806e-02	-1.829287e+00	4.424505e-01	1.551372e-01	2.873133e-01
10            	7.397715e-02	-8.453428e+00	-3.204207e-01	-8.623322e-02	-2.341875e-01
11            	8.184200e-02	-5.432210e+00	-5.107958e-01	-1.735559e-01	-3.372399e-01
12            	-6.385895e-02	2.491052e+00	1.997189e-01	3.600051e-02	1.637184e-01
13            	-1.792062e-02	7.933333e+00	3.980066e-02	1.979712e-03	3.782094e-02
14            	1.146362e-01	4.457245e+00	-4.646974e-01	-1.177125e-01	-3.469849e-01
15            	1.049359e-01	-2.401197e+00	-3.412952e-01	-6.571173e-02	-2.755835e-01
16            	-2.779798e-02	-4.634769e+00	1.853006e-01	6.485232e-02	1.204483e-01
17            	-9.142717e-02	-1.562417e+00	4.039153e-01	1.105305e-01	2.933848e-01
18            	-4.832946e-02	2.195565e+00	1.317769e-01	1.755901e-02	1.142179e-01
19            	3.778510e-02	2.779983e+00	-2.418654e-01	-8.314758e-02	-1.587178e-01
20            	7.394221e-02	7.176937e-01	-3.103962e-01	-8.125587e-02	-2.291403e-01
21            	2.649509e-02	-1.292711e+00	-3.211166e-02	1.043926e-02	-4.255091e-02
22            	-3.330400e-02	-1.268172e+00	1.997892e-01	6.659058e-02	1.331986e-01
23            	-3.572606e-02	1.634305e-01	1.288748e-01	2.871136e-02	1.001635e-01
24            	7.867262e-03	1.162930e+00	-9.887324e-02	-4.156936e-02	-5.730388e-02
25            	4.064135e-02	9.213832e-01	-1.985769e-01	-5.864711e-02	-1.399298e-01
26            	3.294673e-02	2.074832e-02	-1.148603e-01	-2.448343e-02	-9.037689e-02
27            	3.782414e-03	-4.455743e-01	2.497984e-02	1.627234e-02	8.707507e-03
28            	-1.131962e-02	-1.568123e-01	6.362565e-02	2.049321e-02	4.313245e-02
29            	-2.326915e-03	3.619211e-01	-7.768381e-04	-2.715334e-03	1.938496e-03
30            	1.560982e-02	5.210036e-01	-7.053307e-02	-1.965671e-02	-5.087636e-02
31            	2.039719e-02	2.752360e-01	-8.772527e-02	-2.346544e-02	-6.425983e-02
32            	1.263645e-02	-9.683007e-03	-4.609995e-02	-1.041352e-02	-3.568642e-02
33            	3.659862e-03	-4.588650e-02	-1.552207e-03	2.883759e-03	-4.435966e-03
34            	2.443331e-03	1.157819e-01	3.711322e-03	4.298992e-03	-5.876696e-04
35            	7.497956e-03	2.498357e-01	-1.934864e-02	-2.176364e-03	-1.717228e-02
36            	1.211328e-02	2.301314e-01	-3.393400e-02	-4.853722e-03	-2.908027e-02
37            	1.113995e-02	1.229338e-01	-2.515823e-02	-1.439169e-03	-2.371906e-02
38            	6.693375e-03	5.958305e-02	-4.611924e-03	4.387413e-03	-8.999336e-03
39            	3.738541e-03	8.345161e-02	5.241878e-03	6.359479e-03	-1.117602e-03
40            	4.597727e-03	1.391900e-01	-1.944761e-03	3.625346e-03	-5.570107e-03
41            	7.014630e-03	1.582696e-01	-1.360521e-02	2.120239e-04	-1.381724e-02
42            	7.464781e-03	1.324062e-01	-1.754942e-02	-1.309931e-03	-1.623949e-02
43            	5.785426e-03	1.005436e-01	-1.179695e-02	-1.130489e-04	-1.168390e-02
44            	3.733877e-03	9.399130e-02	-3.922121e-03	1.772816e-03	-5.694937e-03
45            	3.181533e-03	1.081429e-01	-3.120953e-03	1.621056e-03	-4.742009e-03
46            	4.035925e-03	1.202815e-01	-8.810000e-03	-3.690747e-04	-8.440925e-03
47            	4.513075e-03	1.174824e-01	-1.475445e-02	-2.864150e-03	-1.189030e-02
48            	4.286240e-03	1.065738e-01	-1.480170e-02	-3.114611e-03	-1.168709e-02
49            	3.462377e-03	1.005451e-01	-1.121528e-02	-2.145262e-03	-9.070016e-03
50            	2.730003e-03	1.027613e-01	-8.408368e-03	-1.474181e-03	-6.934187e-03
51            	2.761989e-03	1.074598e-01	-8.909956e-03	-1.692989e-03	-7.216968e-03
52            	3.161449e-03	1.086386e-01	-1.117761e-02	-2.427356e-03	-8.750253e-03
53            	3.255978e-03	1.060332e-01	-1.196125e-02	-2.724646e-03	-9.236602e-03
54            	2.857155e-03	1.032874e-01	-1.047553e-02	-2.380611e-03	-8.094921e-03
55            	2.260879e-03	1.029250e-01	-8.605527e-03	-2.041884e-03	-6.563643e-03
56            	1.969768e-03	1.045819e-01	-7.515875e-03	-1.788169e-03	-5.727706e-03
57            	2.009741e-03	1.058409e-01	-7.380023e-03	-1.680271e-03	-5.699752e-03
58            	2.133838e-03	1.057658e-01	-7.575545e-03	-1.653935e-03	-5.921611e-03
59            	2.083219e-03	1.050467e-01	-7.457976e-03	-1.645769e-03	-5.812206e-03
60            	1.859065e-03	1.050433e-01	-6.824677e-03	-1.553273e-03	-5.271404e-03
61            	1.581262e-03	1.057653e-01	-6.166782e-03	-1.502129e-03	-4.664653e-03
62            	1.417225e-03	1.067137e-01	-5.718507e-03	-1.442029e-03	-4.276478e-03
63            	1.346621e-03	1.073244e-01	-5.485629e-03	-1.396193e-03	-4.089436e-03
64            	1.242829e-03	1.076580e-01	-5.294225e-03	-1.404284e-03	-3.889941e-03
65            	1.074258e-03	1.078440e-01	-5.053904e-03	-1.452694e-03	-3.601210e-03
66            	8.733259e-04	1.085301e-01	-4.744346e-03	-1.498847e-03	-3.245499e-03
67            	6.877777e-04	1.093541e-01	-4.454905e-03	-1.539675e-03	-2.915230e-03
68            	4.680096e-04	1.100253e-01	-4.379014e-03	-1.721498e-03	-2.657517e-03
69            	1.872408e-04	1.104991e-01	-4.447797e-03	-2.036658e-03	-2.411139e-03
70            	-2.144012e-04	1.109624e-01	-4.770764e-03	-2.599783e-03	-2.170981e-03
71            	-6.594204e-04	1.114724e-01	-5.113266e-03	-3.216053e-03	-1.897212e-03
72            	-1.114270e-03	1.119793e-01	-5.455554e-03	-3.842047e-03	-1.613507e-03
73            	-1.592091e-03	1.124026e-01	-5.867002e-03	-4.525592e-03	-1.341410e-03
74            	-2.148125e-03	1.127071e-01	-6.497166e-03	-5.396708e-03	-1.100458e-03
75            	-2.769031e-03	1.129187e-01	-7.330501e-03	-6.434281e-03	-8.962198e-04
76            	-3.424527e-03	1.130079e-01	-8.354580e-03	-7.601818e-03	-7.527627e-04
77            	-4.149881e-03	1.130175e-01	-9.764251e-03	-9.032007e-03	-7.322447e-04
78            	-4.846006e-03	1.129558e-01	-1.106094e-02	-1.037648e-02	-6.844651e-04
79            	-5.591967e-03	1.127753e-01	-1.251897e-02	-1.185145e-02	-6.675157e-04
80            	-6.325617e-03	1.124515e-01	-1.396117e-02	-1.330620e-02	-6.549700e-04
81            	-7.119751e-03	1.119849e-01	-1.564761e-02	-1.494356e-02	-7.040559e-04
82            	-7.920845e-03	1.114249e-01	-1.740542e-02	-1.662356e-02	-7.818659e-04
83            	-8.667196e-03	1.108387e-01	-1.906663e-02	-1.820051e-02	-8.661184e-04
84            	-9.409795e-03	1.102008e-01	-2.081716e-02	-1.981838e-02	-9.987847e-04
85            	-1.014229e-02	1.095463e-01	-2.259266e-02	-2.143862e-02	-1.154045e-03
86            	-1.090544e-02	1.087934e-01	-2.446304e-02	-2.313697e-02	-1.326078e-03
87            	-1.158910e-02	1.080450e-01	-2.607177e-02	-2.462498e-02	-1.446786e-03
88            	-1.222568e-02	1.072249e-01	-2.753640e-02	-2.599388e-02	-1.542516e-03
89            	-1.277217e-02	1.064399e-01	-2.882099e-02	-2.718266e-02	-1.638322e-03
90            	-1.324034e-02	1.056820e-01	-2.996165e-02	-2.822117e-02	-1.740485e-03
91            	-1.362732e-02	1.049203e-01	-3.098743e-02	-2.912104e-02	-1.866396e-03
92            	-1.392646e-02	1.042375e-01	-3.193628e-02	-2.989460e-02	-2.041683e-03
93            	-1.414124e-02	1.035080e-01	-3.270113e-02	-3.049180e-02	-2.209323e-03
94            	-1.425796e-02	1.028324e-01	-3.320906e-02	-3.086249e-02	-2.346575e-03
95            	-1.426104e-02	1.022600e-01	-3.344046e-02	-3.098127e-02	-2.459187e-03
96            	-1.417796e-02	1.017314e-01	-3.349511e-02	-3.092551e-02	-2.569600e-03
97            	-1.402974e-02	1.011905e-01	-3.345957e-02	-3.075953e-02	-2.700039e-03
98            	-1.382112e-02	1.006651e-01	-3.332248e-02	-3.048236e-02	-2.840115e-03
99            	-1.356910e-02	1.001829e-01	-3.307652e-02	-3.010737e-02	-2.969157e-03
100           	-1.326935e-02	9.976451e-02	-3.272483e-02	-2.963177e-02	-3.093061e-03
101           	-1.292292e-02	9.938795e-02	-3.229975e-02	-2.907279e-02	-3.226961e-03
102           	-1.256016e-02	9.909574e-02	-3.191586e-02	-2.851809e-02	-3.397765e-03
103           	-1.217275e-02	9.879265e-02	-3.139112e-02	-2.786831e-02	-3.522804e-03
104           	-1.178400e-02	9.838972e-02	-3.081342e-02	-2.719071e-02	-3.622711e-03
105           	-1.139198e-02	9.803798e-02	-3.022476e-02	-2.650436e-02	-3.720399e-03
106           	-1.100126e-02	9.775363e-02	-2.962228e-02	-2.581240e-02	-3.809884e-03
107           	-1.063932e-02	9.755106e-02	-2.909751e-02	-2.518807e-02	-3.909434e-03
108           	-1.027513e-02	9.733848e-02	-2.859030e-02	-2.457028e-02	-4.020022e-03
109           	-9.920527e-03	9.706557e-02	-2.807099e-02	-2.395602e-02	-4.114968e-03
110           	-9.584499e-03	9.677649e-02	-2.754793e-02	-2.335846e-02	-4.189465e-03
111           	-9.267084e-03	9.651604e-02	-2.706345e-02	-2.279881e-02	-4.264639e-03
112           	-8.972836e-03	9.631148e-02	-2.663771e-02	-2.229169e-02	-4.346018e-03
113           	-8.686924e-03	9.609682e-02	-2.618857e-02	-2.178121e-02	-4.407362e-03
114           	-8.421484e-03	9.586605e-02	-2.578512e-02	-2.131404e-02	-4.471076e-03
115           	-8.179014e-03	9.562260e-02	-2.542930e-02	-2.089366e-02	-4.535634e-03
116           	-7.944399e-03	9.537579e-02	-2.505951e-02	-2.047416e-02	-4.585357e-03
117           	-7.733904e-03	9.518506e-02	-2.477767e-02	-2.012274e-02	-4.654933e-03
118           	-7.533493e-03	9.496999e-02	-2.449093e-02	-1.977896e-02	-4.711972e-03
119           	-7.352170e-03	9.476245e-02	-2.420871e-02	-1.945652e-02	-4.752184e-03
120           	-7.180675e-03	9.453768e-02	-2.395838e-02	-1.915987e-02	-4.798516e-03
121           	-7.022367e-03	9.433467e-02	-2.376966e-02	-1.890720e-02	-4.862462e-03
122           	-6.877698e-03	9.414125e-02	-2.359131e-02	-1.867335e-02	-4.917955e-03
123           	-6.739417e-03	9.395451e-02	-2.340562e-02	-1.844223e-02	-4.963393e-03
124           	-6.616815e-03	9.377006e-02	-2.324326e-02	-1.823845e-02	-5.004816e-03
125           	-6.503427e-03	9.355784e-02	-2.310658e-02	-1.805672e-02	-5.049864e-03
126           	-6.397461e-03	9.335546e-02	-2.297636e-02	-1.788564e-02	-5.090720e-03
127           	-6.301502e-03	9.318097e-02	-2.288551e-02	-1.774426e-02	-5.141256e-03
128           	-6.213203e-03	9.301593e-02	-2.281150e-02	-1.761895e-02	-5.192545e-03
129           	-6.132228e-03	9.284705e-02	-2.275837e-02	-1.751141e-02	-5.246959e-03
130           	-6.054825e-03	9.269153e-02	-2.267438e-02	-1.739202e-02	-5.282365e-03
131           	-5.981125e-03	9.251206e-02	-2.260300e-02	-1.728263e-02	-5.320377e-03
132           	-5.912734e-03	9.233448e-02	-2.256046e-02	-1.719296e-02	-5.367494e-03
133           	-5.851835e-03	9.216469e-02	-2.253351e-02	-1.711859e-02	-5.414919e-03
134           	-5.798007e-03	9.201664e-02	-2.251520e-02	-1.705561e-02	-5.459594e-03
135           	-5.749225e-03	9.188102e-02	-2.250711e-02	-1.700278e-02	-5.504329e-03
136           	-5.705563e-03	9.175125e-02	-2.249227e-02	-1.695170e-02	-5.540569e-03
137           	-5.665028e-03	9.159597e-02	-2.250199e-02	-1.691602e-02	-5.585968e-03
138           	-5.625969e-03	9.143422e-02	-2.251008e-02	-1.688101e-02	-5.629071e-03
139           	-5.579205e-03	9.130094e-02	-2.249744e-02	-1.682792e-02	-5.669514e-03
140           	-5.534582e-03	9.117457e-02	-2.249233e-02	-1.678075e-02	-5.711581e-03
141           	-5.496554e-03	9.105200e-02	-2.249200e-02	-1.674256e-02	-5.749449e-03
142           	-5.470816e-03	9.092508e-02	-2.252449e-02	-1.673306e-02	-5.791428e-03
143           	-5.452254e-03	9.079526e-02	-2.258033e-02	-1.674242e-02	-5.837912e-03
144           	-5.430177e-03	9.067608e-02	-2.260507e-02	-1.673271e-02	-5.872356e-03
145           	-5.400657e-03	9.056739e-02	-2.260488e-02	-1.670310e-02	-5.901783e-03
146           	-5.367906e-03	9.045583e-02	-2.261688e-02	-1.667635e-02	-5.940533e-03
147           	-5.339800e-03	9.034192e-02	-2.264787e-02	-1.666373e-02	-5.984133e-03
148           	-5.316258e-03	9.023244e-02	-2.267769e-02	-1.665510e-02	-6.022587e-03
149           	-5.295490e-03	9.013197e-02	-2.269863e-02	-1.664481e-02	-6.053827e-03
150           	-5.271969e-03	9.004008e-02	-2.270753e-02	-1.662574e-02	-6.081797e-03
151           	-5.254164e-03	8.994741e-02	-2.273667e-02	-1.662250e-02	-6.114171e-03
152           	-5.233846e-03	8.985240e-02	-2.278794e-02	-1.662782e-02	-6.160126e-03
153           	-5.217048e-03	8.976171e-02	-2.280706e-02	-1.662058e-02	-6.186481e-03
154           	-5.194220e-03	8.967549e-02	-2.278899e-02	-1.658871e-02	-6.200272e-03
155           	-5.171765e-03	8.959457e-02	-2.282031e-02	-1.658192e-02	-6.238389e-03
156           	-5.145155e-03	8.951022e-02	-2.282118e-02	-1.655574e-02	-6.265433e-03
157           	-5.131278e-03	8.943309e-02	-2.284675e-02	-1.655465e-02	-6.292095e-03
158           	-5.118557e-03	8.936216e-02	-2.286046e-02	-1.654879e-02	-6.311675e-03
159           	-5.105366e-03	8.930093e-02	-2.290077e-02	-1.655575e-02	-6.345020e-03
160           	-5.074775e-03	8.923323e-02	-2.289767e-02	-1.652361e-02	-6.374061e-03
161           	-5.041370e-03	8.916410e-02	-2.287237e-02	-1.647756e-02	-6.394816e-03
162           	-5.013841e-03	8.910026e-02	-2.285101e-02	-1.643935e-02	-6.411665e-03
163           	-4.995749e-03	8.906344e-02	-2.286183e-02	-1.642667e-02	-6.435167e-03
164           	-4.980283e-03	8.898954e-02	-2.285298e-02	-1.640677e-02	-6.446208e-03
165           	-4.961647e-03	8.892352e-02	-2.284607e-02	-1.638468e-02	-6.461389e-03
166           	-4.938080e-03	8.888119e-02	-2.284533e-02	-1.636074e-02	-6.484583e-03
167           	-4.905822e-03	8.884465e-02	-2.282260e-02	-1.631712e-02	-6.505478e-03
168           	-4.873627e-03	8.879411e-02	-2.278920e-02	-1.626823e-02	-6.520972e-03
169           	-4.843422e-03	8.874413e-02	-2.275199e-02	-1.621942e-02	-6.532574e-03
170           	-4.816198e-03	8.869904e-02	-2.271781e-02	-1.617510e-02	-6.542707e-03
171           	-4.792763e-03	8.866372e-02	-2.269082e-02	-1.613818e-02	-6.552649e-03
172           	-4.771358e-03	8.862596e-02	-2.267117e-02	-1.610694e-02	-6.564227e-03
173           	-4.749844e-03	8.858528e-02	-2.265132e-02	-1.607550e-02	-6.575816e-03
174           	-4.723994e-03	8.854269e-02	-2.262083e-02	-1.603441e-02	-6.586421e-03
175           	-4.692326e-03	8.850979e-02	-2.257043e-02	-1.597754e-02	-6.592888e-03
176           	-4.652915e-03	8.848527e-02	-2.249971e-02	-1.590277e-02	-6.596939e-03
177           	-4.619285e-03	8.845044e-02	-2.244442e-02	-1.584149e-02	-6.602924e-03
178           	-4.592063e-03	8.841314e-02	-2.239938e-02	-1.579175e-02	-6.607625e-03
179           	-4.564877e-03	8.838008e-02	-2.235482e-02	-1.574229e-02	-6.612535e-03
180           	-4.536110e-03	8.836020e-02	-2.230024e-02	-1.568623e-02	-6.614008e-03
181           	-4.512749e-03	8.832846e-02	-2.225899e-02	-1.564225e-02	-6.616747e-03
182           	-4.488568e-03	8.829880e-02	-2.220681e-02	-1.559197e-02	-6.614835e-03
183           	-4.456425e-03	8.827547e-02	-2.213674e-02	-1.552480e-02	-6.611945e-03
184           	-4.421414e-03	8.825197e-02	-2.206518e-02	-1.545400e-02	-6.611175e-03
185           	-4.386382e-03	8.822570e-02	-2.199660e-02	-1.538468e-02	-6.611917e-03
186           	-4.355947e-03	8.819937e-02	-2.193199e-02	-1.532194e-02	-6.610050e-03
187           	-4.322226e-03	8.818058e-02	-2.185736e-02	-1.525090e-02	-6.606453e-03
188           	-4.299766e-03	8.815238e-02	-2.179954e-02	-1.519953e-02	-6.600001e-03
189           	-4.274166e-03	8.813597e-02	-2.172600e-02	-1.513717e-02	-6.588836e-03
190           	-4.241240e-03	8.812364e-02	-2.164294e-02	-1.506271e-02	-6.580232e-03
191           	-4.216289e-03	8.809532e-02	-2.158430e-02	-1.500844e-02	-6.575862e-03
192           	-4.193417e-03	8.806638e-02	-2.152609e-02	-1.495646e-02	-6.569627e-03
193           	-4.159794e-03	8.805336e-02	-2.143245e-02	-1.487602e-02	-6.556430e-03
194           	-4.124362e-03	8.803953e-02	-2.134034e-02	-1.479453e-02	-6.545807e-03
195           	-4.091159e-03	8.802416e-02	-2.125288e-02	-1.471760e-02	-6.535281e-03
196           	-4.072461e-03	8.799384e-02	-2.120012e-02	-1.467252e-02	-6.527600e-03
197           	-4.047107e-03	8.798168e-02	-2.111340e-02	-1.460381e-02	-6.509594e-03
198           	-4.015753e-03	8.797529e-02	-2.101461e-02	-1.452306e-02	-6.491550e-03
199           	-3.991171e-03	8.795683e-02	-2.093853e-02	-1.446044e-02	-6.478094e-03
200           	-3.975559e-03	8.793746e-02	-2.087635e-02	-1.441373e-02	-6.462618e-03
201           	-3.951495e-03	8.792399e-02	-2.079787e-02	-1.435043e-02	-6.447438e-03
202           	-3.919362e-03	8.791323e-02	-2.070183e-02	-1.427028e-02	-6.431555e-03
203           	-3.889539e-03	8.789507e-02	-2.060957e-02	-1.419433e-02	-6.415247e-03
204           	-3.866757e-03	8.787664e-02	-2.052431e-02	-1.412891e-02	-6.395397e-03
205           	-3.842519e-03	8.786730e-02	-2.043099e-02	-1.405801e-02	-6.372976e-03
206           	-3.821776e-03	8.785562e-02	-2.035524e-02	-1.399939e-02	-6.355842e-03
207           	-3.801304e-03	8.784149e-02	-2.027638e-02	-1.393949e-02	-6.336885e-03
208           	-3.778481e-03	8.782320e-02	-2.018877e-02	-1.387286e-02	-6.315903e-03
209           	-3.754648e-03	8.781222e-02	-2.009591e-02	-1.380260e-02	-6.293308e-03
210           	-3.731815e-03	8.779781e-02	-2.000326e-02	-1.373344e-02	-6.269813e-03
211           	-3.710310e-03	8.778838e-02	-1.991726e-02	-1.366894e-02	-6.248318e-03
212           	-3.688007e-03	8.777501e-02	-1.982809e-02	-1.360205e-02	-6.226038e-03
213           	-3.667465e-03	8.776136e-02	-1.973974e-02	-1.353734e-02	-6.202406e-03
214           	-3.642990e-03	8.775323e-02	-1.964006e-02	-1.346302e-02	-6.177040e-03
215           	-3.630131e-03	8.773684e-02	-1.956327e-02	-1.341176e-02	-6.151502e-03
216           	-3.617009e-03	8.772002e-02	-1.949008e-02	-1.336205e-02	-6.128032e-03
217           	-3.592839e-03	8.771242e-02	-1.938282e-02	-1.328425e-02	-6.098570e-03
218           	-3.567720e-03	8.770399e-02	-1.927895e-02	-1.320720e-02	-6.071757e-03
219           	-3.549106e-03	8.769084e-02	-1.919509e-02	-1.314665e-02	-6.048440e-03
220           	-3.535585e-03	8.767631e-02	-1.911789e-02	-1.309453e-02	-6.023361e-03
221           	-3.519946e-03	8.766410e-02	-1.902649e-02	-1.303319e-02	-5.993299e-03
222           	-3.501689e-03	8.765270e-02	-1.893141e-02	-1.296739e-02	-5.964015e-03
223           	-3.484420e-03	8.763787e-02	-1.885183e-02	-1.291033e-02	-5.941494e-03
224           	-3.460500e-03	8.763559e-02	-1.872511e-02	-1.282305e-02	-5.902054e-03
225           	-3.445110e-03	8.762658e-02	-1.863616e-02	-1.276319e-02	-5.872971e-03
226           	-3.432897e-03	8.760975e-02	-1.856353e-02	-1.271466e-02	-5.848867e-03
227           	-3.419899e-03	8.759275e-02	-1.848294e-02	-1.266137e-02	-5.821569e-03
228           	-3.406835e-03	8.757752e-02	-1.840498e-02	-1.260933e-02	-5.795655e-03
229           	-3.386921e-03	8.757227e-02	-1.829312e-02	-1.253348e-02	-5.759639e-03
230           	-3.364905e-03	8.756847e-02	-1.817770e-02	-1.245375e-02	-5.723943e-03
231           	-3.350108e-03	8.755226e-02	-1.808756e-02	-1.239389e-02	-5.693674e-03
232           	-3.333242e-03	8.754398e-02	-1.798333e-02	-1.232491e-02	-5.658425e-03
233           	-3.332916e-03	8.752144e-02	-1.795692e-02	-1.231138e-02	-5.645547e-03
234           	-3.321920e-03	8.750606e-02	-1.787491e-02	-1.225937e-02	-5.615534e-03
235           	-3.289378e-03	8.751121e-02	-1.770210e-02	-1.214043e-02	-5.561672e-03
236           	-3.264494e-03	8.750689e-02	-1.756497e-02	-1.204698e-02	-5.517992e-03
237           	-3.261262e-03	8.748539e-02	-1.752173e-02	-1.202213e-02	-5.499601e-03
238           	-3.261053e-03	8.745718e-02	-1.750771e-02	-1.201491e-02	-5.492803e-03
239           	-3.253692e-03	8.743927e-02	-1.744182e-02	-1.197460e-02	-5.467216e-03
240           	-3.223274e-03	8.745046e-02	-1.726036e-02	-1.185345e-02	-5.406906e-03
241           	-3.168688e-03	8.746765e-02	-1.701987e-02	-1.167862e-02	-5.341247e-03
242           	-3.177446e-03	8.743574e-02	-1.701364e-02	-1.168427e-02	-5.329373e-03
243           	-3.204038e-03	8.739363e-02	-1.703850e-02	-1.172329e-02	-5.315212e-03
244           	-3.197875e-03	8.737562e-02	-1.698079e-02	-1.168827e-02	-5.292519e-03
245           	-3.151298e-03	8.739089e-02	-1.679005e-02	-1.154632e-02	-5.243729e-03
246           	-3.109996e-03	8.739280e-02	-1.662104e-02	-1.142051e-02	-5.200522e-03
247           	-3.106760e-03	8.737432e-02	-1.656916e-02	-1.139134e-02	-5.177821e-03
248           	-3.109832e-03	8.735140e-02	-1.652644e-02	-1.137305e-02	-5.153387e-03
249           	-3.107893e-03	8.733614e-02	-1.641778e-02	-1.131678e-02	-5.100996e-03
250           	-3.067652e-03	8.733740e-02	-1.621243e-02	-1.117387e-02	-5.038561e-03
251           	-3.059749e-03	8.732061e-02	-1.617959e-02	-1.114954e-02	-5.030046e-03
252           	-3.053318e-03	8.730305e-02	-1.614811e-02	-1.112738e-02	-5.020739e-03
253           	-3.027292e-03	8.730293e-02	-1.600154e-02	-1.102806e-02	-4.973480e-03
254           	-3.022637e-03	8.728526e-02	-1.594057e-02	-1.099292e-02	-4.947647e-03
255           	-3.012761e-03	8.726978e-02	-1.585779e-02	-1.094165e-02	-4.916133e-03
256           	-2.964997e-03	8.726568e-02	-1.558610e-02	-1.075805e-02	-4.828055e-03
257           	-2.961825e-03	8.724886e-02	-1.555164e-02	-1.073764e-02	-4.813996e-03
258           	-2.961429e-03	8.723720e-02	-1.552378e-02	-1.072332e-02	-4.800460e-03
259           	-2.957455e-03	8.722296e-02	-1.548885e-02	-1.070188e-02	-4.786970e-03
260           	-2.947682e-03	8.721089e-02	-1.541919e-02	-1.065728e-02	-4.761914e-03
261           	-2.919252e-03	8.720652e-02	-1.524956e-02	-1.054403e-02	-4.705528e-03
262           	-2.880474e-03	8.720212e-02	-1.504931e-02	-1.040513e-02	-4.644183e-03
263           	-2.846940e-03	8.719168e-02	-1.485370e-02	-1.027379e-02	-4.579908e-03
264           	-2.824892e-03	8.717239e-02	-1.471783e-02	-1.018381e-02	-4.534025e-03
265           	-2.843386e-03	8.715319e-02	-1.479638e-02	-1.024158e-02	-4.554805e-03
266           	-2.850907e-03	8.713698e-02	-1.481435e-02	-1.025808e-02	-4.556266e-03
267           	-2.832961e-03	8.714854e-02	-1.465334e-02	-1.015963e-02	-4.493709e-03
268           	-2.814510e-03	8.713063e-02	-1.455745e-02	-1.009324e-02	-4.464217e-03
269           	-2.777188e-03	8.710969e-02	-1.438909e-02	-9.971731e-03	-4.417355e-03
270           	-2.727985e-03	8.709647e-02	-1.416636e-02	-9.811165e-03	-4.355195e-03
271           	-2.734581e-03	8.708733e-02	-1.415044e-02	-9.809799e-03	-4.340637e-03
272           	-2.743752e-03	8.708552e-02	-1.413082e-02	-9.809164e-03	-4.321661e-03
273           	-2.742649e-03	8.706970e-02	-1.410039e-02	-9.792843e-03	-4.307546e-03
274           	-2.720634e-03	8.705873e-02	-1.395545e-02	-9.698360e-03	-4.257093e-03
275           	-2.678359e-03	8.704873e-02	-1.375689e-02	-9.556806e-03	-4.200088e-03
276           	-2.628217e-03	8.703663e-02	-1.353517e-02	-9.395800e-03	-4.139366e-03
277           	-2.625053e-03	8.702723e-02	-1.349685e-02	-9.373476e-03	-4.123370e-03
278           	-2.635450e-03	8.701502e-02	-1.350500e-02	-9.387950e-03	-4.117051e-03
279           	-2.637161e-03	8.700201e-02	-1.347951e-02	-9.376916e-03	-4.102593e-03
280           	-2.582890e-03	8.700121e-02	-1.314962e-02	-9.157699e-03	-3.991920e-03
281           	-2.576259e-03	8.698623e-02	-1.314694e-02	-9.149727e-03	-3.997208e-03
282           	-2.573192e-03	8.697075e-02	-1.314605e-02	-9.146215e-03	-3.999830e-03
283           	-2.565445e-03	8.695801e-02	-1.308938e-02	-9.110135e-03	-3.979246e-03
284           	-2.548551e-03	8.694959e-02	-1.294512e-02	-9.021111e-03	-3.924010e-03
285           	-2.514579e-03	8.694338e-02	-1.273731e-02	-8.883235e-03	-3.854077e-03
286           	-2.482898e-03	8.693470e-02	-1.258822e-02	-8.777009e-03	-3.811213e-03
287           	-2.467729e-03	8.692275e-02	-1.252992e-02	-8.732691e-03	-3.797233e-03
288           	-2.433540e-03	8.691198e-02	-1.236751e-02	-8.617296e-03	-3.750217e-03
289           	-2.435490e-03	8.690069e-02	-1.235190e-02	-8.611441e-03	-3.740461e-03
290           	-2.446437e-03	8.689740e-02	-1.234033e-02	-8.616603e-03	-3.723729e-03
291           	-2.446911e-03	8.689106e-02	-1.230150e-02	-8.597661e-03	-3.703839e-03
292           	-2.433844e-03	8.688049e-02	-1.222310e-02	-8.545392e-03	-3.677703e-03
293           	-2.385062e-03	8.686983e-02	-1.199342e-02	-8.381773e-03	-3.611648e-03
294           	-2.344792e-03	8.685897e-02	-1.181566e-02	-8.252622e-03	-3.563038e-03
295           	-2.324479e-03	8.684891e-02	-1.172333e-02	-8.186145e-03	-3.537187e-03
296           	-2.319410e-03	8.683959e-02	-1.168323e-02	-8.161023e-03	-3.522204e-03
297           	-2.318016e-03	8.683058e-02	-1.163443e-02	-8.135232e-03	-3.499200e-03
298           	-2.305674e-03	8.682455e-02	-1.152546e-02	-8.068402e-03	-3.457055e-03
299           	-2.293269e-03	8.681438e-02	-1.145174e-02	-8.019136e-03	-3.432599e-03
300           	-2.278774e-03	8.680445e-02	-1.139219e-02	-7.974868e-03	-3.417320e-03
301           	-2.254960e-03	8.679599e-02	-1.128314e-02	-7.896530e-03	-3.386609e-03
302           	-2.234954e-03	8.678811e-02	-1.117097e-02	-7.820439e-03	-3.350532e-03
303           	-2.209607e-03	8.678022e-02	-1.102909e-02	-7.724150e-03	-3.304935e-03
304           	-2.186569e-03	8.677129e-02	-1.090292e-02	-7.638027e-03	-3.264889e-03
305           	-2.178063e-03	8.676151e-02	-1.085486e-02	-7.605495e-03	-3.249369e-03
306           	-2.167691e-03	8.675354e-02	-1.078645e-02	-7.560915e-03	-3.225534e-03
307           	-2.151529e-03	8.674725e-02	-1.068029e-02	-7.491675e-03	-3.188617e-03
308           	-2.109841e-03	8.674236e-02	-1.048226e-02	-7.350970e-03	-3.131288e-03
309           	-2.108836e-03	8.673166e-02	-1.046850e-02	-7.343088e-03	-3.125417e-03
310           	-2.109466e-03	8.672192e-02	-1.045691e-02	-7.337924e-03	-3.118991e-03
311           	-2.106050e-03	8.671260e-02	-1.043069e-02	-7.321397e-03	-3.109296e-03
312           	-2.093863e-03	8.670614e-02	-1.033380e-02	-7.260765e-03	-3.073040e-03
313           	-2.062021e-03	8.670171e-02	-1.015624e-02	-7.140141e-03	-3.016098e-03
314           	-2.025821e-03	8.669521e-02	-9.991769e-03	-7.021706e-03	-2.970063e-03
315           	-2.007030e-03	8.668641e-02	-9.917034e-03	-6.965547e-03	-2.951487e-03
316           	-1.988812e-03	8.667741e-02	-9.834255e-03	-6.905939e-03	-2.928316e-03
317           	-1.965342e-03	8.667141e-02	-9.709532e-03	-6.820108e-03	-2.889424e-03
318           	-1.966234e-03	8.666358e-02	-9.691556e-03	-6.812012e-03	-2.879544e-03
319           	-1.970026e-03	8.665778e-02	-9.654950e-03	-6.797501e-03	-2.857449e-03
320           	-1.965753e-03	8.665025e-02	-9.617055e-03	-6.774280e-03	-2.842775e-03
321           	-1.948915e-03	8.664504e-02	-9.522162e-03	-6.709996e-03	-2.812166e-03
322           	-1.929821e-03	8.663918e-02	-9.426800e-03	-6.643221e-03	-2.783579e-03
323           	-1.875622e-03	8.663423e-02	-9.197994e-03	-6.474619e-03	-2.723376e-03
324           	-1.857345e-03	8.662622e-02	-9.108877e-03	-6.411784e-03	-2.697093e-03
325           	-1.835826e-03	8.661794e-02	-8.990387e-03	-6.331019e-03	-2.659367e-03
326           	-1.832229e-03	8.660982e-02	-8.956560e-03	-6.310509e-03	-2.646051e-03
327           	-1.825052e-03	8.660622e-02	-8.884254e-03	-6.267179e-03	-2.617075e-03
328           	-1.823100e-03	8.660112e-02	-8.856007e-03	-6.251104e-03	-2.604903e-03
329           	-1.815009e-03	8.659548e-02	-8.806884e-03	-6.218451e-03	-2.588433e-03
330           	-1.792222e-03	8.659123e-02	-8.698239e-03	-6.141341e-03	-2.556898e-03
331           	-1.783460e-03	8.658355e-02	-8.652483e-03	-6.109702e-03	-2.542781e-03
332           	-1.766156e-03	8.657683e-02	-8.558431e-03	-6.045372e-03	-2.513059e-03
333           	-1.721011e-03	8.657229e-02	-8.334517e-03	-5.888269e-03	-2.446247e-03
334           	-1.686577e-03	8.656734e-02	-8.173889e-03	-5.773522e-03	-2.400367e-03
335           	-1.683272e-03	8.655955e-02	-8.155407e-03	-5.760975e-03	-2.394432e-03
336           	-1.682764e-03	8.655262e-02	-8.144152e-03	-5.754840e-03	-2.389312e-03
337           	-1.682593e-03	8.655018e-02	-8.091014e-03	-5.728099e-03	-2.362914e-03
338           	-1.661764e-03	8.654932e-02	-7.994793e-03	-5.659160e-03	-2.335633e-03
339           	-1.655700e-03	8.654252e-02	-7.949468e-03	-5.630434e-03	-2.319034e-03
340           	-1.649052e-03	8.653420e-02	-7.905078e-03	-5.601591e-03	-2.303487e-03
341           	-1.637125e-03	8.652713e-02	-7.836349e-03	-5.555299e-03	-2.281050e-03
342           	-1.591943e-03	8.652320e-02	-7.614896e-03	-5.399391e-03	-2.215505e-03
343           	-1.520596e-03	8.652196e-02	-7.333696e-03	-5.187444e-03	-2.146252e-03
344           	-1.522437e-03	8.651603e-02	-7.321488e-03	-5.183181e-03	-2.138307e-03
345           	-1.536370e-03	8.650965e-02	-7.348015e-03	-5.210378e-03	-2.137637e-03
346           	-1.558802e-03	8.650452e-02	-7.391933e-03	-5.254769e-03	-2.137164e-03
347           	-1.564070e-03	8.649955e-02	-7.387451e-03	-5.257795e-03	-2.129656e-03
348           	-1.522564e-03	8.650232e-02	-7.188024e-03	-5.116576e-03	-2.071448e-03
349           	-1.496999e-03	8.649620e-02	-7.085085e-03	-5.039541e-03	-2.045544e-03
350           	-1.469781e-03	8.648871e-02	-6.979094e-03	-4.959328e-03	-2.019766e-03
351           	-1.463960e-03	8.648200e-02	-6.944852e-03	-4.936386e-03	-2.008466e-03
352           	-1.403453e-03	8.647985e-02	-6.643404e-03	-4.725156e-03	-1.918249e-03