/*--------------------------------*- C++ -*----------------------------------*\
  =========                 |
  \\      /  F ield         | OpenFOAM: The Open Source CFD Toolbox
   \\    /   O peration     | Website:  https://openfoam.org
    \\  /    A nd           | Version:  7
     \\/     M anipulation  |
\*---------------------------------------------------------------------------*/
FoamFile
{
    version     2.0;
    format      ascii;
    class       volScalarField;
    location    "600";
    object      nut;
}
// * * * * * * * * * * * * * * * * * * * * * * * * * * * * * * * * * * * * * //

dimensions      [0 2 -1 0 0 0 0];

internalField   nonuniform List<scalar> 
23052
(
5.21005e-06
5.20974e-06
5.21375e-06
5.2095e-06
5.21331e-06
5.2155e-06
5.20926e-06
5.21288e-06
5.21498e-06
5.21621e-06
5.20904e-06
5.21247e-06
5.21454e-06
5.21575e-06
5.21639e-06
5.21659e-06
5.20884e-06
5.21209e-06
5.21411e-06
5.21533e-06
5.21598e-06
5.21627e-06
5.21623e-06
5.21578e-06
5.20866e-06
5.21174e-06
5.2137e-06
5.21492e-06
5.2156e-06
5.21589e-06
5.21597e-06
5.21578e-06
5.21526e-06
5.2085e-06
5.21141e-06
5.21331e-06
5.21452e-06
5.21522e-06
5.21556e-06
5.21563e-06
5.21556e-06
5.21527e-06
5.21471e-06
5.20835e-06
5.2111e-06
5.21294e-06
5.21414e-06
5.21486e-06
5.21522e-06
5.21534e-06
5.21526e-06
5.2151e-06
5.21474e-06
5.21416e-06
5.20821e-06
5.21081e-06
5.21259e-06
5.21377e-06
5.2145e-06
5.21489e-06
5.21504e-06
5.21502e-06
5.21483e-06
5.21461e-06
5.2142e-06
5.21361e-06
5.20809e-06
5.21054e-06
5.21226e-06
5.21342e-06
5.21416e-06
5.21457e-06
5.21475e-06
5.21475e-06
5.21462e-06
5.21437e-06
5.2141e-06
5.21365e-06
5.21307e-06
5.20798e-06
5.21029e-06
5.21194e-06
5.21308e-06
5.21382e-06
5.21425e-06
5.21446e-06
5.21449e-06
5.21438e-06
5.21419e-06
5.21388e-06
5.21359e-06
5.21311e-06
5.21257e-06
5.20787e-06
5.21006e-06
5.21164e-06
5.21276e-06
5.2135e-06
5.21394e-06
5.21417e-06
5.21423e-06
5.21415e-06
5.21398e-06
5.21373e-06
5.2134e-06
5.21308e-06
5.21261e-06
5.21209e-06
5.20778e-06
5.20984e-06
5.21136e-06
5.21245e-06
5.21319e-06
5.21364e-06
5.21389e-06
5.21397e-06
5.21392e-06
5.21378e-06
5.21355e-06
5.21327e-06
5.21291e-06
5.21258e-06
5.21212e-06
5.21162e-06
5.20769e-06
5.20964e-06
5.21109e-06
5.21215e-06
5.21288e-06
5.21335e-06
5.21361e-06
5.21371e-06
5.21369e-06
5.21357e-06
5.21338e-06
5.21311e-06
5.21281e-06
5.21243e-06
5.21209e-06
5.21165e-06
5.21116e-06
5.20761e-06
5.20944e-06
5.21084e-06
5.21187e-06
5.21259e-06
5.21306e-06
5.21334e-06
5.21346e-06
5.21347e-06
5.21337e-06
5.2132e-06
5.21296e-06
5.21267e-06
5.21235e-06
5.21197e-06
5.21162e-06
5.21119e-06
5.2107e-06
5.20753e-06
5.20926e-06
5.2106e-06
5.2116e-06
5.21231e-06
5.21278e-06
5.21307e-06
5.21321e-06
5.21324e-06
5.21317e-06
5.21302e-06
5.21281e-06
5.21254e-06
5.21223e-06
5.2119e-06
5.21152e-06
5.21117e-06
5.21075e-06
5.21026e-06
5.20746e-06
5.20909e-06
5.21037e-06
5.21134e-06
5.21204e-06
5.21251e-06
5.21281e-06
5.21297e-06
5.21301e-06
5.21296e-06
5.21284e-06
5.21265e-06
5.21241e-06
5.21212e-06
5.2118e-06
5.21146e-06
5.21108e-06
5.21072e-06
5.21031e-06
5.20982e-06
5.2074e-06
5.20893e-06
5.21016e-06
5.21109e-06
5.21178e-06
5.21225e-06
5.21256e-06
5.21273e-06
5.21279e-06
5.21276e-06
5.21265e-06
5.21249e-06
5.21227e-06
5.212e-06
5.21171e-06
5.21138e-06
5.21104e-06
5.21065e-06
5.21029e-06
5.20988e-06
5.20942e-06
5.20734e-06
5.20879e-06
5.20995e-06
5.21085e-06
5.21152e-06
5.212e-06
5.21231e-06
5.21249e-06
5.21257e-06
5.21256e-06
5.21247e-06
5.21233e-06
5.21213e-06
5.21189e-06
5.21161e-06
5.2113e-06
5.21097e-06
5.21062e-06
5.21023e-06
5.20987e-06
5.20947e-06
5.20906e-06
5.20728e-06
5.20865e-06
5.20976e-06
5.21063e-06
5.21128e-06
5.21175e-06
5.21207e-06
5.21226e-06
5.21235e-06
5.21236e-06
5.21229e-06
5.21216e-06
5.21198e-06
5.21176e-06
5.21151e-06
5.21122e-06
5.21091e-06
5.21057e-06
5.21022e-06
5.20982e-06
5.20947e-06
5.20909e-06
5.20877e-06
5.20723e-06
5.20851e-06
5.20957e-06
5.21041e-06
5.21105e-06
5.21151e-06
5.21183e-06
5.21203e-06
5.21214e-06
5.21216e-06
5.21211e-06
5.212e-06
5.21184e-06
5.21164e-06
5.2114e-06
5.21113e-06
5.21084e-06
5.21052e-06
5.21017e-06
5.20982e-06
5.20943e-06
5.20911e-06
5.20879e-06
5.20858e-06
5.20718e-06
5.20839e-06
5.2094e-06
5.2102e-06
5.21082e-06
5.21128e-06
5.2116e-06
5.21181e-06
5.21192e-06
5.21196e-06
5.21193e-06
5.21184e-06
5.2117e-06
5.21151e-06
5.21129e-06
5.21104e-06
5.21076e-06
5.21046e-06
5.21014e-06
5.20979e-06
5.20943e-06
5.20906e-06
5.20881e-06
5.20856e-06
5.20848e-06
5.20714e-06
5.20827e-06
5.20923e-06
5.21e-06
5.2106e-06
5.21105e-06
5.21138e-06
5.21159e-06
5.21172e-06
5.21176e-06
5.21175e-06
5.21167e-06
5.21155e-06
5.21138e-06
5.21118e-06
5.21095e-06
5.21069e-06
5.2104e-06
5.21009e-06
5.20976e-06
5.20941e-06
5.20907e-06
5.20876e-06
5.2086e-06
5.20844e-06
5.20848e-06
5.20709e-06
5.20816e-06
5.20907e-06
5.20981e-06
5.2104e-06
5.21084e-06
5.21116e-06
5.21138e-06
5.21151e-06
5.21157e-06
5.21157e-06
5.21151e-06
5.2114e-06
5.21125e-06
5.21107e-06
5.21085e-06
5.21061e-06
5.21034e-06
5.21005e-06
5.20973e-06
5.20939e-06
5.20905e-06
5.20876e-06
5.20853e-06
5.20848e-06
5.20841e-06
5.20857e-06
5.20705e-06
5.20806e-06
5.20892e-06
5.20963e-06
5.2102e-06
5.21063e-06
5.21095e-06
5.21117e-06
5.21131e-06
5.21138e-06
5.21139e-06
5.21134e-06
5.21125e-06
5.21112e-06
5.21095e-06
5.21075e-06
5.21052e-06
5.21027e-06
5.20999e-06
5.20969e-06
5.20937e-06
5.20904e-06
5.20874e-06
5.20852e-06
5.20839e-06
5.20845e-06
5.20848e-06
5.20875e-06
5.20702e-06
5.20796e-06
5.20878e-06
5.20946e-06
5.21e-06
5.21042e-06
5.21074e-06
5.21096e-06
5.21111e-06
5.21119e-06
5.21121e-06
5.21118e-06
5.2111e-06
5.21099e-06
5.21084e-06
5.21065e-06
5.21044e-06
5.2102e-06
5.20994e-06
5.20965e-06
5.20934e-06
5.20902e-06
5.20873e-06
5.2085e-06
5.20837e-06
5.20834e-06
5.20852e-06
5.20863e-06
5.20899e-06
5.20698e-06
5.20786e-06
5.20864e-06
5.20929e-06
5.20982e-06
5.21023e-06
5.21054e-06
5.21076e-06
5.21092e-06
5.211e-06
5.21104e-06
5.21102e-06
5.21096e-06
5.21085e-06
5.21072e-06
5.21055e-06
5.21035e-06
5.21013e-06
5.20988e-06
5.20961e-06
5.20931e-06
5.20901e-06
5.20872e-06
5.20848e-06
5.20833e-06
5.20831e-06
5.20839e-06
5.20867e-06
5.20887e-06
5.2093e-06
5.20695e-06
5.20777e-06
5.20851e-06
5.20913e-06
5.20964e-06
5.21004e-06
5.21034e-06
5.21057e-06
5.21073e-06
5.21082e-06
5.21086e-06
5.21086e-06
5.21081e-06
5.21072e-06
5.2106e-06
5.21044e-06
5.21026e-06
5.21005e-06
5.20982e-06
5.20956e-06
5.20928e-06
5.20898e-06
5.2087e-06
5.20846e-06
5.20831e-06
5.20826e-06
5.20834e-06
5.20852e-06
5.20889e-06
5.20917e-06
5.20966e-06
5.20692e-06
5.20769e-06
5.20839e-06
5.20898e-06
5.20946e-06
5.20985e-06
5.21015e-06
5.21038e-06
5.21054e-06
5.21064e-06
5.21069e-06
5.2107e-06
5.21066e-06
5.21058e-06
5.21048e-06
5.21033e-06
5.21017e-06
5.20997e-06
5.20976e-06
5.20951e-06
5.20925e-06
5.20896e-06
5.20868e-06
5.20844e-06
5.20828e-06
5.20822e-06
5.20827e-06
5.20846e-06
5.20872e-06
5.20917e-06
5.20953e-06
5.21006e-06
5.20689e-06
5.20761e-06
5.20827e-06
5.20883e-06
5.2093e-06
5.20967e-06
5.20997e-06
5.21019e-06
5.21036e-06
5.21046e-06
5.21052e-06
5.21054e-06
5.21051e-06
5.21045e-06
5.21035e-06
5.21023e-06
5.21007e-06
5.20989e-06
5.20969e-06
5.20946e-06
5.20921e-06
5.20893e-06
5.20866e-06
5.20842e-06
5.20825e-06
5.20818e-06
5.20822e-06
5.20837e-06
5.20864e-06
5.20899e-06
5.2095e-06
5.20992e-06
5.21048e-06
5.20686e-06
5.20754e-06
5.20815e-06
5.20869e-06
5.20914e-06
5.2095e-06
5.20979e-06
5.21001e-06
5.21018e-06
5.21029e-06
5.21035e-06
5.21038e-06
5.21036e-06
5.21031e-06
5.21023e-06
5.21012e-06
5.20997e-06
5.20981e-06
5.20962e-06
5.20941e-06
5.20917e-06
5.2089e-06
5.20864e-06
5.2084e-06
5.20823e-06
5.20814e-06
5.20817e-06
5.2083e-06
5.20854e-06
5.20889e-06
5.2093e-06
5.20986e-06
5.21033e-06
5.21093e-06
5.20684e-06
5.20746e-06
5.20805e-06
5.20855e-06
5.20898e-06
5.20933e-06
5.20961e-06
5.20983e-06
5.21e-06
5.21012e-06
5.21019e-06
5.21022e-06
5.21022e-06
5.21018e-06
5.21011e-06
5.21e-06
5.20987e-06
5.20972e-06
5.20955e-06
5.20935e-06
5.20912e-06
5.20887e-06
5.20862e-06
5.20838e-06
5.20821e-06
5.20811e-06
5.20812e-06
5.20824e-06
5.20846e-06
5.20878e-06
5.20919e-06
5.20965e-06
5.21025e-06
5.21077e-06
5.21139e-06
5.20681e-06
5.2074e-06
5.20794e-06
5.20842e-06
5.20883e-06
5.20917e-06
5.20944e-06
5.20966e-06
5.20983e-06
5.20995e-06
5.21003e-06
5.21007e-06
5.21007e-06
5.21004e-06
5.20998e-06
5.20989e-06
5.20977e-06
5.20963e-06
5.20947e-06
5.20929e-06
5.20907e-06
5.20884e-06
5.20859e-06
5.20836e-06
5.20818e-06
5.20808e-06
5.20808e-06
5.20818e-06
5.20838e-06
5.20868e-06
5.20906e-06
5.20953e-06
5.21004e-06
5.21067e-06
5.21123e-06
5.21186e-06
5.20679e-06
5.20733e-06
5.20784e-06
5.2083e-06
5.20869e-06
5.20901e-06
5.20928e-06
5.20949e-06
5.20966e-06
5.20978e-06
5.20987e-06
5.20991e-06
5.20993e-06
5.20991e-06
5.20986e-06
5.20978e-06
5.20967e-06
5.20954e-06
5.2094e-06
5.20922e-06
5.20902e-06
5.2088e-06
5.20856e-06
5.20834e-06
5.20816e-06
5.20805e-06
5.20803e-06
5.20812e-06
5.20831e-06
5.20859e-06
5.20895e-06
5.20939e-06
5.2099e-06
5.21045e-06
5.2111e-06
5.2117e-06
5.21235e-06
5.20677e-06
5.20727e-06
5.20775e-06
5.20818e-06
5.20855e-06
5.20886e-06
5.20912e-06
5.20933e-06
5.2095e-06
5.20962e-06
5.20971e-06
5.20976e-06
5.20978e-06
5.20977e-06
5.20973e-06
5.20966e-06
5.20957e-06
5.20945e-06
5.20932e-06
5.20916e-06
5.20897e-06
5.20876e-06
5.20853e-06
5.20831e-06
5.20813e-06
5.20802e-06
5.208e-06
5.20807e-06
5.20824e-06
5.2085e-06
5.20885e-06
5.20927e-06
5.20975e-06
5.2103e-06
5.21087e-06
5.21155e-06
5.21219e-06
5.21286e-06
5.20675e-06
5.20721e-06
5.20766e-06
5.20806e-06
5.20842e-06
5.20872e-06
5.20897e-06
5.20917e-06
5.20933e-06
5.20946e-06
5.20955e-06
5.20961e-06
5.20964e-06
5.20963e-06
5.2096e-06
5.20955e-06
5.20946e-06
5.20936e-06
5.20924e-06
5.20909e-06
5.20891e-06
5.20871e-06
5.2085e-06
5.20828e-06
5.20811e-06
5.20799e-06
5.20796e-06
5.20802e-06
5.20817e-06
5.20842e-06
5.20875e-06
5.20915e-06
5.20961e-06
5.21013e-06
5.21071e-06
5.21132e-06
5.21201e-06
5.21269e-06
5.21338e-06
5.20673e-06
5.20715e-06
5.20757e-06
5.20795e-06
5.20829e-06
5.20857e-06
5.20881e-06
5.20902e-06
5.20918e-06
5.2093e-06
5.2094e-06
5.20946e-06
5.20949e-06
5.2095e-06
5.20948e-06
5.20943e-06
5.20936e-06
5.20927e-06
5.20915e-06
5.20902e-06
5.20885e-06
5.20867e-06
5.20846e-06
5.20826e-06
5.20808e-06
5.20796e-06
5.20792e-06
5.20797e-06
5.20811e-06
5.20835e-06
5.20866e-06
5.20904e-06
5.20948e-06
5.20999e-06
5.21054e-06
5.21114e-06
5.21178e-06
5.21249e-06
5.21319e-06
5.21392e-06
5.20671e-06
5.2071e-06
5.20749e-06
5.20785e-06
5.20816e-06
5.20844e-06
5.20867e-06
5.20886e-06
5.20902e-06
5.20915e-06
5.20925e-06
5.20931e-06
5.20935e-06
5.20936e-06
5.20935e-06
5.20931e-06
5.20925e-06
5.20917e-06
5.20907e-06
5.20894e-06
5.20879e-06
5.20862e-06
5.20842e-06
5.20822e-06
5.20805e-06
5.20794e-06
5.20789e-06
5.20793e-06
5.20806e-06
5.20828e-06
5.20857e-06
5.20894e-06
5.20936e-06
5.20985e-06
5.21038e-06
5.21096e-06
5.21159e-06
5.21225e-06
5.21297e-06
5.2137e-06
5.21447e-06
5.20669e-06
5.20705e-06
5.20741e-06
5.20774e-06
5.20804e-06
5.2083e-06
5.20853e-06
5.20872e-06
5.20887e-06
5.209e-06
5.2091e-06
5.20917e-06
5.20921e-06
5.20923e-06
5.20923e-06
5.2092e-06
5.20915e-06
5.20907e-06
5.20898e-06
5.20887e-06
5.20873e-06
5.20856e-06
5.20838e-06
5.20819e-06
5.20803e-06
5.20791e-06
5.20786e-06
5.20789e-06
5.20801e-06
5.20821e-06
5.20849e-06
5.20884e-06
5.20925e-06
5.20972e-06
5.21023e-06
5.21079e-06
5.21139e-06
5.21205e-06
5.21273e-06
5.21347e-06
5.21422e-06
5.21502e-06
5.20668e-06
5.207e-06
5.20733e-06
5.20765e-06
5.20793e-06
5.20817e-06
5.20839e-06
5.20857e-06
5.20872e-06
5.20885e-06
5.20895e-06
5.20902e-06
5.20907e-06
5.2091e-06
5.2091e-06
5.20908e-06
5.20904e-06
5.20898e-06
5.20889e-06
5.20879e-06
5.20866e-06
5.20851e-06
5.20833e-06
5.20816e-06
5.20799e-06
5.20788e-06
5.20782e-06
5.20785e-06
5.20796e-06
5.20815e-06
5.20842e-06
5.20875e-06
5.20914e-06
5.20959e-06
5.21009e-06
5.21063e-06
5.21122e-06
5.21184e-06
5.21252e-06
5.21322e-06
5.21398e-06
5.21475e-06
5.21558e-06
5.20666e-06
5.20695e-06
5.20726e-06
5.20755e-06
5.20782e-06
5.20805e-06
5.20825e-06
5.20843e-06
5.20858e-06
5.2087e-06
5.2088e-06
5.20888e-06
5.20893e-06
5.20896e-06
5.20897e-06
5.20896e-06
5.20893e-06
5.20888e-06
5.20881e-06
5.20871e-06
5.2086e-06
5.20845e-06
5.20829e-06
5.20812e-06
5.20796e-06
5.20785e-06
5.20779e-06
5.20781e-06
5.20791e-06
5.20809e-06
5.20835e-06
5.20867e-06
5.20904e-06
5.20948e-06
5.20996e-06
5.21048e-06
5.21105e-06
5.21166e-06
5.2123e-06
5.21299e-06
5.21372e-06
5.2145e-06
5.21529e-06
5.21614e-06
5.20665e-06
5.20691e-06
5.20719e-06
5.20746e-06
5.20771e-06
5.20793e-06
5.20812e-06
5.20829e-06
5.20844e-06
5.20856e-06
5.20866e-06
5.20874e-06
5.2088e-06
5.20883e-06
5.20885e-06
5.20884e-06
5.20882e-06
5.20878e-06
5.20872e-06
5.20863e-06
5.20853e-06
5.20839e-06
5.20824e-06
5.20808e-06
5.20793e-06
5.20782e-06
5.20776e-06
5.20778e-06
5.20787e-06
5.20804e-06
5.20828e-06
5.20859e-06
5.20895e-06
5.20937e-06
5.20983e-06
5.21034e-06
5.21089e-06
5.21148e-06
5.21211e-06
5.21277e-06
5.21349e-06
5.21423e-06
5.21503e-06
5.21585e-06
5.21672e-06
5.20663e-06
5.20687e-06
5.20712e-06
5.20737e-06
5.2076e-06
5.20781e-06
5.20799e-06
5.20816e-06
5.2083e-06
5.20842e-06
5.20852e-06
5.2086e-06
5.20866e-06
5.2087e-06
5.20873e-06
5.20873e-06
5.20871e-06
5.20868e-06
5.20862e-06
5.20855e-06
5.20845e-06
5.20833e-06
5.20819e-06
5.20804e-06
5.20789e-06
5.20778e-06
5.20773e-06
5.20774e-06
5.20783e-06
5.20799e-06
5.20822e-06
5.20851e-06
5.20886e-06
5.20927e-06
5.20971e-06
5.2102e-06
5.21073e-06
5.21131e-06
5.21192e-06
5.21257e-06
5.21325e-06
5.21399e-06
5.21475e-06
5.21557e-06
5.21641e-06
5.21731e-06
5.20662e-06
5.20682e-06
5.20706e-06
5.20729e-06
5.2075e-06
5.20769e-06
5.20787e-06
5.20802e-06
5.20816e-06
5.20828e-06
5.20838e-06
5.20846e-06
5.20853e-06
5.20857e-06
5.2086e-06
5.20861e-06
5.2086e-06
5.20858e-06
5.20853e-06
5.20847e-06
5.20838e-06
5.20827e-06
5.20813e-06
5.20799e-06
5.20786e-06
5.20775e-06
5.2077e-06
5.20771e-06
5.20779e-06
5.20794e-06
5.20816e-06
5.20844e-06
5.20878e-06
5.20917e-06
5.2096e-06
5.21008e-06
5.21059e-06
5.21114e-06
5.21174e-06
5.21237e-06
5.21304e-06
5.21374e-06
5.2145e-06
5.21528e-06
5.21611e-06
5.21698e-06
5.2179e-06
5.20661e-06
5.20678e-06
5.20699e-06
5.2072e-06
5.2074e-06
5.20758e-06
5.20775e-06
5.2079e-06
5.20803e-06
5.20814e-06
5.20824e-06
5.20833e-06
5.2084e-06
5.20845e-06
5.20848e-06
5.20849e-06
5.20849e-06
5.20847e-06
5.20844e-06
5.20838e-06
5.20831e-06
5.2082e-06
5.20808e-06
5.20794e-06
5.20782e-06
5.20772e-06
5.20767e-06
5.20768e-06
5.20775e-06
5.2079e-06
5.20811e-06
5.20838e-06
5.20871e-06
5.20908e-06
5.2095e-06
5.20996e-06
5.21045e-06
5.21099e-06
5.21157e-06
5.21218e-06
5.21283e-06
5.21352e-06
5.21425e-06
5.21502e-06
5.21582e-06
5.21667e-06
5.21756e-06
5.21851e-06
5.20659e-06
5.20675e-06
5.20693e-06
5.20712e-06
5.2073e-06
5.20747e-06
5.20763e-06
5.20777e-06
5.2079e-06
5.20801e-06
5.20811e-06
5.20819e-06
5.20826e-06
5.20832e-06
5.20836e-06
5.20838e-06
5.20838e-06
5.20837e-06
5.20834e-06
5.2083e-06
5.20823e-06
5.20813e-06
5.20802e-06
5.20789e-06
5.20778e-06
5.20768e-06
5.20764e-06
5.20765e-06
5.20772e-06
5.20786e-06
5.20806e-06
5.20832e-06
5.20863e-06
5.20899e-06
5.2094e-06
5.20984e-06
5.21032e-06
5.21084e-06
5.2114e-06
5.212e-06
5.21263e-06
5.2133e-06
5.21401e-06
5.21476e-06
5.21555e-06
5.21637e-06
5.21724e-06
5.21815e-06
5.21912e-06
5.20658e-06
5.20671e-06
5.20687e-06
5.20705e-06
5.20721e-06
5.20737e-06
5.20751e-06
5.20765e-06
5.20777e-06
5.20788e-06
5.20798e-06
5.20806e-06
5.20814e-06
5.20819e-06
5.20823e-06
5.20826e-06
5.20827e-06
5.20827e-06
5.20825e-06
5.20821e-06
5.20815e-06
5.20807e-06
5.20796e-06
5.20784e-06
5.20773e-06
5.20765e-06
5.2076e-06
5.20761e-06
5.20769e-06
5.20782e-06
5.20802e-06
5.20827e-06
5.20857e-06
5.20891e-06
5.2093e-06
5.20973e-06
5.2102e-06
5.21071e-06
5.21125e-06
5.21183e-06
5.21244e-06
5.21309e-06
5.21378e-06
5.21451e-06
5.21528e-06
5.21609e-06
5.21694e-06
5.21782e-06
5.21875e-06
5.21975e-06
5.20657e-06
5.20668e-06
5.20682e-06
5.20697e-06
5.20712e-06
5.20727e-06
5.2074e-06
5.20753e-06
5.20765e-06
5.20775e-06
5.20785e-06
5.20793e-06
5.20801e-06
5.20807e-06
5.20811e-06
5.20814e-06
5.20816e-06
5.20816e-06
5.20815e-06
5.20812e-06
5.20807e-06
5.20799e-06
5.2079e-06
5.20779e-06
5.20769e-06
5.20761e-06
5.20757e-06
5.20758e-06
5.20765e-06
5.20778e-06
5.20797e-06
5.20821e-06
5.20851e-06
5.20884e-06
5.20922e-06
5.20963e-06
5.21009e-06
5.21058e-06
5.2111e-06
5.21166e-06
5.21226e-06
5.21289e-06
5.21357e-06
5.21427e-06
5.21502e-06
5.21581e-06
5.21664e-06
5.21751e-06
5.21841e-06
5.21936e-06
5.22038e-06
5.20656e-06
5.20665e-06
5.20677e-06
5.2069e-06
5.20704e-06
5.20717e-06
5.20729e-06
5.20741e-06
5.20753e-06
5.20763e-06
5.20772e-06
5.20781e-06
5.20788e-06
5.20794e-06
5.20799e-06
5.20803e-06
5.20805e-06
5.20806e-06
5.20805e-06
5.20803e-06
5.20799e-06
5.20792e-06
5.20783e-06
5.20774e-06
5.20764e-06
5.20757e-06
5.20754e-06
5.20755e-06
5.20762e-06
5.20775e-06
5.20793e-06
5.20817e-06
5.20845e-06
5.20877e-06
5.20914e-06
5.20954e-06
5.20998e-06
5.21045e-06
5.21096e-06
5.21151e-06
5.21209e-06
5.2127e-06
5.21336e-06
5.21405e-06
5.21478e-06
5.21555e-06
5.21635e-06
5.2172e-06
5.21809e-06
5.21901e-06
5.21998e-06
5.22102e-06
5.20657e-06
5.20662e-06
5.20672e-06
5.20684e-06
5.20696e-06
5.20708e-06
5.20719e-06
5.2073e-06
5.20741e-06
5.20751e-06
5.2076e-06
5.20768e-06
5.20776e-06
5.20782e-06
5.20787e-06
5.20791e-06
5.20794e-06
5.20796e-06
5.20796e-06
5.20794e-06
5.2079e-06
5.20785e-06
5.20777e-06
5.20768e-06
5.2076e-06
5.20753e-06
5.20751e-06
5.20752e-06
5.2076e-06
5.20772e-06
5.2079e-06
5.20812e-06
5.20839e-06
5.20871e-06
5.20906e-06
5.20945e-06
5.20987e-06
5.21033e-06
5.21083e-06
5.21136e-06
5.21192e-06
5.21252e-06
5.21316e-06
5.21383e-06
5.21454e-06
5.21529e-06
5.21608e-06
5.2169e-06
5.21777e-06
5.21868e-06
5.21962e-06
5.22061e-06
5.22168e-06
5.20658e-06
5.20661e-06
5.20669e-06
5.20678e-06
5.20688e-06
5.20699e-06
5.20709e-06
5.2072e-06
5.2073e-06
5.20739e-06
5.20748e-06
5.20756e-06
5.20763e-06
5.2077e-06
5.20775e-06
5.2078e-06
5.20783e-06
5.20785e-06
5.20786e-06
5.20785e-06
5.20782e-06
5.20777e-06
5.2077e-06
5.20762e-06
5.20755e-06
5.20749e-06
5.20747e-06
5.2075e-06
5.20757e-06
5.20769e-06
5.20786e-06
5.20808e-06
5.20835e-06
5.20865e-06
5.20899e-06
5.20937e-06
5.20978e-06
5.21022e-06
5.2107e-06
5.21122e-06
5.21177e-06
5.21235e-06
5.21297e-06
5.21362e-06
5.21432e-06
5.21505e-06
5.21581e-06
5.21662e-06
5.21747e-06
5.21835e-06
5.21928e-06
5.22024e-06
5.22125e-06
5.22234e-06
5.2066e-06
5.20661e-06
5.20666e-06
5.20674e-06
5.20682e-06
5.20691e-06
5.207e-06
5.2071e-06
5.20719e-06
5.20728e-06
5.20736e-06
5.20744e-06
5.20752e-06
5.20758e-06
5.20764e-06
5.20769e-06
5.20772e-06
5.20775e-06
5.20776e-06
5.20776e-06
5.20774e-06
5.20769e-06
5.20763e-06
5.20756e-06
5.2075e-06
5.20745e-06
5.20744e-06
5.20747e-06
5.20754e-06
5.20766e-06
5.20783e-06
5.20805e-06
5.2083e-06
5.20859e-06
5.20892e-06
5.20929e-06
5.20969e-06
5.21012e-06
5.21058e-06
5.21108e-06
5.21162e-06
5.21218e-06
5.21279e-06
5.21343e-06
5.2141e-06
5.21481e-06
5.21556e-06
5.21635e-06
5.21717e-06
5.21804e-06
5.21895e-06
5.21989e-06
5.22087e-06
5.2219e-06
5.22301e-06
5.20661e-06
5.20662e-06
5.20665e-06
5.2067e-06
5.20677e-06
5.20684e-06
5.20692e-06
5.207e-06
5.20709e-06
5.20717e-06
5.20725e-06
5.20733e-06
5.2074e-06
5.20747e-06
5.20752e-06
5.20758e-06
5.20762e-06
5.20765e-06
5.20766e-06
5.20767e-06
5.20765e-06
5.20761e-06
5.20756e-06
5.2075e-06
5.20745e-06
5.20742e-06
5.20741e-06
5.20744e-06
5.20752e-06
5.20764e-06
5.20781e-06
5.20801e-06
5.20826e-06
5.20854e-06
5.20886e-06
5.20921e-06
5.2096e-06
5.21002e-06
5.21047e-06
5.21096e-06
5.21147e-06
5.21203e-06
5.21261e-06
5.21323e-06
5.21389e-06
5.21459e-06
5.21532e-06
5.21609e-06
5.21689e-06
5.21774e-06
5.21862e-06
5.21955e-06
5.22052e-06
5.22151e-06
5.22257e-06
5.2237e-06
5.20662e-06
5.20664e-06
5.20665e-06
5.20668e-06
5.20673e-06
5.20678e-06
5.20685e-06
5.20692e-06
5.20699e-06
5.20707e-06
5.20714e-06
5.20722e-06
5.20729e-06
5.20735e-06
5.20741e-06
5.20747e-06
5.20751e-06
5.20755e-06
5.20757e-06
5.20757e-06
5.20756e-06
5.20753e-06
5.20749e-06
5.20744e-06
5.2074e-06
5.20738e-06
5.20738e-06
5.20742e-06
5.2075e-06
5.20762e-06
5.20778e-06
5.20798e-06
5.20822e-06
5.2085e-06
5.20881e-06
5.20915e-06
5.20952e-06
5.20993e-06
5.21036e-06
5.21084e-06
5.21134e-06
5.21188e-06
5.21245e-06
5.21305e-06
5.21369e-06
5.21437e-06
5.21508e-06
5.21583e-06
5.21662e-06
5.21745e-06
5.21831e-06
5.21922e-06
5.22016e-06
5.22115e-06
5.22217e-06
5.22324e-06
5.22439e-06
5.20663e-06
5.20667e-06
5.20666e-06
5.20667e-06
5.2067e-06
5.20674e-06
5.20679e-06
5.20684e-06
5.20691e-06
5.20697e-06
5.20704e-06
5.20711e-06
5.20718e-06
5.20725e-06
5.20731e-06
5.20736e-06
5.20741e-06
5.20745e-06
5.20747e-06
5.20748e-06
5.20748e-06
5.20746e-06
5.20742e-06
5.20739e-06
5.20735e-06
5.20734e-06
5.20735e-06
5.2074e-06
5.20748e-06
5.2076e-06
5.20776e-06
5.20796e-06
5.20819e-06
5.20846e-06
5.20875e-06
5.20908e-06
5.20945e-06
5.20984e-06
5.21026e-06
5.21072e-06
5.21121e-06
5.21173e-06
5.21229e-06
5.21288e-06
5.2135e-06
5.21416e-06
5.21486e-06
5.21559e-06
5.21636e-06
5.21717e-06
5.21802e-06
5.2189e-06
5.21983e-06
5.22079e-06
5.2218e-06
5.22283e-06
5.22392e-06
5.22509e-06
5.20664e-06
5.2067e-06
5.2067e-06
5.20669e-06
5.20669e-06
5.20671e-06
5.20674e-06
5.20679e-06
5.20684e-06
5.20689e-06
5.20696e-06
5.20702e-06
5.20708e-06
5.20715e-06
5.20721e-06
5.20726e-06
5.20731e-06
5.20735e-06
5.20738e-06
5.20739e-06
5.20739e-06
5.20738e-06
5.20736e-06
5.20733e-06
5.20731e-06
5.2073e-06
5.20733e-06
5.20738e-06
5.20746e-06
5.20758e-06
5.20774e-06
5.20793e-06
5.20816e-06
5.20842e-06
5.20871e-06
5.20903e-06
5.20938e-06
5.20976e-06
5.21017e-06
5.21061e-06
5.21109e-06
5.21159e-06
5.21214e-06
5.21271e-06
5.21332e-06
5.21396e-06
5.21464e-06
5.21536e-06
5.21611e-06
5.2169e-06
5.21773e-06
5.21859e-06
5.2195e-06
5.22044e-06
5.22143e-06
5.22245e-06
5.22351e-06
5.22462e-06
5.22581e-06
5.20664e-06
5.20672e-06
5.20675e-06
5.20674e-06
5.20672e-06
5.20671e-06
5.20672e-06
5.20675e-06
5.20679e-06
5.20683e-06
5.20688e-06
5.20694e-06
5.207e-06
5.20706e-06
5.20711e-06
5.20717e-06
5.20722e-06
5.20726e-06
5.20729e-06
5.20731e-06
5.20731e-06
5.20731e-06
5.20729e-06
5.20727e-06
5.20727e-06
5.20727e-06
5.2073e-06
5.20736e-06
5.20745e-06
5.20757e-06
5.20773e-06
5.20792e-06
5.20813e-06
5.20838e-06
5.20866e-06
5.20897e-06
5.20931e-06
5.20968e-06
5.21008e-06
5.21051e-06
5.21097e-06
5.21146e-06
5.21199e-06
5.21255e-06
5.21314e-06
5.21377e-06
5.21443e-06
5.21513e-06
5.21587e-06
5.21664e-06
5.21745e-06
5.2183e-06
5.21918e-06
5.22011e-06
5.22107e-06
5.22207e-06
5.22312e-06
5.22419e-06
5.22533e-06
5.22654e-06
5.20665e-06
5.20675e-06
5.20679e-06
5.2068e-06
5.20678e-06
5.20676e-06
5.20674e-06
5.20674e-06
5.20676e-06
5.20679e-06
5.20683e-06
5.20687e-06
5.20692e-06
5.20698e-06
5.20703e-06
5.20708e-06
5.20713e-06
5.20717e-06
5.2072e-06
5.20722e-06
5.20724e-06
5.20724e-06
5.20723e-06
5.20722e-06
5.20723e-06
5.20724e-06
5.20728e-06
5.20735e-06
5.20744e-06
5.20756e-06
5.20772e-06
5.2079e-06
5.20811e-06
5.20835e-06
5.20862e-06
5.20892e-06
5.20925e-06
5.20961e-06
5.20999e-06
5.21041e-06
5.21086e-06
5.21134e-06
5.21185e-06
5.2124e-06
5.21297e-06
5.21359e-06
5.21423e-06
5.21492e-06
5.21563e-06
5.21639e-06
5.21718e-06
5.21801e-06
5.21888e-06
5.21978e-06
5.22073e-06
5.22171e-06
5.22273e-06
5.2238e-06
5.22489e-06
5.22605e-06
5.22727e-06
5.20666e-06
5.20677e-06
5.20683e-06
5.20686e-06
5.20685e-06
5.20683e-06
5.2068e-06
5.20677e-06
5.20676e-06
5.20677e-06
5.20679e-06
5.20683e-06
5.20687e-06
5.20691e-06
5.20696e-06
5.20701e-06
5.20705e-06
5.20709e-06
5.20712e-06
5.20715e-06
5.20716e-06
5.20717e-06
5.20717e-06
5.20718e-06
5.20719e-06
5.20722e-06
5.20727e-06
5.20734e-06
5.20743e-06
5.20756e-06
5.20771e-06
5.20789e-06
5.20809e-06
5.20833e-06
5.20859e-06
5.20888e-06
5.20919e-06
5.20954e-06
5.20991e-06
5.21032e-06
5.21075e-06
5.21122e-06
5.21172e-06
5.21225e-06
5.21281e-06
5.21341e-06
5.21404e-06
5.21471e-06
5.21541e-06
5.21615e-06
5.21692e-06
5.21773e-06
5.21858e-06
5.21947e-06
5.22039e-06
5.22136e-06
5.22236e-06
5.2234e-06
5.22449e-06
5.2256e-06
5.22678e-06
5.22802e-06
5.20667e-06
5.2068e-06
5.20687e-06
5.20691e-06
5.20692e-06
5.20691e-06
5.20689e-06
5.20685e-06
5.20681e-06
5.20679e-06
5.20679e-06
5.2068e-06
5.20683e-06
5.20686e-06
5.2069e-06
5.20694e-06
5.20698e-06
5.20702e-06
5.20705e-06
5.20708e-06
5.2071e-06
5.20712e-06
5.20713e-06
5.20714e-06
5.20717e-06
5.2072e-06
5.20726e-06
5.20733e-06
5.20743e-06
5.20756e-06
5.2077e-06
5.20788e-06
5.20808e-06
5.2083e-06
5.20856e-06
5.20883e-06
5.20914e-06
5.20948e-06
5.20984e-06
5.21023e-06
5.21065e-06
5.21111e-06
5.21159e-06
5.21211e-06
5.21266e-06
5.21324e-06
5.21386e-06
5.21451e-06
5.21519e-06
5.21591e-06
5.21667e-06
5.21747e-06
5.2183e-06
5.21916e-06
5.22007e-06
5.22102e-06
5.222e-06
5.22302e-06
5.22409e-06
5.22519e-06
5.22633e-06
5.22752e-06
5.22879e-06
5.20667e-06
5.20682e-06
5.20691e-06
5.20696e-06
5.20699e-06
5.20699e-06
5.20698e-06
5.20695e-06
5.2069e-06
5.20686e-06
5.20683e-06
5.20682e-06
5.20682e-06
5.20684e-06
5.20687e-06
5.2069e-06
5.20693e-06
5.20697e-06
5.207e-06
5.20703e-06
5.20705e-06
5.20707e-06
5.20709e-06
5.20712e-06
5.20715e-06
5.20719e-06
5.20725e-06
5.20733e-06
5.20744e-06
5.20756e-06
5.2077e-06
5.20787e-06
5.20807e-06
5.20828e-06
5.20853e-06
5.2088e-06
5.20909e-06
5.20942e-06
5.20977e-06
5.21015e-06
5.21056e-06
5.211e-06
5.21147e-06
5.21197e-06
5.21251e-06
5.21308e-06
5.21368e-06
5.21431e-06
5.21498e-06
5.21569e-06
5.21643e-06
5.21721e-06
5.21802e-06
5.21887e-06
5.21976e-06
5.22069e-06
5.22165e-06
5.22265e-06
5.2237e-06
5.22478e-06
5.22591e-06
5.22706e-06
5.22828e-06
5.22956e-06
5.20668e-06
5.20684e-06
5.20695e-06
5.20702e-06
5.20705e-06
5.20707e-06
5.20707e-06
5.20705e-06
5.20701e-06
5.20696e-06
5.2069e-06
5.20686e-06
5.20685e-06
5.20684e-06
5.20686e-06
5.20688e-06
5.2069e-06
5.20693e-06
5.20696e-06
5.20699e-06
5.20701e-06
5.20704e-06
5.20707e-06
5.2071e-06
5.20714e-06
5.20719e-06
5.20726e-06
5.20734e-06
5.20744e-06
5.20756e-06
5.20771e-06
5.20787e-06
5.20806e-06
5.20827e-06
5.2085e-06
5.20876e-06
5.20905e-06
5.20936e-06
5.2097e-06
5.21007e-06
5.21047e-06
5.2109e-06
5.21136e-06
5.21185e-06
5.21237e-06
5.21292e-06
5.21351e-06
5.21413e-06
5.21478e-06
5.21547e-06
5.2162e-06
5.21696e-06
5.21775e-06
5.21859e-06
5.21946e-06
5.22036e-06
5.22131e-06
5.2223e-06
5.22332e-06
5.22438e-06
5.22549e-06
5.22664e-06
5.22781e-06
5.22905e-06
5.23035e-06
5.20669e-06
5.20687e-06
5.20699e-06
5.20707e-06
5.20712e-06
5.20715e-06
5.20715e-06
5.20714e-06
5.20712e-06
5.20707e-06
5.20702e-06
5.20695e-06
5.20691e-06
5.20688e-06
5.20687e-06
5.20688e-06
5.20689e-06
5.20691e-06
5.20694e-06
5.20696e-06
5.20699e-06
5.20702e-06
5.20705e-06
5.20709e-06
5.20714e-06
5.2072e-06
5.20727e-06
5.20735e-06
5.20745e-06
5.20757e-06
5.20771e-06
5.20787e-06
5.20805e-06
5.20826e-06
5.20848e-06
5.20873e-06
5.20901e-06
5.20931e-06
5.20964e-06
5.21e-06
5.21039e-06
5.2108e-06
5.21125e-06
5.21172e-06
5.21223e-06
5.21277e-06
5.21334e-06
5.21395e-06
5.21459e-06
5.21526e-06
5.21597e-06
5.21672e-06
5.2175e-06
5.21831e-06
5.21916e-06
5.22005e-06
5.22098e-06
5.22195e-06
5.22295e-06
5.224e-06
5.22508e-06
5.2262e-06
5.22737e-06
5.22857e-06
5.22983e-06
5.23115e-06
5.2067e-06
5.20689e-06
5.20702e-06
5.20712e-06
5.20718e-06
5.20722e-06
5.20723e-06
5.20723e-06
5.20721e-06
5.20718e-06
5.20713e-06
5.20707e-06
5.207e-06
5.20695e-06
5.20692e-06
5.20691e-06
5.20691e-06
5.20692e-06
5.20694e-06
5.20696e-06
5.20699e-06
5.20702e-06
5.20706e-06
5.2071e-06
5.20715e-06
5.20721e-06
5.20728e-06
5.20737e-06
5.20747e-06
5.20759e-06
5.20772e-06
5.20788e-06
5.20805e-06
5.20825e-06
5.20847e-06
5.20871e-06
5.20897e-06
5.20927e-06
5.20959e-06
5.20993e-06
5.21031e-06
5.21071e-06
5.21114e-06
5.21161e-06
5.2121e-06
5.21263e-06
5.21319e-06
5.21378e-06
5.2144e-06
5.21506e-06
5.21575e-06
5.21648e-06
5.21725e-06
5.21805e-06
5.21888e-06
5.21975e-06
5.22066e-06
5.22161e-06
5.2226e-06
5.22362e-06
5.22469e-06
5.22579e-06
5.22694e-06
5.22813e-06
5.22934e-06
5.23062e-06
5.23196e-06
5.2067e-06
5.20691e-06
5.20706e-06
5.20717e-06
5.20724e-06
5.20729e-06
5.20731e-06
5.20732e-06
5.20731e-06
5.20728e-06
5.20724e-06
5.20719e-06
5.20712e-06
5.20705e-06
5.207e-06
5.20697e-06
5.20696e-06
5.20696e-06
5.20697e-06
5.20698e-06
5.20701e-06
5.20704e-06
5.20707e-06
5.20712e-06
5.20717e-06
5.20723e-06
5.20731e-06
5.20739e-06
5.20749e-06
5.20761e-06
5.20774e-06
5.20788e-06
5.20805e-06
5.20824e-06
5.20845e-06
5.20868e-06
5.20894e-06
5.20922e-06
5.20953e-06
5.20987e-06
5.21023e-06
5.21062e-06
5.21104e-06
5.2115e-06
5.21198e-06
5.21249e-06
5.21303e-06
5.21361e-06
5.21422e-06
5.21487e-06
5.21554e-06
5.21626e-06
5.217e-06
5.21779e-06
5.21861e-06
5.21946e-06
5.22035e-06
5.22129e-06
5.22225e-06
5.22326e-06
5.2243e-06
5.22539e-06
5.22651e-06
5.22768e-06
5.22889e-06
5.23013e-06
5.23143e-06
5.23279e-06
5.20671e-06
5.20693e-06
5.20709e-06
5.20721e-06
5.2073e-06
5.20736e-06
5.20739e-06
5.20741e-06
5.2074e-06
5.20738e-06
5.20735e-06
5.2073e-06
5.20725e-06
5.20717e-06
5.20711e-06
5.20706e-06
5.20703e-06
5.20701e-06
5.20701e-06
5.20702e-06
5.20704e-06
5.20707e-06
5.20711e-06
5.20715e-06
5.2072e-06
5.20726e-06
5.20734e-06
5.20742e-06
5.20752e-06
5.20763e-06
5.20775e-06
5.2079e-06
5.20806e-06
5.20824e-06
5.20844e-06
5.20866e-06
5.20891e-06
5.20919e-06
5.20948e-06
5.20981e-06
5.21016e-06
5.21054e-06
5.21095e-06
5.21139e-06
5.21186e-06
5.21236e-06
5.21289e-06
5.21345e-06
5.21405e-06
5.21468e-06
5.21534e-06
5.21604e-06
5.21677e-06
5.21754e-06
5.21834e-06
5.21918e-06
5.22006e-06
5.22097e-06
5.22192e-06
5.22291e-06
5.22393e-06
5.225e-06
5.2261e-06
5.22725e-06
5.22844e-06
5.22967e-06
5.23093e-06
5.23225e-06
5.23363e-06
5.20672e-06
5.20695e-06
5.20713e-06
5.20726e-06
5.20736e-06
5.20743e-06
5.20747e-06
5.20749e-06
5.20749e-06
5.20748e-06
5.20745e-06
5.20741e-06
5.20736e-06
5.2073e-06
5.20722e-06
5.20716e-06
5.20712e-06
5.20709e-06
5.20708e-06
5.20708e-06
5.20709e-06
5.20712e-06
5.20715e-06
5.20719e-06
5.20724e-06
5.2073e-06
5.20737e-06
5.20745e-06
5.20754e-06
5.20765e-06
5.20777e-06
5.20791e-06
5.20806e-06
5.20824e-06
5.20843e-06
5.20865e-06
5.20889e-06
5.20915e-06
5.20944e-06
5.20975e-06
5.21009e-06
5.21046e-06
5.21086e-06
5.21129e-06
5.21174e-06
5.21223e-06
5.21275e-06
5.2133e-06
5.21388e-06
5.2145e-06
5.21515e-06
5.21583e-06
5.21654e-06
5.2173e-06
5.21808e-06
5.21891e-06
5.21976e-06
5.22066e-06
5.22159e-06
5.22256e-06