/*--------------------------------*- C++ -*----------------------------------*\
  =========                 |
  \\      /  F ield         | OpenFOAM: The Open Source CFD Toolbox
   \\    /   O peration     | Website:  https://openfoam.org
    \\  /    A nd           | Version:  7
     \\/     M anipulation  |
\*---------------------------------------------------------------------------*/
FoamFile
{
    version     2.0;
    format      ascii;
    class       volScalarField;
    location    "600";
    object      p;
}
// * * * * * * * * * * * * * * * * * * * * * * * * * * * * * * * * * * * * * //

dimensions      [0 2 -2 0 0 0 0];

internalField   nonuniform List<scalar> 
23052
(
14.1906
14.5428
10.75
14.9716
11.5178
11.8555
15.4156
12.1684
12.2706
13.2232
15.8655
12.7649
12.7114
13.6923
14.055
14.6011
16.309
13.327
13.1561
14.1446
14.5157
15.0384
15.643
16.4536
16.7406
13.8658
13.596
14.5866
14.967
15.4731
16.0795
16.6756
17.5492
17.1572
14.3865
14.0288
15.0182
15.4095
15.9008
16.5099
17.1177
17.7668
18.6858
17.5589
14.8907
14.4533
15.4395
15.8415
16.3213
16.931
17.5496
18.2095
18.9029
19.8924
17.9435
15.3797
14.8689
15.8498
16.2631
16.7329
17.3433
17.9703
18.6398
19.3529
20.1057
21.1681
18.3108
15.853
15.2757
16.2489
16.6738
17.1351
17.7455
18.3801
19.0585
19.7858
20.5606
21.3779
22.529
18.6626
16.311
15.6731
16.6365
17.0733
17.5271
18.1373
18.7782
19.465
20.2056
20.9952
21.839
22.7334
23.9786
18.9964
16.7536
16.061
17.0125
17.4611
17.9086
18.5179
19.1648
19.8587
20.611
21.4161
22.2757
23.199
24.177
25.5271
19.3146
17.1802
16.4393
17.3766
17.8371
18.279
18.8874
19.5393
20.2399
21.0023
21.8211
22.6979
23.6366
24.6466
25.7176
27.1794
19.6169
17.591
16.8075
17.7289
18.2009
18.6381
19.2452
19.9016
20.6082
21.3796
22.2105
23.1024
24.0594
25.0842
26.1895
27.361
28.9422
19.9024
17.9856
17.1655
18.0693
18.5526
18.9857
19.5912
20.2518
20.9636
21.7428
22.5848
23.4902
24.4629
25.5069
26.6256
27.8336
29.1134
30.8203
20.173
18.3641
17.5128
18.3976
18.8917
19.3217
19.9252
20.5894
21.306
22.0922
22.9439
23.8614
24.8485
25.9086
27.0469
28.2667
29.5847
30.9798
32.8184
20.4296
18.7268
17.8494
18.714
19.2182
19.6458
20.2471
20.9145
21.6353
22.4276
23.2881
24.2165
25.2165
26.2914
27.4457
28.685
30.0129
31.4478
32.9647
34.9402
20.6709
19.0733
18.175
19.0185
19.5322
19.9579
20.5569
21.2269
21.9514
22.7492
23.6174
24.5556
25.5672
26.6555
27.8247
29.0796
30.4267
31.869
33.4272
35.072
37.1889
20.897
19.4038
18.4893
19.311
19.8336
20.2579
20.8544
21.5267
22.2547
23.0571
23.9322
24.8791
25.9011
27.0014
28.1839
29.4535
30.8155
32.2765
33.8394
35.5267
37.3049
39.5669
21.1104
19.7182
18.7923
19.5915
20.1224
20.5459
21.1396
21.8139
22.5448
23.3513
24.2325
25.1872
26.2184
27.3295
28.5241
29.8068
31.1829
32.6578
34.2386
35.9277
37.7493
39.6657
42.0758
21.3104
20.0173
19.0839
19.8603
20.3985
20.8218
21.4126
22.0885
22.822
23.6321
24.5186
25.4801
26.5196
27.6404
28.8458
30.1403
31.5289
33.0171
34.6105
36.3165
38.137
40.0975
42.1565
44.7169
21.4963
20.3008
19.3641
20.1172
20.6621
21.0855
21.6735
22.3505
23.0863
23.8994
24.7905
25.7581
26.805
27.9343
29.1494
30.4544
31.8543
33.3543
34.96
36.6771
38.5133
40.4695
42.5732
44.7783
47.4905
21.6695
20.5687
19.6325
20.3624
20.9132
21.3371
21.9222
22.6001
23.3378
24.1534
25.0486
26.0214
27.0747
28.2116
29.4353
30.7498
32.1598
33.6703
35.2868
37.015
38.8606
40.8312
42.9273
45.1775
47.5316
50.3963
21.8314
20.8215
19.8893
20.5959
21.1519
21.5766
22.1588
22.8371
23.5765
24.3943
25.2928
26.2703
27.3293
28.4728
29.7041
31.027
32.4459
33.9658
35.5918
37.3296
39.1849
41.1632
43.2722
45.5114
47.9109
50.4163
53.4335
21.9805
21.0596
20.1346
20.8179
21.3783
21.8042
22.3835
23.062
23.8026
24.6221
25.5235
26.5049
27.5688
28.7182
29.9562
31.2864
32.7133
34.2414
35.8758
37.6221
39.4855
41.472
43.5868
45.8374
48.2225
50.7734
53.4317
56.6005
22.1184
21.2828
20.3683
21.0286
21.5926
22.0199
22.5962
23.2746
24.0163
24.8371
25.7408
26.7256
27.7937
28.9481
30.1919
31.5285
32.9623
34.4976
36.1395
37.8931
39.7637
41.7569
43.8782
46.1326
48.5275
51.0607
53.7643
56.5762
59.8954
22.245
21.4917
20.5904
21.228
21.7949
22.2238
22.7971
23.4752
24.2176
25.0393
25.9449
26.9325
28.0041
29.1629
30.4116
31.7538
33.1935
34.7352
36.3834
38.1433
40.0201
42.019
44.1454
46.4047
48.8014
51.3427
54.0255
56.8825
59.8482
63.3155
22.3606
21.6867
20.8011
21.4162
21.9853
22.416
22.9863
23.6638
24.4067
25.229
26.136
27.1258
28.2004
29.3628
30.6157
31.9626
33.4074
34.9545
36.6082
38.3735
40.2554
42.2591
44.3897
46.6524
49.0523
51.5933
54.2825
57.1157
60.1262
63.2453
66.858
22.4661
21.8678
21.0003
21.5936
22.164
22.5966
23.1641
23.8406
24.5837
25.4064
26.3143
27.3059
28.3828
29.5481
30.8045
32.1554
33.6045
35.156
36.8143
38.5842
40.4704
42.478
44.6119
46.8773
49.2788
51.8212
54.5082
57.346
60.3298
63.4932
66.7646
70.5195
22.5609
22.0356
21.1883
21.76
22.3313
22.7658
23.3305
24.0058
24.7489
25.5716
26.4801
27.4729
28.5516
29.7192
30.9784
32.3326
33.7852
35.3403
37.0024
38.7759
40.6656
42.6762
44.8128
47.0799
49.4824
52.0248
54.7113
57.5451
60.5319
63.666
66.9811
70.403
74.2967
22.6465
22.19
21.365
21.9158
22.4872
22.9237
23.4857
24.1596
24.9024
25.7248
26.6334
27.627
28.707
29.8763
31.1378
32.4944
33.9498
35.5079
37.173
38.9493
40.8416
42.8545
44.9927
47.261
49.6638
52.2056
54.8904
57.722
60.7028
63.8386
67.1219
70.5871
74.1572
78.1857
22.7224
22.3318
21.5306
22.0611
22.6319
23.0707
23.6297
24.302
25.0444
25.8662
26.7746
27.7686
28.8493
30.0198
31.2828
32.6413
34.0988
35.6591
37.3264
39.1048
40.999
43.0134
45.1527
47.4213
49.8237
52.3642
55.0468
57.8749
60.8521
63.98
67.2637
70.695
74.3079
78.0236
82.1825
22.789
22.4611
21.6854
22.1961
22.7658
23.2066
23.763
24.4334
25.175
25.996
26.9039
27.8977
28.9788
30.1499
31.4139
32.7736
34.2325
35.7944
37.4631
39.243
41.1383
43.1534
45.293
47.5613
49.9627
52.5014
55.1812
58.0056
60.9777
64.1003
67.3745
70.8049
74.3823
78.1403
81.9985
86.2833
22.8466
22.5783
21.8293
22.321
22.889
23.3319
23.8856
24.5539
25.2945
26.1144
27.0214
28.0147
29.0956
30.2669
31.5313
32.8917
34.3514
35.9141
37.5837
39.3642
41.26
43.2753
45.4144
47.6817
50.0815
52.6177
55.2942
58.1143
61.0812
64.1972
67.4648
70.8843
74.4596
78.1807
82.0808
86.0783
90.4847
22.8961
22.6836
21.9626
22.4359
23.0016
23.4466
23.9976
24.6637
25.403
26.2216
27.1273
28.1199
29.2001
30.3711
31.6353
32.9958
34.4557
36.0186
37.6884
39.469
41.3645
43.3793
45.5174
47.7831
50.1808
52.7139
55.3865
58.2019
61.163
64.2724
67.532
70.9437
74.507
78.2251
82.0873
86.1262
90.2595
94.783
22.9374
22.7775
22.0855
22.5411
23.104
23.5509
24.0993
24.763
25.5009
26.3178
27.222
28.2133
29.2926
30.4627
31.7263
33.0863
34.5458
36.1084
37.7777
39.5577
41.4525
43.466
45.6025
47.8661
50.2608
52.7905
55.4588
58.2689
61.224
64.3263
67.5781
70.9805
74.5348
78.2399
82.0986
86.099
90.2732
94.5385
99.1745
22.9709
22.8602
22.1981
22.6367
23.1963
23.6451
24.191
24.852
25.5882
26.4033
27.3056
28.2953
29.3732
30.542
31.8045
33.1635
34.622
36.1837
37.852
39.6308
41.524
43.5358
45.6701
47.931
50.3223
52.848
55.5115
58.316
61.2645
64.3596
67.603
70.9964
74.5406
78.2359
82.0806
86.0771
90.2126
94.5185
98.912
103.657
22.9965
22.9321
22.3006
22.723
23.2789
23.7294
24.2727
24.9309
25.6652
26.4782
27.3784
28.3661
29.4422
30.6093
31.8703
33.2277
34.6848
36.2449
37.9116
39.6887
41.5799
43.5893
45.7208
47.9783
50.3658
52.8869
55.5451
58.3436
61.2853
64.3726
67.6077
70.9917
74.5258
78.2101
82.0444
86.0265
90.158
94.4254
98.8594
103.378
108.227
23.0147
22.9937
22.3932
22.8001
23.3518
23.8039
24.3447
24.9999
25.7321
26.5428
27.4406
28.426
29.4999
30.6649
31.9238
33.2792
34.7343
36.2923
37.9569
39.7316
41.6203
43.6267
45.7549
48.0086
50.3917
52.9078
55.5603
58.3524
61.2868
64.3661
67.5923
70.9669
74.4907
78.1642
81.9869
85.9581
90.0749
94.3385
98.7348
103.293
107.932
112.883
23.026
23.045
22.4761
22.8683
23.4154
23.8689
24.4072
25.0593
25.7891
26.5973
27.4924
28.4752
29.5465
30.709
31.9654
33.3183
34.7709
36.3264
37.9882
39.7601
41.6456
43.6486
45.7729
48.0223
50.4005
52.9111
55.5574
58.3426
61.2695
64.3405
67.5576
70.9224
74.4359
78.0984
81.9097
85.869
89.9748
94.2238
98.6162
103.138
107.817
112.574
117.624
23.031
23.0865
22.5495
22.9277
23.4698
23.9247
24.4605
25.1092
25.8365
26.6419
27.534
28.5139
29.5823
30.7419
31.9953
33.3453
34.7949
36.3473
38.0059
39.7744
41.6562
43.6552
45.7751
48.0197
50.3925
52.8972
55.537
58.3149
61.2339
64.2963
67.5041
70.8589
74.3617
78.0131
81.8129
85.7605
89.8542
94.0922
98.4706
102.989
107.633
112.431
117.302
122.448
23.0287
23.1187
22.6137
22.9786
23.5154
23.9714
24.5047
25.15
25.8744
26.6769
27.5658
28.5424
29.6075
30.7638
32.0139
33.3605
34.8066
36.3554
38.0104
39.7748
41.6525
43.647
45.762
48.0012
50.3682
52.8665
55.4992
58.2697
61.1803
64.2339
67.4321
70.7766
74.2688
77.9089
81.697
85.6327
89.7147
93.9406
98.3084
102.813
107.455
112.219
117.131
122.114
127.354
23.02
23.1416
22.6687
23.0212
23.5523
24.0092
24.54
25.1817
25.9032
26.7025
27.5878
28.5609
29.6224
30.775
32.0213
33.3641
34.8063
36.3511
38.0018
39.7618
41.6348
43.6242
45.7339
47.9673
50.328
52.8194
55.4448
58.2072
61.1093
64.1535
67.342
70.6762
74.1574
77.7861
81.5626
85.4862
89.556
93.7703
98.1263
102.622
107.251
112.013
116.894
121.918
127.011
132.342
23.0055
23.1557
22.7149
23.0557
23.5808
24.0384
24.5667
25.2047
25.923
26.7188
27.6005
28.5696
29.6273
30.7758
32.018
33.3565
34.7943
36.3346
37.9806
39.7357
41.6034
43.5874
45.6911
47.9183
50.2722
52.7563
55.3739
58.128
61.0211
64.0558
67.2341
70.5577
74.0278
77.6451
81.4097
85.3215
89.3791
93.5814
97.926
102.41
107.03
111.782
116.662
121.658
126.792
131.991
137.414
22.9856
23.1613
22.7525
23.0822
23.6012
24.0593
24.585
25.2192
25.934
26.7263
27.6039
28.5689
29.6223
30.7664
32.004
33.3379
34.7709
36.3062
37.947
39.6967
41.5587
43.5367
45.6341
47.8544
50.2012
52.6777
55.287
58.0323
60.9162
63.9411
67.109
70.4218
73.8805
77.4861
81.2387
85.1384
89.184
93.3744
97.7073
102.18
106.79
111.534
116.405
121.401
126.509
131.751
137.057
142.57
22.9596
23.1588
22.7816
23.1011
23.6135
24.0719
24.5952
25.2253
25.9366
26.725
27.5984
28.559
29.6077
30.7471
31.9798
33.3086
34.7364
36.2662
37.9013
39.6452
41.5011
43.4726
45.5631
47.7762
50.1153
52.5837
55.1845
57.9206
60.7948
63.8096
66.967
70.2686
73.7158
77.3095
81.0501
84.9374
88.9709
93.1492
97.4706
101.933
106.532
111.266
116.131
121.119
126.23
131.45
136.797
142.207
147.811
22.9282
23.1484
22.8026
23.1125
23.6182
24.0767
24.5974
25.2234
25.9308
26.7152
27.5841
28.54
29.5839
30.7181
31.9455
33.2689
34.6909
36.2149
37.844
39.5814
41.4307
43.3953
45.4785
47.684
50.0149
52.4747
55.0665
57.7931
60.6574
63.6617
66.8081
70.0983
73.5339
77.1156
80.844
84.719
88.7401
92.9063
97.2159
101.667
106.257
110.981
115.838
120.821
125.926
131.15
136.479
141.932
147.445
153.139
22.892
23.1303
22.8155
23.1165
23.6154
24.0737
24.5918
25.2136
25.917
26.6972
27.5613
28.5123
29.551
30.6797
31.9015
33.219
34.635
36.1526
37.7751
39.5058
41.348
43.3051
45.3806
47.5779
49.9003
52.3512
54.9335
57.6502
60.5041
63.4976
66.6328
69.9116
73.3351
76.9046
80.6207
84.4832
88.4919
92.6459
96.9437
101.384
105.963
110.678
115.527
120.504
125.606
130.825
136.161
141.598
147.155
152.771
158.556
22.8505
23.1051
22.8206
23.1135
23.6053
24.0632
24.5787
25.1962
25.8954
26.6711
27.5303
28.476
29.5092
30.6322
31.848
33.1592
34.5687
36.0796
37.6952
39.4186
41.2531
43.2024
45.2697
47.4584
49.7718
52.2133
54.7858
57.4923
60.3355
63.3179
66.4416
69.7084
73.1198
76.6769
80.3802
84.2302
88.2263
92.3681
96.6541
101.082
105.651
110.358
115.198
120.169
125.265
130.484
135.818
141.264
146.809
152.47
158.188
164.066
22.8042
23.0728
22.8182
23.1036
23.5882
24.0455
24.5583
25.1713
25.8662
26.6373
27.4913
28.4315
29.4589
30.5758
31.7852
33.0898
34.4924
35.9962
37.6043
39.32
41.1466
43.0875
45.1461
47.3257
49.6297
52.0613
54.6236
57.3195
60.1516
63.1226
66.2345
69.489
72.8881
76.4325
80.1231
83.9602
87.9437
92.073
96.3471
100.764
105.322
110.019
114.851
119.815
124.907
130.123
135.457
140.904
146.461
152.113
157.878
163.699
169.67
22.7533
23.0338
22.8085
23.087
23.5644
24.0207
24.5308
25.1393
25.8296
26.5959
27.4445
28.3789
29.4002
30.5108
31.7135
33.011
34.4064
35.9026
37.5028
39.2104
41.0285
42.9606
45.01
47.1802
49.4744
51.8957
54.4473
57.1321
59.9529
62.912
66.0118
69.2541
72.6403
76.1718
79.8495
83.6736
87.6441
91.7609
96.0228
100.428
104.976
109.663
114.487
119.444
124.531
129.743
135.077
140.527
146.087
151.753
157.514
163.382
169.306
175.372
22.6979
22.9884
22.7916
23.0639
23.5339
23.9891
24.4965
25.1003
25.7858
26.5471
27.3902
28.3185
29.3335
30.4374
31.633
32.9232
34.3109
35.7991
37.3911
39.09
40.8992
42.8221
44.862
47.0221
49.306
51.7167
54.2572
56.9306
59.7395
62.6865
65.7737
69.0033
72.3766
75.8951
79.5595
83.3705
87.3281
91.4321
95.6816
100.075
104.612
109.289
114.104
119.054
124.136
129.345
134.678
140.129
145.694
151.367
157.144
163.012
168.986
175.013
181.176
22.6382
22.9368
22.7679
23.0346
23.4971
23.9509
24.4555
25.0546
25.7352
26.4913
27.3285
28.2506
29.259
30.3558
31.544
32.8265
34.2062
35.686
37.2693
38.9592
40.7591
42.6722
44.7021
46.8519
49.1249
51.5245
54.0536
56.7151
59.5119
62.4463
65.5207
68.7371
72.0973
75.6022
79.2534
83.0509
86.9954
91.0864
95.3234
99.7054
104.231
108.898
113.704
118.647
123.723
128.928
134.26
139.713
145.281
150.962
156.748
162.636
168.612
174.69
180.823
187.083
22.5744
22.8793
22.7374
22.9991
23.4541
23.9064
24.4081
25.0023
25.6779
26.4286
27.2598
28.1754
29.1768
30.2663
31.4469
32.7213
34.0925
35.5636
37.1378
38.8182
40.6083
42.5113
44.5306
46.6697
48.9315
51.3195
53.8367
56.4859
59.2701
62.1916
65.2529
68.456
71.8025
75.2939
78.9313
82.7152
86.6461
90.7241
94.9484
99.3184
103.833
108.489
113.287
118.222
123.292
128.494
133.823
139.276
144.849
150.536
156.332
162.232
168.23
174.317
180.501
186.738
193.098
22.5068
22.8161
22.7005
22.9577
23.4053
23.8557
24.3545
24.9438
25.6141
26.3592
27.1843
28.0931
29.0873
30.1693
31.3418
32.6078
33.9702
35.4322
36.9968
38.6674
40.4472
42.3397
44.3481
46.4757
48.726
51.1019
53.6068
56.2433
59.0145
61.9228
64.9706
68.1598
71.4926
74.9699
78.5933
82.3634
86.2807
90.3453
94.5568
98.9144
103.417
108.063
112.852
117.779
122.843
128.04
133.368
138.821
144.396
150.09
155.895
161.808
167.821
173.932
180.128
186.42
192.763
199.223
22.4353
22.7476
22.6573
22.9106
23.3507
23.7991
24.2948
24.8791
25.544
26.2834
27.1021
28.0039
28.9908
30.0648
31.229
32.4863
33.8395
35.2919
36.8466
38.5069
40.2761
42.1575
44.1545
46.2704
48.5086
50.8721
53.3641
55.9876
58.7453
61.64
64.6739
67.8491
71.1674
74.6306
78.2398
81.9957
85.8991
89.95
94.1485
98.4936
102.985
107.62
112.399
117.318
122.375
127.568
132.893
138.346
143.924
149.622
155.436
161.361
167.391
173.52
179.744
186.051
192.45
198.901
205.464
22.3602
22.674
22.6081
22.858
23.2906
23.7367
24.2294
24.8086
25.468
26.2015
27.0135
27.9082
28.8873
29.9532
31.1088
32.3569
33.7007
35.1432
36.6875
38.3371
40.0952
41.9651
43.9503
46.054
48.2796
50.6302
53.1091
55.719
58.463
61.3434
64.363
67.5239
70.8276
74.2763
77.8708
81.6122
85.5015
89.5385
93.7236
98.0562
102.535
107.16
111.929
116.839
121.89
127.077
132.399
137.852
143.432
149.135
154.956
160.892
166.937
173.086
179.331
185.669
192.089
198.596
205.155
211.821
22.2814
22.5954
22.553
22.8001
23.2252
23.6688
24.1584
24.7325
25.3861
26.1135
26.9188
27.8061
28.7773
29.8347
30.9813
32.2201
33.554
34.9861
36.5198
38.1583
39.9048
41.7628
43.7357
45.8268
48.0394
50.3766
52.8418
55.4377
58.1675
61.0335
64.0384
67.1844
70.4732
73.9068
77.4865
81.2133
85.088
89.1109
93.2822
97.6018
102.069
106.682
111.441
116.343
121.386
126.568
131.887
137.339
142.92
148.627
154.456
160.402
166.461
172.627
178.895
185.258
191.711
198.244
204.861
211.528
218.298
22.1993
22.5122
22.4924
22.7369
23.1548
23.5956
24.082
24.6508
25.2987
26.0198
26.8181
27.6978
28.6608
29.7095
30.8469
32.076
33.3997
34.8211
36.3437
37.9706
39.7052
41.5509
43.5111
45.589
47.7881
50.1116
52.5626
55.1442
57.8593
60.7103
63.7001
66.8308
70.1043
73.5226
77.087
80.7987
84.6586
88.6671
92.8246
97.1307
101.585
106.187
110.935
115.828
120.864
126.041
131.356
136.806
142.388
148.098
153.934
159.89
165.962
172.145
178.434
184.822
191.304
197.874
204.52
211.248
218.024
224.898
22.114
22.4246
22.4262
22.6689
23.0794
23.5174
24.0004
24.564
25.2058
25.9206
26.7118
27.5836
28.5382
29.578
30.7059
31.9248
33.2379
34.6484
36.1595
37.7745
39.4967
41.3296
43.2766
45.341
47.5262
49.8354
52.2718
54.8385
57.5384
60.3741
63.3484
66.4634
69.7212
73.1238
76.6726
80.3689
84.2136
88.2075
92.3506
96.6432
101.085
105.675
110.413
115.296
120.324
125.495
130.805
136.253
141.836
147.549
153.391
159.356
165.44
171.639
177.948
184.36
190.87
197.473
204.16
210.921
217.759
224.643
231.623
22.0255
22.3327
22.3549
22.596
22.9993
23.4342
23.9138
24.4721
25.1078
25.816
26.5999
27.4637
28.4097
29.4403
30.5583
31.7669
33.0692
34.4683
35.9674
37.5701
39.2796
41.0993
43.0326
45.083
47.2538
49.5483
51.9697
54.521
57.2053
60.0252
62.9835
66.0824
69.3242
72.7106
76.2434
79.9238
83.753
87.7317
91.8603
96.139
100.568
105.146
109.872
114.746
119.766
124.93
130.236
135.682
141.264
146.98
152.827
158.8
164.896
171.11
177.437
183.873
190.41
197.044
203.767
210.573
217.45
224.399
231.391
238.475
21.9339
22.2368
22.2785
22.5185
22.9148
23.3463
23.8225
24.3753
25.0049
25.7063
26.4828
27.3384
28.2755
29.2966
30.4046
31.6025
32.8936
34.2809
35.7678
37.3577
39.054
40.8601
42.7794
44.8153
46.9712
49.2505
51.6565
54.192
56.8601
59.6638
62.6057
65.6881
68.9132
72.2831
75.7995
79.4637
83.2769
87.2404
91.3538
95.6184
100.034
104.599
109.314
114.178
119.19
124.347
129.647
135.09
140.672
146.39
152.241
158.222
164.329
170.557
176.903
183.359
189.924
196.588
203.347
210.192
217.116
224.109
231.169
238.27
245.455
21.8395
22.1372
22.1974
22.4365
22.8258
23.2539
23.7266
24.2739
24.8972
25.5918
26.3606
27.2078
28.1359
29.1472
30.2448
31.4319
32.7114
34.0866
35.561
37.1377
38.8204
40.6124
42.5172
44.5382
46.6788
48.9424
51.3323
53.8516
56.5032
59.2901
62.215
65.2804
68.4887
71.8415
75.3412
78.9888
82.7856
86.7331
90.8315
95.0813
99.4827
104.035
108.739
113.592
118.594
123.744
129.04
134.479
140.06
145.779
151.635
157.622
163.739
169.981
176.344
182.822
189.411
196.104
202.897
209.781
216.749
223.792
230.901
238.072
245.28
252.566
21.7422
22.034
22.1115
22.3502
22.7328
23.1572
23.6262
24.1681
24.7849
25.4725
26.2336
27.0722
27.991
28.9924
30.0794
31.2552
32.5228
33.8857
35.347
36.9103
38.5789
40.3564
42.2462
44.2519
46.3767
48.6242
50.9977
53.5001
56.1349
58.9045
61.812
64.8599
68.0507
71.3861
74.8684
78.499
82.2793
86.2104
90.2929
94.5276
98.915
103.454
108.146
112.988
117.981
123.123
128.413
133.848
139.427
145.147
151.006
157
163.127
169.381
175.76
182.258
188.872
195.594
202.418
209.34
216.35
223.442
230.605
237.829
245.11
252.424
259.808
21.6421
21.9274
22.0213
22.2598
22.6358
23.0563
23.5217
24.0581
24.6683
25.3488
26.1019
26.9318
27.8411
28.8323
29.9085
31.0727
32.3282
33.6783
35.1263
36.6757
38.3299
40.0925
41.967
43.9567
46.0654
48.2963
50.6527
53.1379
55.755
58.5071
61.3968
64.4267
67.5993
70.917
74.3816
77.9947
81.7577
85.6721
89.7385
93.9577
98.3302
102.856
107.535
112.366
117.349
122.483
127.766
133.197
138.774
144.495
150.356
156.356
162.491
168.758
175.151
181.669
188.306
195.055
201.912
208.869
215.921
223.059
230.273
237.557
244.896
252.285
259.701
267.181
21.5394
21.8177
21.9268
22.1655
22.535
22.9516
23.4132
23.9439
24.5476
25.2208
25.9659
26.7868
27.6864
28.6673
29.7323
30.8848
32.1278
33.4648
34.8991
36.4342
38.0736
39.8209
41.6795
43.653
45.745
47.9588
50.2977
52.7652
55.3643
58.0981
60.9695
63.981
67.1352
70.4345
73.8808
77.4759
81.2211
85.1183
89.1682
93.3715
97.7288
102.241
106.906
111.726
116.699
121.824
127.1
132.526
138.1
143.821
149.684
155.689
161.832
168.11
174.519
181.055
187.713
194.489
201.376
208.369
215.461
222.643
229.909
237.247
244.649
252.101
259.597
267.114
274.684
21.4341
21.705
21.8282
22.0673
22.4305
22.8431
23.3008
23.8259
24.4228
25.0887
25.8256
26.6375
27.5272
28.4974
29.5511
30.6915
31.9218
33.2454
34.6657
36.1862
37.8104
39.5419
41.3842
43.341
45.4158
47.612
49.933
52.3822
54.9629
57.6779
60.5304
63.5229
66.6583
69.9385
73.366
76.9426
80.67
84.5494
88.5822
92.7689
97.1109
101.608
106.26
111.067
116.029
121.145
126.414
131.835
137.406
143.125
148.991
155
161.15
167.438
173.861
180.414
187.094
193.895
200.812
207.839
214.969
222.196
229.51
236.903
244.365
251.885
259.449
267.048
274.662
282.318
21.3263
21.5894
21.7258
21.9655
22.3227
22.731
23.1847
23.7043
24.2944
24.9527
25.6813
26.484
27.3637
28.323
29.3652
30.4932
31.7105
33.0203
34.4262
35.9317
37.5403
39.2557
41.0814
43.021
45.0781
47.2562
49.5589
51.9893
54.5509
57.2468
60.0799
63.0529
66.1687
69.4295
72.8379
76.3953
80.1041
83.9653
87.9805
92.1504
96.4761
100.958
105.596
110.391
115.341
120.448
125.709
131.123
136.691
142.408
148.275
154.288
160.444
166.743
173.178
179.749
186.448
193.274
200.219
207.279
214.448
221.717
229.078
236.525
244.045
251.629
259.265
266.938
274.639
282.345
290.081
21.2162
21.4712
21.6197
21.8602
22.2115
22.6155
23.0652
23.5791
24.1623
24.8131
25.5332
26.3265
27.196
28.1443
29.1746
30.2901
31.4941
32.7899
34.1811
35.6712
37.2639
38.9627
40.7712
42.6932
44.7322
46.8918
49.1755
51.5867
54.1287
56.8048
59.618
62.571
65.6668
68.9077
72.2962
75.8342
79.5237
83.366
87.3631
91.5157
95.8247
100.291
104.915
109.696
114.635
119.731
124.984
130.392
135.954
141.67
147.537
153.553
159.715
166.022
172.471
179.057
185.776
192.625
199.598
206.69
213.895
221.206
228.614
236.112
243.689
251.337
259.041
266.791
274.571
282.368
290.164
297.971
21.1037
21.3506
21.5101
21.7515
22.0972
22.4968
22.9424
23.4505
24.0268
24.6699
25.3815
26.1653
27.0244
27.9615
28.9798
30.0824
31.2728
32.5543
33.9305
35.4049
36.9812
38.663
40.4541
42.3579
44.3784
46.519
48.7833
51.1747
53.6967
56.3524
59.1452
62.0776
65.1528
68.3731
71.7412
75.2591
78.9288
82.7521
86.7303
90.8649
95.1567
99.6069
104.215
108.983
113.91
118.995
124.238
129.639
135.197
140.909
146.776
152.794
158.962
165.278
171.737
178.338
185.076
191.948
198.948
206.07
213.31
220.661
228.115
235.664
243.297
251.006
258.779
266.603
274.464
282.346
290.236
298.115
305.986
20.9889
21.2277
21.3971
21.6396
21.9799
22.3751
22.8165
23.3189
23.8882
24.5235
25.2263
26.0005
26.849
27.7748
28.7808
29.8704
31.0469
32.3138
33.6747
35.133
36.6926
38.3571
40.1301
42.0155
44.0169
46.138
48.3824
50.7535
53.2549
55.8898
58.6615
61.573
64.6268
67.8262
71.1732
74.6704
78.3198
82.1232
86.0822
90.1981
94.4723
98.9056
103.499
108.252
113.165
118.239
123.473
128.866
134.418
140.127
145.993
152.013
158.185
164.508
170.978
177.593
184.349
191.242
198.267
205.421
212.695
220.085
227.583
235.181
242.87
250.639
258.478
266.374
274.314
282.283
290.264
298.242
306.197
314.123
20.8719
21.1027
21.2811
21.5247
21.8599
22.2505
22.6876
23.1842
23.7465
24.3739
25.068
25.8324
26.6702
27.5844
28.578
29.6543
30.8167
32.0687
33.4139
34.8559
36.3983
38.0451
39.7997
41.6662
43.6481
45.7492
47.9731
50.3235
52.8038
55.4173
58.1673
61.0572
64.0894
67.2671
70.5926
74.0685
77.6968
81.4798
85.419
89.5158
93.7716
98.1874
102.764
107.502
112.402
117.464
122.688
128.072
133.618
139.323
145.187
151.208
157.384
163.714
170.194
176.822
183.595
190.509
197.558
204.74
212.049
219.476
227.018
234.664
242.406
250.235
258.138
266.106
274.124
282.177
290.25
298.324
306.382
314.407
322.377
20.7527
20.9758
21.1621
21.4069
21.7371
22.1231
22.5558
23.0468
23.6019
24.2214
24.9066
25.6611
26.4881
27.3906
28.3715
29.4343
30.5823
31.8192
33.1484
34.5736
36.0987
37.7273
39.4632
41.3103
43.2722
45.3529
47.5559
49.8849
52.3436
54.9351
57.663
60.5305
63.5405
66.6959
69.9992
73.4533
77.0601
80.8221
84.7406
88.8177
93.0544
97.4522
102.012
106.734
111.62
116.669
121.882
127.258
132.796
138.497
144.358
150.379
156.558
162.894
169.383
176.024
182.812
189.746
196.82
204.03
211.37
218.835
226.418
234.111
241.905
249.792
257.761
265.798
273.892
282.028
290.19
298.362
306.524
314.657
322.743
330.745
20.6314
20.8471
21.0403
21.2862
21.6118
21.9931
22.4215
22.9066
23.4547
24.0661
24.7423
25.4869
26.3029
27.1935
28.1616
29.2106
30.3441
31.5655
32.8785
34.2867
35.7939
37.404
39.1207
40.948
42.8896
44.9493
47.1309
49.4381
51.8745
54.4436
57.1488
59.9933
62.9804
66.1128
69.3936
72.8251
76.4098
80.1499
84.0473
88.1037
92.321
96.7
101.242
105.948
110.819
115.855
121.056
126.421
131.952
137.647
143.506
149.526
155.708
162.048
168.546
175.198
182.002
188.954
196.052
203.288
210.66
218.161
225.784
233.524
241.369
249.313
257.343
265.45
273.619
281.836
290.087
298.354
306.619
314.862
323.061
331.2
339.222
20.508
20.7167
20.9159
21.163
21.4841
21.8608
22.2847
22.764
23.3049
23.9082
24.5754
25.3099
26.1148
26.9933
27.9484
28.9836
30.1022
31.3079
32.6043
33.9952
35.4843
37.0755
38.7727
40.5797
42.5004
44.5387
46.6984
48.9833
51.3969
53.943
56.6248
59.4459
62.4095
65.5184
68.7757
72.184
75.7459
79.4637
83.3391
87.3743
91.5713
95.9311
100.455
105.144
109.999
115.021
120.209
125.565
131.087
136.776
142.63
148.649
154.832
161.177
167.682
174.346
181.164
188.134
195.253
202.516
209.918
217.453
225.117
232.901
240.798
248.796
256.888
265.062
273.304
281.602
289.94
298.301
306.667
315.018
323.334
331.592
339.774
347.801
20.3826
20.5848
20.789
21.0372
21.3541
21.7262
22.1455
22.6191
23.1528
23.7479
24.406
25.1303
25.924
26.7903
27.7322
28.7533
29.8569
31.0466
32.3262
33.6994
35.1701
36.7421
38.4192
40.2056
42.105
44.1214
46.2587
48.5207
50.911
53.4335
56.0916
58.8885
61.8279
64.9128
68.1461
71.5306
75.0688
78.7633
82.6164
86.6298
90.8058
95.1454
99.6503
104.322
109.16
114.167
119.342
124.687
130.2
135.881
141.731
147.748
153.932
160.28
166.792
173.465
180.296
187.284
194.423
201.711
209.143
216.712
224.415
232.242
240.188
248.242
256.393
264.633
272.948
281.325
289.749
298.202
306.668
315.127
323.558
331.939
340.245
348.459
356.475
20.2552
20.4517
20.6599
20.9091
21.222
21.5895
22.0043
22.472
22.9985
23.5854
24.2343
24.9483
25.7307
26.5846
27.5133
28.52
29.6083
30.7819
32.0444
33.3997
34.8515
36.4039
38.0607
39.826
41.7037
43.6978
45.8122
48.0507
50.4172
52.9155
55.5492
58.3216
61.236
64.2961
67.5048
70.8647
74.3788
78.0496
81.8794
85.8703
90.0242
94.3432
98.8283
103.481
108.302
113.294
118.455
123.787
129.29
134.964
140.808
146.822
153.005
159.356
165.874
172.556
179.4
186.403
193.563
200.875
208.336
215.938
223.678
231.548
239.54
247.648
255.859
264.165
272.551
281.005
289.513
298.058
306.623
315.188
323.733
332.235
340.671
349.015
357.25
365.237
20.126
20.3173
20.5287
20.7787
21.0879
21.4508
21.8609
22.3229
22.8422
23.4208
24.0604
24.764
25.5351
26.3765
27.2917
28.2839
29.3568
30.514
31.7592
33.0962
34.5289
36.0613
37.6974
39.4412
41.2967
43.268
45.359
47.5737
49.9158
52.3894
54.9979
57.745
60.6343
63.6688
66.8521
70.1867
73.676
77.3224
81.1281
85.0957
89.227
93.5244
97.989
102.622
107.426
112.401
117.547
122.866
128.358
134.023
139.861
145.871
152.054
158.406
164.928
171.618
178.474
185.493
192.671
200.007
207.495
215.13
222.905
230.817
238.857
247.016
255.286
263.655
272.111
280.643
289.234
297.869
306.531
315.201
323.858
332.48
341.044
349.526
357.896
366.14
374.08
19.9951
20.1818
20.3956
20.6461
20.9519
21.3103
21.7158
22.1719
22.684
23.2543
23.8846
24.5778
25.3373
26.1662
27.0677
28.0453
29.1025
30.2431
31.4706
32.7891
34.2024
35.7146
37.3296
39.0516
40.8845
42.8326
44.8996
47.0899
49.4071
51.8553
54.4382
57.1595
60.0226
63.031
66.1882
69.4971
72.9607
76.5816
80.3628
84.3063
88.4143
92.6891
97.1324
101.746
106.531
111.488
116.619
121.924
127.404
133.06
138.89
144.896
151.076
157.429
163.956
170.653
177.519
184.552
191.749
199.106
206.62
214.285
222.098
230.05
238.136
246.346
254.672
263.104
271.63
280.236
288.91
297.634
306.392
315.166
323.934
332.675
341.366
349.981
358.497
366.881
375.12
382.994
19.8624
20.0454
20.2606
20.5116
20.8141
21.1681
21.5689
22.0192
22.5241
23.086
23.7069
24.3897
25.1375
25.9537
26.8415
27.8043
28.8457
29.9694
31.1791
32.4788
33.8724
35.364
36.9575
38.6572
40.4672
42.3915
44.4342
46.5995
48.8913
51.3136
53.8703
56.565
59.4015
62.3832
65.5136
68.7959
72.2331
75.828
79.5836
83.5021
87.5862
91.8377
96.2588
100.851
105.616
110.555
115.67
120.961
126.428
132.073
137.895
143.895
150.072
156.425
162.954
169.658
176.534
183.58
190.794
198.172
205.711
213.407
221.254
229.246
237.376
245.636
254.018
262.512
271.105
279.786
288.541
297.353
306.207
315.082
323.96
332.819
341.636
350.386
359.042
367.578
375.963
384.183
391.968
19.7281
19.9082
20.1241
20.3752
20.6747
21.0244
21.4204
21.8649
22.3626
22.9162
23.5276
24.1998
24.936
25.7394
26.6133
27.5612
28.5865
29.6932
30.8849
32.1655
33.5391
35.0097
36.5815
38.2586
40.0451
41.9452
43.9631
46.103
48.3688
50.7647
53.2944
55.9621
58.7713
61.7255
64.8285
68.0833
71.4933
75.0616
78.791
82.6836
86.7427
90.9703
95.3683
99.9387
104.683
109.603
114.701
119.976
125.43
131.063
136.876
142.869
149.042
155.395
161.925
168.634
175.518
182.576
189.807
197.205
204.768
212.493
220.373
228.403
236.577
244.887
253.323
261.878
270.538
279.292
288.127
297.026
305.973
314.95
323.937
332.913
341.854
350.736
359.533
368.218
376.763
385.134
393.318
400.993
19.5914
19.7702
19.986
20.237
20.5337
20.8792
21.2704
21.7091
22.1996
22.7448
23.3469
24.0084
24.7329
25.5234
26.3833
27.3161
28.3253
29.4147
30.5881
31.8494
33.2027
34.6521
36.2018
37.8558
39.6185
41.4941
43.4867
45.6006
47.8399
50.2087
52.7111
55.351
58.1321
61.0583
64.1331
67.3598
70.7419
74.2826
77.9848
81.8512
85.8843
90.087
94.461
99.0086
103.732
108.632
113.71
118.969
124.408
130.029
135.832
141.818
147.986
154.336
160.868
167.58
174.472
181.542
188.787
196.204
203.79
211.542
219.455
227.523
235.739
244.097
252.587
261.201
269.927
278.753
287.666
296.651
305.692
314.769
323.864
332.956
342.021
351.034
359.971
368.803
377.503
386.042
394.384
402.517
410.056
19.4524
19.6313
19.8466
20.0971
20.3913
20.7327
21.1192
21.5521
22.0354
22.5722
23.1648
23.8157
24.5283
25.3059
26.1517
27.0692
28.0621
29.134
30.289
31.5308
32.8636
34.2914
35.8186
37.4493
39.1878
41.0382
43.0051
45.0925
47.3049
49.6461
52.1205
54.732
57.4843
60.3818
63.4277
66.6257
69.979
73.4914
77.1655
81.0045
85.0111
89.1879
93.5369
98.0611
102.761
107.641
112.7
117.941
123.365
128.972
134.764
140.741
146.903
153.249
159.781
166.497
173.395
180.475
187.733
195.169
202.777
210.556
218.5
226.604
234.862
243.266
251.809
260.481
269.271
278.169
287.16