/*--------------------------------*- C++ -*----------------------------------*\
  =========                 |
  \\      /  F ield         | OpenFOAM: The Open Source CFD Toolbox
   \\    /   O peration     | Website:  https://openfoam.org
    \\  /    A nd           | Version:  7
     \\/     M anipulation  |
\*---------------------------------------------------------------------------*/
FoamFile
{
    version     2.0;
    format      ascii;
    class       surfaceScalarField;
    location    "600";
    object      phi;
}
// * * * * * * * * * * * * * * * * * * * * * * * * * * * * * * * * * * * * * //

dimensions      [0 3 -1 0 0 0 0];

internalField   nonuniform List<scalar> 
45794
(
-0.29611
0.042907
-0.29426
0.0454607
-0.28444
0.0412206
-0.292365
0.0480069
-0.282679
0.0436995
-0.273084
0.039636
-0.290378
0.0504429
-0.280835
0.0461634
-0.271405
0.0420207
-0.262143
0.0380638
-0.288253
0.0528185
-0.278856
0.0484637
-0.269586
0.0443445
-0.260531
0.0404087
-0.251672
0.0365582
-0.242959
0.0329386
-0.286089
0.055182
-0.276841
0.0508035
-0.267729
0.0466063
-0.258829
0.0426427
-0.250124
0.0388615
-0.241567
0.0351656
-0.233222
0.0316486
-0.225053
0.00207918
-0.283738
0.0573357
-0.274689
0.05303
-0.265781
0.0488559
-0.257037
0.0448147
-0.248437
0.040955
-0.240032
0.0373275
-0.231889
0.0338328
-0.223869
0.0304651
-0.216032
0.00207632
-0.2814
0.0595791
-0.272502
0.0551485
-0.263697
0.050946
-0.255108
0.0469262
-0.246709
0.043087
-0.238507
0.0394294
-0.230414
0.0358527
-0.222543
0.0325068
-0.214853
0.0292863
-0.207352
0.00209322
-0.278877
0.0616139
-0.270177
0.0572543
-0.261575
0.0530261
-0.25314
0.0489778
-0.244892
0.0451088
-0.236791
0.0413709
-0.228848
0.0378632
-0.221175
0.0344843
-0.213581
0.0312352
-0.206191
0.0281244
-0.19898
0.00209995
-0.276317
0.0636873
-0.267816
0.0592521
-0.259317
0.0549967
-0.251082
0.0509682
-0.242984
0.0470705
-0.235084
0.0434024
-0.227291
0.0398135
-0.219715
0.0364032
-0.212217
0.0331203
-0.204971
0.0300152
-0.197883
0.0270273
-0.190956
0.00210662
-0.273722
0.0656527
-0.265319
0.0611903
-0.257071
0.0570059
-0.248987
0.0529016
-0.24104
0.0490235
-0.233239
0.0452248
-0.225593
0.0417046
-0.218114
0.0382124
-0.210811
0.0349971
-0.203688
0.0318379
-0.196708
0.0288402
-0.189891
0.0259629
-0.183245
0.00211295
-0.270943
0.0675116
-0.262737
0.0630716
-0.254691
0.05881
-0.246705
0.0547242
-0.238957
0.0508186
-0.231304
0.0470891
-0.223856
0.0434878
-0.216473
0.0400633
-0.209364
0.0367647
-0.202309
0.0336175
-0.195465
0.0305949
-0.188763
0.0277125
-0.182226
0.0249442
-0.175844
0.00211895
-0.26818
0.0693607
-0.26012
0.0648947
-0.252222
0.060603
-0.244436
0.0565408
-0.236836
0.0526038
-0.22933
0.048844
-0.221978
0.045211
-0.214789
0.0418046
-0.207775
0.0384746
-0.200873
0.0353286
-0.19415
0.0323024
-0.187573
0.0294044
-0.181144
0.0266304
-0.174864
0.0239644
-0.168728
0.0021199
-0.265283
0.0711046
-0.257419
0.0666595
-0.249719
0.0623915
-0.24213
0.0582978
-0.234627
0.0543319
-0.227318
0.0505917
-0.220112
0.0469781
-0.213067
0.0434887
-0.206145
0.040175
-0.199395
0.0369966
-0.192777
0.0339565
-0.18631
0.0310395
-0.179989
0.0282495
-0.173816
0.0255821
-0.167785
0.0230217
-0.161903
0.00212564
-0.26235
0.0728386
-0.254682
0.0683675
-0.24713
0.0640706
-0.239688
0.0599494
-0.232333
0.0560031
-0.225168
0.0521828
-0.218106
0.0485859
-0.211205
0.0451159
-0.204477
0.0418201
-0.197827
0.0386075
-0.191334
0.035553
-0.18498
0.0326264
-0.178776
0.0298266
-0.172709
0.0271429
-0.166779
0.0245757
-0.160995
0.0221144
-0.155343
0.0021262
-0.259336
0.0744205
-0.251814
0.0699702
-0.244407
0.0656444
-0.237161
0.0615428
-0.230001
0.0576174
-0.222981
0.0538152
-0.216111
0.0501879
-0.209354
0.0467345
-0.202717
0.0433558
-0.196172
0.040165
-0.189824
0.0370977
-0.183593
0.0341659
-0.177501
0.0313514
-0.17154
0.0286574
-0.165714
0.0260782
-0.160029
0.0236095
-0.15447
0.021241
-0.149045
0.00213156
-0.256237
0.0759926
-0.248909
0.071516
-0.241698
0.0672609
-0.234598
0.0630819
-0.227583
0.0591249
-0.220755
0.0553919
-0.21403
0.0517342
-0.207365
0.0481993
-0.200868
0.0448857
-0.194483
0.0416666
-0.188258
0.0385993
-0.182144
0.0356491
-0.176164
0.0328289
-0.170313
0.0301244
-0.164591
0.0275345
-0.159005
0.0250535
-0.153537
0.022677
-0.148204
0.0203998
-0.142989
0.00213176
-0.253057
0.0775119
-0.245923
0.0730064
-0.238905
0.0687237
-0.231951
0.064614
-0.225127
0.0606266
-0.218444
0.0568135
-0.211811
0.0531726
-0.205335
0.0497041
-0.198979
0.0463101
-0.192725
0.0431276
-0.186631
0.0400394
-0.180634
0.0370894
-0.17477
0.0342549
-0.169029
0.0315446
-0.163411
0.0289438
-0.157922
0.0264516
-0.152551
0.0240673
-0.147309
0.0217815
-0.142184
0.0195943
-0.137185
0.00213664
-0.249844
0.0789758
-0.242902
0.0744911
-0.236028
0.0701296
-0.229267
0.0660394
-0.222586
0.0620728
-0.216095
0.0582778
-0.209602
0.0546051
-0.203268
0.0511062
-0.197002
0.0477275
-0.190935
0.0445204
-0.184939
0.0414352
-0.179071
0.0384755
-0.173315
0.0356344
-0.167688
0.0329137
-0.162173
0.0303066
-0.156786
0.0278078
-0.151516
0.0254168
-0.146359
0.0231179
-0.141324
0.0209216
-0.136409
0.0188183
-0.131603
0.00213651
-0.246599
0.0803346
-0.23975
0.0758235
-0.233118
0.0715809
-0.226549
0.0674119
-0.22001
0.0634635
-0.21361
0.0595883
-0.207309
0.0559847
-0.201115
0.0524514
-0.195036
0.0491404
-0.189086
0.0458789
-0.183199
0.0427803
-0.177449
0.0398134
-0.171808
0.0369684
-0.166295
0.0342416
-0.160888
0.0316283
-0.155597
0.0291179
-0.150423
0.0267149
-0.145361
0.0244187
-0.140415
0.0222089
-0.135583
0.0200958
-0.130855
0.0180702
-0.126244
0.00214121
-0.243222
0.0816406
-0.236614
0.0771986
-0.230124
0.0728289
-0.223697
0.068729
-0.21735
0.0647515
-0.21109
0.0609428
-0.204977
0.0572564
-0.198922
0.0537921
-0.192982
0.0503969
-0.187124
0.0471781
-0.181402
0.0440822
-0.175772
0.0411032
-0.170252
0.0382572
-0.164846
0.0355192
-0.159545
0.0328995
-0.154356
0.0303872
-0.149283
0.027977
-0.14431
0.0256635
-0.139452
0.0234559
-0.134703
0.0213289
-0.130057
0.0192979
-0.125522
0.0173488
-0.121092
0.00213582
-0.239764
0.0828912
-0.233395
0.0784215
-0.227047
0.0741221
-0.22086
0.0699919
-0.214653
0.0660325
-0.208583
0.0622445
-0.202611
0.058576
-0.196693
0.0550275
-0.190853
0.0516638
-0.185158
0.0484304
-0.179551
0.0453275
-0.174041
0.0423512
-0.168643
0.0394942
-0.163345
0.0367565
-0.15815
0.0341243
-0.153062
0.031606
-0.148084
0.0291885
-0.14321
0.0268773
-0.13844
0.0246518
-0.133774
0.0225268
-0.129219
0.0204914
-0.124761
0.0185365
-0.120406
0.0166628
-0.116154
0.00214013
-0.236323
0.0841389
-0.230143
0.07964
-0.223986
0.07536
-0.21794
0.071202
-0.211872
0.0672109
-0.205941
0.0633911
-0.200106
0.0597394
-0.194376
0.0562585
-0.188704
0.0528779
-0.183134
0.0496399
-0.177651
0.0465296
-0.172263
0.0435499
-0.16698
0.0406882
-0.161794
0.0379432
-0.15671
0.0353162
-0.151728
0.0327899
-0.146848
0.0303698
-0.142067
0.0280459
-0.137385
0.0258224
-0.132811
0.0236888
-0.128333
0.02164
-0.12395
0.0196803
-0.11967
0.0178002
-0.115493
0.0160011
-0.111405
0.00213948
-0.232852
0.0852841
-0.226812
0.0808071
-0.220844
0.0764981
-0.214937
0.0723567
-0.209055
0.0683849
-0.203314
0.0645832
-0.197665
0.0609507
-0.192022
0.0573856
-0.186476
0.0540302
-0.18105
0.0507938
-0.175697
0.0476864
-0.170434
0.0447007
-0.165266
0.0418366
-0.160196
0.0390905
-0.155218
0.0364512
-0.150339
0.0339274
-0.145558
0.0315006
-0.140872
0.0291743
-0.136282
0.0269427
-0.131789
0.0248007
-0.127392
0.0227481
-0.123094
0.0207844
-0.118894
0.0189041
-0.114785
0.0170931
-0.110766
0.0153624
-0.106844
0.00213365
-0.22925
0.0863767
-0.223446
0.0819189
-0.217616
0.0775794
-0.211897
0.0734587
-0.206206
0.0695075
-0.200651
0.0657224
-0.195089
0.062007
-0.189582
0.0585109
-0.184236
0.0551459
-0.178919
0.0518998
-0.173694
0.0487901
-0.168557
0.0458096
-0.163511
0.0429457
-0.158553
0.0401936
-0.153686
0.0375582
-0.148911
0.0350234
-0.144224
0.0325927
-0.139629
0.0302576
-0.135131
0.0280232
-0.130729
0.0258827
-0.126417
0.023826
-0.122199
0.0218531
-0.118073
0.0199636
-0.114033
0.0181519
-0.110092
0.0164186
-0.106238
0.0147556
-0.102468
0.00213283
-0.225665
0.0874165
-0.220001
0.0829309
-0.214359
0.0786617
-0.208829
0.0745105
-0.203322
0.0705747
-0.197903
0.0667591
-0.192478
0.0631114
-0.187175
0.0595994
-0.181932
0.0562074
-0.176745
0.0529716
-0.171652
0.0498585
-0.166639
0.0468719
-0.161709
0.044007
-0.15686
0.0412525
-0.152102
0.0386097
-0.147431
0.0360774
-0.142846
0.0336457
-0.138349
0.0313132
-0.133948
0.0290741
-0.129631
0.0269248
-0.125399
0.0248642
-0.12126
0.0228869
-0.117213
0.0209927
-0.113246
0.0191763
-0.109372
0.0174322
-0.105585
0.015766
-0.101882
0.0141696
-0.0982658
0.00213676
-0.222001
0.0884051
-0.216523
0.0839386
-0.211067
0.0796389
-0.205722
0.0755554
-0.200403
0.0715917
-0.195071
0.067743
-0.189829
0.0641106
-0.184661
0.0605979
-0.179563
0.0572298
-0.174528
0.0539906
-0.169563
0.0508827
-0.164676
0.047895
-0.159861
0.045024
-0.155126
0.0422734
-0.150483
0.0396332
-0.145914
0.0370935
-0.141427
0.0346581
-0.137026
0.032322
-0.132715
0.0300806
-0.128484
0.0279277
-0.124337
0.025863
-0.120282
0.0238863
-0.116308
0.0219824
-0.112419
0.0201658
-0.108612
0.0184165
-0.104897
0.0167441
-0.101255
0.0151391
-0.0976997
0.0136034
-0.0942285
0.00213582
-0.218306
0.0893423
-0.213014
0.0848963
-0.207744
0.0806158
-0.202537
0.0764534
-0.197353
0.072505
-0.192203
0.0687239
-0.187146
0.0650597
-0.182123
0.0615722
-0.177162
0.058197
-0.172259
0.0549604
-0.167424
0.0518515
-0.162662
0.048869
-0.157968
0.0460018
-0.153353
0.0432501
-0.148812
0.0406025
-0.144347
0.0380654
-0.139966
0.0356325
-0.135662
0.033294
-0.131441
0.0310484
-0.127295
0.0288913
-0.123237
0.0268274
-0.11926
0.0248411
-0.115364
0.0229423
-0.111552
0.0211158
-0.107818
0.019371
-0.104168
0.0176881
-0.100592
0.0160814
-0.0971022
0.0145416
-0.0936861
0.013061
-0.090351
0.00212976
-0.21453
0.0901771
-0.209423
0.0857516
-0.204339
0.0814916
-0.199317
0.0773955
-0.194366
0.0734663
-0.18935
0.0696521
-0.184428
0.0660057
-0.179557
0.0624937
-0.174718
0.0591288
-0.169957
0.055895
-0.165254
0.05279
-0.160612
0.0498014
-0.156037
0.0469381
-0.15154
0.0441889
-0.147107
0.0415451
-0.14275
0.0390056
-0.138464
0.036564
-0.134256
0.0342267
-0.13013
0.0319824
-0.126073
0.0298261
-0.122103
0.0277581
-0.118205
0.0257722
-0.114387
0.0238633
-0.110646
0.0220364
-0.106983
0.0202812
-0.1034
0.0186023
-0.099894
0.0169899
-0.096464
0.0154431
-0.0931072
0.0139627
-0.0898363
0.0125463
-0.0866288
0.00212875
-0.210725
0.0910615
-0.205852
0.0866053
-0.200951
0.0823632
-0.196111
0.0782863
-0.191246
0.0742755
-0.186414
0.0705302
-0.181656
0.0668805
-0.176926
0.063375
-0.172239
0.060014
-0.167612
0.0567842
-0.163039
0.0536807
-0.158523
0.0507009
-0.154071
0.0478352
-0.149683
0.0450812
-0.145357
0.0424387
-0.14111
0.0399053
-0.136926
0.0374675
-0.132818
0.0351264
-0.128782
0.0328784
-0.124814
0.0307233
-0.120927
0.0286498
-0.117111
0.0266643
-0.11337
0.0247555
-0.109706
0.0229233
-0.106114
0.0211675
-0.102601
0.0194828
-0.0991605
0.0178688
-0.0957899
0.0163158
-0.0924973
0.0148332
-0.0892801
0.0134066
-0.0861309
0.0120484
-0.0830569
0.0021276
-0.206938
0.0918461
-0.202199
0.0874091
-0.197482
0.0831364
-0.192777
0.0790289
-0.188095
0.0751354
-0.183445
0.0713059
-0.178832
0.0677062
-0.174263
0.0642172
-0.169722
0.0608578
-0.165233
0.0576345
-0.160784
0.0545286
-0.156395
0.0515527
-0.152062
0.0486921
-0.14779
0.0459429
-0.143581
0.0433055
-0.139436
0.0407647
-0.135348
0.0383268
-0.131337
0.0359869
-0.127396
0.0337413
-0.123517
0.0315813
-0.119713
0.0295093
-0.11598
0.0275185
-0.11232
0.0256141
-0.108727
0.0237763
-0.10521
0.0220196
-0.101768
0.0203339
-0.0983867
0.018709
-0.0950854
0.0171643
-0.0918564
0.0156749
-0.0886927
0.0142457
-0.0856014
0.012877
-0.08258
0.0115715
-0.0796306
0.00212658
-0.203071
0.0925782
-0.198516
0.0881629
-0.193982
0.0839093
-0.189459
0.0798183
-0.184958
0.0758917
-0.18044
0.072131
-0.176024
0.0684981
-0.171566
0.0650094
-0.167166
0.0616615
-0.162809
0.0584344
-0.158494
0.0553449
-0.154234
0.0523679
-0.150018
0.0495085
-0.145858
0.0467595
-0.141761
0.0441233
-0.137715
0.041585
-0.133738
0.0391545
-0.129821
0.0368108
-0.125975
0.0345651
-0.122181
0.0324062
-0.118466
0.0303341
-0.114819
0.0283488
-0.111235
0.0264342
-0.107714
0.0246011
-0.104273
0.0228386
-0.100895
0.0211466
-0.097583
0.0195302
-0.0943505
0.0179741
-0.091175
0.0164828
-0.0880742
0.0150564
-0.0850403
0.0136847
-0.0820711
0.0123681
-0.0791688
0.0111097
-0.0763353
0.00212544
-0.199125
0.0932132
-0.194752
0.0888143
-0.190448
0.0846282
-0.186107
0.0805577
-0.181788
0.0766489
-0.177452
0.0729035
-0.173136
0.0692423
-0.168828
0.0657601
-0.164571
0.0624148
-0.160348
0.0592005
-0.156168
0.0561086
-0.15203
0.0531404
-0.147936
0.0502861
-0.143892
0.0475433
-0.139906
0.0449045
-0.135969
0.0423773
-0.132091
0.0399381
-0.128275
0.0376081
-0.12452
0.035356
-0.120819
0.0332032
-0.117187
0.0311272
-0.113621
0.0291356
-0.110114
0.027227
-0.106672
0.0253925
-0.103306
0.023634
-0.099997
0.021941
-0.0967543
0.0203179
-0.0935802
0.0187599
-0.0904677
0.0172667
-0.0874245
0.0158332
-0.0844431
0.0144592
-0.0815307
0.0131443
-0.0786798
0.0118791
-0.0758925
0.0106669
-0.073171
0.00211953
-0.195199
0.0938951
-0.191055
0.0895166
-0.186885
0.0852515
-0.182675
0.0811961
-0.178535
0.0773051
-0.174335
0.0735314
-0.170178
0.0699464
-0.16606
0.0664744
-0.161947
0.0631356
-0.157864
0.0599301
-0.15381
0.056842
-0.149798
0.0538764
-0.14582
0.0510246
-0.141898
0.0482918
-0.138021
0.0456579
-0.134189
0.0431245
-0.13041
0.0406963
-0.126692
0.0383549
-0.123023
0.0361115
-0.119422
0.0339585
-0.115875
0.0318911
-0.112389
0.0298956
-0.108964
0.0279856
-0.105596
0.026151
-0.1023
0.0243864
-0.09906
0.022697
-0.0958859
0.0210725
-0.092775
0.0195127
-0.0897253
0.0180175
-0.0867393
0.0165815
-0.0838148
0.0152049
-0.0809588
0.0138873
-0.0781591
0.0126236
-0.0754276
0.0114141
-0.0727516
0.0102475
-0.0701379
0.00211844
-0.191242
0.0944801
-0.187281
0.0901205
-0.183289
0.0859202
-0.179308
0.081884
-0.1753
0.077961
-0.171243
0.0742138
-0.167256
0.0706091
-0.163261
0.0671473
-0.159291
0.0638186
-0.15534
0.0606121
-0.151417
0.0575377
-0.147533
0.0545772
-0.143677
0.0517328
-0.13987
0.0489962
-0.136097
0.0463674
-0.132375
0.0438438
-0.128703
0.041418
-0.125078
0.0390827
-0.121512
0.0368441
-0.117993
0.0346823
-0.114531
0.0326147
-0.111127
0.0306289
-0.10778
0.0287125
-0.104493
0.0268817
-0.10127
0.0251211
-0.0980989
0.0234253
-0.0949879
0.0217991
-0.0919447
0.0202422
-0.0889573
0.0187447
-0.0860283
0.0173065
-0.0831653
0.0159321
-0.0803606
0.0146067
-0.0776118
0.0133399
-0.0749257
0.0121218
-0.0722998
0.0109623
-0.0697359
0.00984553
-0.067231
0.00211739
-0.187256
0.0950648
-0.183474
0.0906732
-0.179661
0.0864933
-0.175811
0.0824238
-0.171957
0.0785408
-0.168107
0.0748249
-0.164274
0.0712317
-0.160432
0.0677801
-0.1566
0.0644566
-0.152785
0.0612638
-0.149
0.0581946
-0.145236
0.0552415
-0.141499
0.0523997
-0.137806
0.0496692
-0.134147
0.0470464
-0.130533
0.0445252
-0.12696
0.0421007
-0.123433
0.0397727
-0.119959
0.0375289
-0.116529
0.0353805
-0.113158
0.033309
-0.109835
0.031323
-0.106568
0.0294164
-0.10336
0.0275804
-0.100207
0.0258188
-0.0971036
0.0241257
-0.0940654
0.0225027
-0.0910846
0.020939
-0.0881543
0.0194393
-0.085287
0.0180033
-0.0824801
0.0166213
-0.0797265
0.0152979
-0.0770379
0.0140329
-0.074402
0.0128162
-0.0718259
0.0116479
-0.0693065
0.0105328
-0.0668409
0.00945534
-0.0644309
0.0021116
-0.183238
0.0955486
-0.179585
0.091176
-0.176002
0.0870138
-0.172331
0.083013
-0.168655
0.0791217
-0.164964
0.0753974
-0.161268
0.0718193
-0.157573
0.0683728
-0.153878
0.0650582
-0.150204
0.0618755
-0.146545
0.0588088
-0.142905
0.0558632
-0.139293
0.053035
-0.13572
0.0503133
-0.132171
0.047693
-0.128659
0.0451729
-0.125189
0.0427544
-0.121762
0.0404299
-0.118379
0.0381934
-0.115042
0.0360412
-0.111756
0.0339793
-0.108517
0.0319905
-0.105329
0.0300836
-0.102195
0.0282511
-0.0991132
0.0264866
-0.0960832
0.0247984
-0.0931135
0.0231738
-0.0901948
0.0216129
-0.0873311
0.0201157
-0.084525
0.0186774
-0.0817742
0.0172975
-0.0790761
0.0159709
-0.0764377
0.0146977
-0.0738468
0.0134776
-0.0713201
0.0123104
-0.0688449
0.0111863
-0.0664232
0.0101152
-0.0640617
0.00908615
-0.0617473
0.00210575
-0.179143
0.0959865
-0.175718
0.0916812
-0.172313
0.087487
-0.168818
0.0835014
-0.16529
0.0796476
-0.161777
0.0759348
-0.158233
0.0723619
-0.154684
0.0689305
-0.151135
0.0656296
-0.147597
0.0624508
-0.144067
0.0593978
-0.140552
0.056456
-0.13706
0.0536303
-0.133601
0.0509159
-0.130158
0.0483004
-0.126759
0.0457927
-0.12339
0.0433739
-0.12006
0.0410518
-0.116768
0.0388188
-0.113526
0.0366776
-0.110325
0.0346093
-0.107165
0.0326278
-0.104062
0.0307242
-0.101002
0.0288901
-0.0979925
0.0271304
-0.0950367
0.0254401
-0.0921326
0.0238176
-0.0892755
0.0222546
-0.0864732
0.020755
-0.0837281
0.0193188
-0.0810328
0.0179359
-0.0783898
0.0166112
-0.0758063
0.0153395
-0.07327
0.0141208
-0.0707875
0.012945
-0.0683612
0.0118267
-0.065983
0.0107462
-0.0636647
0.00971815
-0.0613934
0.00873218
-0.0591803
0.00210972
-0.175066
0.0964242
-0.171869
0.0921379
-0.168592
0.0879601
-0.165289
0.0839573
-0.161918
0.0801299
-0.158562
0.0764322
-0.155173
0.0728744
-0.15177
0.0694482
-0.148362
0.0661574
-0.144958
0.062991
-0.141558
0.0599418
-0.138172
0.0570173
-0.134803
0.0541991
-0.131456
0.0514859
-0.128126
0.048884
-0.12483
0.0463711
-0.121562
0.0439647
-0.118333
0.0416473
-0.115137
0.0394203
-0.111984
0.0372775
-0.108867
0.0352201
-0.105797
0.0332408
-0.102766
0.031332
-0.0997836
0.0295062
-0.0968535
0.0277511
-0.0939643
0.026058
-0.0911271
0.0244345
-0.0883317
0.0228738
-0.0855953
0.0213766
-0.0829108
0.0199377
-0.0802709
0.0185569
-0.0776829
0.017229
-0.0751489
0.0159538
-0.0726619
0.0147314
-0.0702282
0.0135616
-0.0678506
0.0124344
-0.0655206
0.0113643
-0.0632452
0.0103267
-0.0610116
0.00933634
-0.0588359
0.00838782
-0.0567053
0.00210409
-0.17096
0.0968134
-0.16794
0.092495
-0.164837
0.0883832
-0.161732
0.0844031
-0.158532
0.0805709
-0.155321
0.0768896
-0.152084
0.0733433
-0.148832
0.0699358
-0.145568
0.0666538
-0.142298
0.0634975
-0.139027
0.0604594
-0.135765
0.057535
-0.132513
0.0547278
-0.129279
0.052022
-0.126066
0.0494262
-0.122876
0.0469305
-0.119715
0.0445239
-0.116576
0.0422076
-0.113475
0.0399853
-0.110411
0.0378472
-0.107383
0.0357933
-0.104392
0.0338149
-0.101444
0.0319182
-0.0985436
0.0300921
-0.0956814
0.0283341
-0.0928636
0.0266505
-0.090093
0.0250239
-0.0873681
0.0234709
-0.0846927
0.0219712
-0.0820636
0.0205295
-0.0794836
0.0191504
-0.0769502
0.0178242
-0.0744706
0.0165507
-0.0720375
0.0153294
-0.0696524
0.0141556
-0.0673182
0.0130292
-0.0650311
0.011945
-0.0627936
0.0109126
-0.0606072
0.00992231
-0.0584686
0.00896909
-0.0563797
0.00806223
-0.054337
0.00210326
-0.166867
0.0972037
-0.16403
0.0929029
-0.161122
0.0887803
-0.15815
0.0848017
-0.155115
0.0809859
-0.152064
0.0773133
-0.148975
0.0737807
-0.145872
0.0703833
-0.142742
0.0671101
-0.139612
0.0639675
-0.136469
0.0609395
-0.133335
0.0580299
-0.130205
0.0552264
-0.127088
0.0525366
-0.123986
0.0499419
-0.120897
0.0474473
-0.117831
0.0450467
-0.114797
0.0427451
-0.111795
0.0405275
-0.108821
0.0383954
-0.105877
0.0363412
-0.10297
0.0343711
-0.100103
0.0324741
-0.0972719
0.0306464
-0.094486
0.0288967
-0.0917384
0.0272089
-0.0890343
0.0255918
-0.0863752
0.024031
-0.0837606
0.0225388
-0.0811964
0.021104
-0.078671
0.0197169
-0.0761921
0.0183922
-0.0737664
0.01712
-0.0713819
0.0158951
-0.0690453
0.0147222
-0.0667591
0.0135965
-0.0645197
0.0125177
-0.0623295
0.0114808
-0.0601803
0.0104857
-0.0580787
0.00953231
-0.0560263
0.00861568
-0.0540198
0.00774503
-0.0520656
0.00209762
-0.162715
0.0974487
-0.16004
0.0932139
-0.157322
0.0891027
-0.154524
0.085154
-0.151673
0.0813595
-0.148781
0.0777034
-0.145847
0.0741858
-0.142888
0.0707972
-0.139903
0.067544
-0.136904
0.0644026
-0.133889
0.0613883
-0.130882
0.058486
-0.12787
0.0556949
-0.124869
0.0530075
-0.121873
0.0504238
-0.118895
0.047939
-0.115934
0.0455493
-0.112998
0.0432474
-0.110086
0.0410359
-0.107201
0.0389071
-0.104344
0.0368625
-0.101519
0.0348909
-0.0987304
0.0329985
-0.0959819
0.031184
-0.0932711
0.0294315
-0.0905913
0.0277495
-0.0879573
0.0261319
-0.0853634
0.02458
-0.0828136
0.023084
-0.0803044
0.0216468
-0.0778335
0.0202665
-0.0754183
0.0189432
-0.0730415
0.0176673
-0.0707053
0.0164435
-0.0684218
0.0152716
-0.0661832
0.0141463
-0.0639863
0.0130632
-0.0618335
0.0120217
-0.0597261
0.0110267
-0.0576661
0.0100731
-0.0556549
0.00916091
-0.0536894
0.00828521
-0.0517611
0.00744051
-0.0498813
0.00209698
-0.15856
0.097742
-0.156077
0.0934863
-0.15352
0.0894113
-0.1509
0.0854789
-0.148213
0.0816945
-0.145475
0.0780534
-0.142696
0.0745523
-0.13988
0.0711774
-0.137037
0.0679316
-0.134171
0.0648102
-0.131294
0.0618069
-0.128407
0.0589134
-0.125517
0.0561334
-0.122631
0.053457
-0.119745
0.0508793
-0.116873
0.0484018
-0.114015
0.0460205
-0.111174
0.0437259
-0.108357
0.041519
-0.105559
0.0393937
-0.102791
0.0373537
-0.100052
0.0353953
-0.0973458
0.0335063
-0.0946686
0.0316853
-0.0920243
0.0299373
-0.0894196
0.0282598
-0.0868508
0.026643
-0.0843234
0.0250919
-0.0818326
0.023599
-0.0793881
0.0221678
-0.0769757
0.020789
-0.0746143
0.0194625
-0.0722909
0.0181926
-0.0700077
0.0169697
-0.0677721
0.0157939
-0.0655761
0.0146645
-0.0634265
0.0135865
-0.0613205
0.0125501
-0.0592595
0.0115551
-0.0572359
0.0105965
-0.0552608
0.00967906
-0.053331
0.00880257
-0.0514382
0.00796228
-0.0495937
0.0071529
-0.0477888
0.00209142
-0.154381
0.097937
-0.15208
0.093745
-0.149711
0.0896776
-0.147255
0.0857666
-0.144736
0.0820022
-0.142158
0.0783775
-0.139525
0.0748824
-0.136855
0.0715275
-0.134155
0.0682955
-0.131422
0.0651828
-0.128676
0.0621919
-0.125911
0.0593107
-0.123141
0.0565368
-0.120364
0.0538664
-0.117589
0.0513011
-0.114826
0.0488332
-0.112073
0.0464593
-0.109327
0.044173
-0.106606
0.0419745
-0.1039
0.03986
-0.10122
0.0378234
-0.0985581
0.0358598
-0.0959295
0.033979
-0.0933322
0.0321699
-0.0907692
0.0304301
-0.0882345
0.0287522
-0.0857322
0.0271411
-0.0832686
0.0255883
-0.080843
0.0241023
-0.0784517
0.0226625
-0.0760981
0.0212902
-0.0737951
0.0199698
-0.0715247
0.0186963
-0.0692895
0.0174744
-0.0671064
0.0163039
-0.0649574
0.0151751
-0.0628499
0.0140878
-0.0607855
0.0130515
-0.0587611
0.0120517
-0.0567834
0.0111026
-0.0548491
0.0101848
-0.0529548
0.00930288
-0.0510925
0.00845687
-0.0492828
0.00765142
-0.0475127
0.00687675
-0.0457833
0.00208589
-0.150215
0.0981824
-0.148105
0.0939615
-0.145881
0.0899154
-0.143598
0.0860206
-0.141242
0.0822726
-0.138816
0.0786602
-0.136339
0.0751915
-0.133818
0.0718453
-0.131253
0.0686256
-0.128655
0.065529
-0.12604
0.0625468
-0.123396
0.0596767
-0.120746
0.0569164
-0.11809
0.0542633
-0.115425
0.0517027
-0.112765
0.0492395
-0.11011
0.0468703
-0.107461
0.0445937
-0.104834
0.0424011
-0.102216
0.0402913
-0.0996184
0.038258
-0.0970472
0.0363126
-0.0944998
0.0344301
-0.0919789
0.0326257
-0.089481
0.0308817
-0.0870164
0.029212
-0.0845841
0.0276042
-0.0821893
0.0260618
-0.0798275
0.0245728
-0.0774951
0.0231457
-0.0752053
0.0217696
-0.0729505
0.0204456
-0.0707282
0.0191732
-0.0685504
0.0179572
-0.0664145
0.0167825
-0.0643126
0.0156592
-0.0622518
0.0145771
-0.0602337
0.0135361
-0.0582504
0.0125409
-0.0563136
0.0115818
-0.05441
0.0106636
-0.0525512
0.00978112
-0.0507287
0.00893912
-0.0489586
0.00813267
-0.047218
0.00735678
-0.045518
0.00661147
-0.0438596
0.00208521
-0.146015
0.0983188
-0.144065
0.094142
-0.14204
0.0901208
-0.139923
0.0862397
-0.137728
0.0825066
-0.135463
0.0789192
-0.133134
0.0754556
-0.130755
0.0721281
-0.12833
0.0689221
-0.125869
0.0658391
-0.123379
0.062868
-0.120865
0.0600165
-0.118334
0.0572646
-0.115787
0.0546126
-0.11323
0.0520679
-0.110678
0.0496158
-0.108128
0.0472575
-0.105578
0.0449868
-0.103041
0.0428013
-0.100515
0.0406998
-0.0980081
0.038681
-0.0955195
0.0367303
-0.0930434
0.0348561
-0.0906024
0.0330537
-0.0881795
0.0313241
-0.0857898
0.0296551
-0.0834214
0.0280492
-0.0810917
0.0265065
-0.0787887
0.0250231
-0.0765189
0.0235966
-0.0742825
0.0222229
-0.0720862
0.0209053
-0.0699213
0.0196387
-0.0677957
0.0184185
-0.0657018
0.0172445
-0.0636516
0.0161215
-0.0616322
0.0150396
-0.0596602
0.0140036
-0.057718
0.0130036
-0.0558168
0.0120441
-0.0539585
0.0111303
-0.0521347
0.0102471
-0.0503519
0.00940436
-0.0486067
0.00858721
-0.0468956
0.00781022
-0.0452295
0.00706831
-0.0436047
0.00635658
-0.0420081
0.00207983
-0.141805
0.0984535
-0.140037
0.0942913
-0.138181
0.0902827
-0.136236
0.0864341
-0.134209
0.0827197
-0.132094
0.0791374
-0.129916
0.075701
-0.127685
0.0723859
-0.125402
0.0691999
-0.123076
0.0661292
-0.120711
0.0631718
-0.118321
0.0603237
-0.115904
0.0575867
-0.113472
0.0549494
-0.111028
0.0524107
-0.10858
0.0499695
-0.106131
0.0476196
-0.103678
0.0453572
-0.101233
0.0431789
-0.0987946
0.0410808
-0.0963738
0.0390654
-0.0939663
0.0371279
-0.0915738
0.0352606
-0.0892077
0.0334614
-0.086861
0.0317352
-0.0845351
0.0300694
-0.0822416
0.0284754
-0.0799744
0.026932
-0.077734
0.0254518
-0.0755242
0.0240284
-0.0733467
0.0226608
-0.0712064
0.0213431
-0.0690939
0.0200779
-0.0670155
0.0188585
-0.0649733
0.01769
-0.0629695
0.0165624
-0.0609963
0.0154856
-0.0590653
0.0144446
-0.0571637
0.0134493
-0.0553077
0.0124945
-0.0534847
0.0115703
-0.0516958
0.0106914
-0.0499526
0.00984781
-0.0482369
0.00903455
-0.0465647
0.00825631
-0.0449323
0.00751301
-0.0433314
0.00679499
-0.0417631
0.00611162
-0.040243
0.00207913
-0.137562
0.0985533
-0.135987
0.0944033
-0.134317
0.0904272
-0.132537
0.0865836
-0.130665
0.0828905
-0.128711
0.0793367
-0.126688
0.0759091
-0.124598
0.0726139
-0.122449
0.0694327
-0.120252
0.0663757
-0.118021
0.0634393
-0.115754
0.0606048
-0.113458
0.0578775
-0.111137
0.0552525
-0.108807
0.0527285
-0.106466
0.0502969
-0.10411
0.047948
-0.101758
0.0457002
-0.0994051
0.0435289
-0.0970573
0.0414416
-0.0947275
0.0394345
-0.0923999
0.037499
-0.0900885
0.0356426
-0.0877974
0.0338503
-0.0855243
0.0321248
-0.0832671
0.0304672
-0.0810423
0.0288701
-0.0788353
0.0273362
-0.0766585
0.0258566
-0.0745113
0.0244388
-0.0723887
0.0230704
-0.0703023
0.0217567
-0.0682417
0.0204909
-0.0662196
0.019282
-0.0642289
0.0181141
-0.0622714
0.0169919
-0.0603442
0.0159102
-0.0584538
0.0148741
-0.0565976
0.0138786
-0.0547818
0.0129234
-0.0529937
0.0120036
-0.0512445
0.011119
-0.0495309
0.0102697
-0.0478542
0.00946503
-0.0462158
0.00868565
-0.0446122
0.00793617
-0.0430349
0.00721655
-0.0415044
0.00653633
-0.0400075
0.00587615
-0.0385401
0.00207362
-0.13334
0.0986083
-0.131935
0.0945013
-0.130445
0.0905308
-0.128825
0.0867158
-0.127118
0.0830363
-0.125318
0.0794975
-0.12344
0.0760885
-0.121495
0.0728057
-0.119484
0.0696494
-0.117427
0.0666084
-0.115324
0.063678
-0.113171
0.0608559
-0.110998
0.0581446
-0.108789
0.0555292
-0.106566
0.0530112
-0.104328
0.0505906
-0.102078
0.0482648
-0.099822
0.0460118
-0.0975613
0.0438564
-0.0953095
0.041781
-0.0930595
0.0397736
-0.0908117
0.0378463
-0.0885802
0.0359906
-0.0863626
0.0342079
-0.0841645
0.0324905
-0.0819822
0.0308398
-0.0798198
0.0292447
-0.0776814
0.0277163
-0.0755708
0.0262484
-0.073481
0.0248263
-0.0714172
0.0234673
-0.0693883
0.0221564
-0.0673833
0.0208982
-0.0654084
0.0196798
-0.0634639
0.018517
-0.0615523
0.017395
-0.0596706
0.0163183
-0.0578259
0.0152823
-0.0560098
0.0142863
-0.0542339
0.0133307
-0.0524855
0.0124152
-0.0507758
0.0115349
-0.0490964
0.0106845
-0.0474536
0.00986913
-0.0458442
0.00909342
-0.0442692
0.00834264
-0.0427299
0.00763113
-0.0412275
0.00693956
-0.0397486
0.00627746
-0.0383135
0.0056496
-0.0369137
0.00207286
-0.129093
0.0986432
-0.127881
0.0945548
-0.126549
0.0906058
-0.125105
0.0868107
-0.123558
0.0831561
-0.121917
0.079636
-0.120188
0.0762456
-0.118386
0.0729801
-0.116515
0.0698361
-0.114586
0.0668075
-0.112606
0.0638907
-0.110581
0.0610882
-0.108524
0.0583816
-0.106428
0.0557835
-0.104318
0.0532814
-0.102186
0.0508691
-0.100032
0.0485444
-0.0978681
0.0463109
-0.0957069
0.0441575
-0.0935399
0.0420868
-0.0913697
0.0400912
-0.0892116
0.0381735
-0.0870599
0.036326
-0.0849222
0.0345502
-0.0827927
0.0328361
-0.080684
0.0311923
-0.0785889
0.0296089
-0.0765179
0.0280812
-0.074466
0.0266116
-0.0724337
0.0252011
-0.0704323
0.0238414
-0.0684533
0.0225324
-0.0665009
0.021274
-0.0645765
0.0200663
-0.0626831
0.018899
-0.0608174
0.0177821
-0.0589812
0.0167056
-0.0571816
0.0156741
-0.0554103
0.0146829
-0.0536695
0.0137218
-0.0519605
0.0128056
-0.0502851
0.0119245
-0.0486445
0.011083
-0.0470357
0.0102666
-0.0454597
0.00948463
-0.0439131
0.00873732
-0.0424067
0.00801951
-0.0409274
0.00733106
-0.039481
0.00667189
-0.038078
0.00604193
-0.0366957
0.00543163
-0.0353492
0.00206739
-0.124848
0.0986466
-0.123801
0.0945633
-0.122648
0.0906535
-0.121379
0.0868796
-0.11999
0.0832423
-0.118503
0.0797421
-0.116922
0.0763703
-0.115258
0.0731172
-0.113525
0.0699905
-0.111734
0.0669842
-0.10988
0.0640821
-0.107977
0.0612869
-0.106033
0.0585976
-0.104055
0.0560091
-0.10205
0.0535153
-0.100018
0.051114
-0.097965
0.0488026
-0.0959073
0.0465836
-0.0938358
0.0444398
-0.0917548
0.0423724
-0.0896742
0.0403913
-0.0876022
0.0384819
-0.085529
0.0366426
-0.0834649
0.0348687
-0.0814076
0.0331651
-0.0793662
0.0315183
-0.0773349
0.0299382
-0.0753312
0.0284222
-0.0733417
0.0269568
-0.0713705
0.0255483
-0.0694252
0.0241941
-0.0674988
0.0228869
-0.0656024
0.0216339
-0.0637291
0.0204267
-0.0618821
0.0192652
-0.0600667
0.0181483
-0.0582757
0.0170766
-0.0565209
0.0160449
-0.0547895
0.0150533
-0.0530882
0.0141016
-0.0514234
0.0131847
-0.0497821
0.0123027
-0.0481753
0.0114553
-0.0466001
0.0106474
-0.0450573
0.00986426
-0.043544
0.00911555
-0.0420656
0.0083962
-0.040614
0.00770613
-0.0391998
0.00704995
-0.0378194
0.00641323
-0.0364639
0.00581012
-0.0351441
0.00522648
-0.0338561
0.00206651
-0.120591
0.0986118
-0.119733
0.0945786
-0.118758
0.090674
-0.117644
0.0869186
-0.116412
0.0833026
-0.115079
0.0798183
-0.113645
0.0764651
-0.112124
0.0732369
-0.110534
0.0701262
-0.108869
0.0671259
-0.107137
0.0642411
-0.105363
0.0614682
-0.103539
0.0587934
-0.101672
0.0562146
-0.0997727
0.0537318
-0.0978482
0.0513451
-0.0958955
0.0490446
-0.0939324
0.0468276
-0.0919456
0.0446934
-0.0899591
0.0426442
-0.0879683
0.0406664
-0.0859685
0.0387576
-0.0839737
0.0369266
-0.0819818
0.0351596
-0.0800044
0.0334655
-0.0780316
0.0318305
-0.0760725
0.0302559
-0.0741298
0.0287369
-0.0721991
0.0272796
-0.0702902
0.0258766
-0.068406
0.0245291
-0.0665357