/*--------------------------------*- C++ -*----------------------------------*\
  =========                 |
  \\      /  F ield         | OpenFOAM: The Open Source CFD Toolbox
   \\    /   O peration     | Website:  https://openfoam.org
    \\  /    A nd           | Version:  7
     \\/     M anipulation  |
\*---------------------------------------------------------------------------*/
FoamFile
{
    version     2.0;
    format      ascii;
    class       volVectorField;
    location    "600";
    object      U;
}
// * * * * * * * * * * * * * * * * * * * * * * * * * * * * * * * * * * * * * //

dimensions      [0 1 -1 0 0 0 0];

internalField   nonuniform List<vector> 
23052
(
(49.7449 13.1421 -1.05685e-17)
(49.7407 13.1471 0)
(49.7947 13.1812 5.02182e-18)
(49.7374 13.1531 0)
(49.7859 13.1828 2.19141e-17)
(49.8124 13.1674 2.7328e-18)
(49.7334 13.1594 5.92492e-18)
(49.7782 13.1854 1.15109e-18)
(49.8057 13.1726 -3.13124e-18)
(49.8274 13.1433 9.95858e-18)
(49.7296 13.1657 4.50595e-17)
(49.7718 13.1882 -3.54403e-17)
(49.7993 13.1776 -6.46444e-18)
(49.8199 13.1481 6.80179e-18)
(49.8392 13.1289 4.14978e-18)
(49.8547 13.1062 4.00224e-18)
(49.726 13.1721 1.47091e-18)
(49.766 13.1913 0)
(49.7931 13.1823 -4.51459e-17)
(49.8128 13.1531 6.73258e-18)
(49.8315 13.1334 1.21925e-17)
(49.8468 13.1125 1.24023e-17)
(49.8598 13.0885 -1.00502e-18)
(49.8681 13.0712 0)
(49.7226 13.1784 1.12625e-17)
(49.7608 13.1947 6.48386e-17)
(49.7873 13.1869 5.13064e-17)
(49.8061 13.1581 -2.95982e-17)
(49.8241 13.1382 -6.24292e-17)
(49.8389 13.1171 -3.36809e-17)
(49.8515 13.0948 4.42551e-18)
(49.8629 13.0704 -1.20088e-18)
(49.8693 13.052 7.44984e-22)
(49.7196 13.1845 -6.71602e-17)
(49.7559 13.1981 -6.52791e-17)
(49.7818 13.1913 -2.75106e-17)
(49.7997 13.1629 2.18567e-17)
(49.8169 13.1429 -9.17741e-18)
(49.8312 13.1221 2.59639e-17)
(49.8432 13.0994 -4.83105e-18)
(49.8542 13.0767 0)
(49.8637 13.0512 0)
(49.8688 13.0317 0)
(49.7168 13.1906 1.05843e-17)
(49.7514 13.2016 0)
(49.7766 13.1956 1.38217e-17)
(49.7936 13.1678 1.47285e-17)
(49.81 13.1476 -2.62548e-17)
(49.8237 13.127 -2.72418e-17)
(49.8352 13.1045 -4.80787e-17)
(49.8454 13.0814 -1.05963e-17)
(49.8547 13.0577 0)
(49.8628 13.0308 -1.23292e-17)
(49.8664 13.0101 -1.51434e-20)
(49.7144 13.1965 -1.43955e-16)
(49.7471 13.2052 0)
(49.7718 13.1999 0)
(49.7878 13.1725 -6.40852e-17)
(49.8034 13.1524 7.54511e-17)
(49.8165 13.132 4.51584e-17)
(49.8274 13.1095 3.87279e-17)
(49.837 13.0865 -2.19095e-17)
(49.8455 13.0625 -5.57079e-18)
(49.8533 13.0376 1.87082e-17)
(49.8599 13.0093 -1.53976e-17)
(49.8623 12.9873 1.3741e-20)
(49.7122 13.2022 1.1577e-16)
(49.7432 13.2088 0)
(49.7672 13.204 -1.03476e-16)
(49.7823 13.1773 4.74619e-17)
(49.7971 13.1571 0)
(49.8096 13.1369 6.6029e-17)
(49.8198 13.1146 -9.73512e-18)
(49.8287 13.0917 4.27826e-17)
(49.8365 13.0678 0)
(49.8435 13.0426 3.21718e-17)
(49.8501 13.0165 6.92662e-18)
(49.8554 12.9866 3.74617e-18)
(49.8564 12.9632 0)
(49.7102 13.2078 -2.34155e-17)
(49.7396 13.2125 3.19529e-17)
(49.7629 13.2082 -1.87426e-17)
(49.7771 13.1819 -1.59675e-17)
(49.791 13.1617 1.73413e-17)
(49.8029 13.1418 1.67506e-18)
(49.8125 13.1197 8.27069e-17)
(49.8207 13.0969 -1.13658e-17)
(49.8279 13.0732 -4.82165e-17)
(49.8342 13.0482 5.27755e-19)
(49.8398 13.0218 2.87356e-17)
(49.8452 12.9942 0)
(49.849 12.9626 -2.01151e-18)
(49.8487 12.9379 0)
(49.7085 13.2132 -1.53999e-16)
(49.7361 13.2161 0)
(49.7588 13.2122 1.06105e-16)
(49.7721 13.1866 1.63789e-17)
(49.7852 13.1664 0)
(49.7964 13.1467 -1.55224e-16)
(49.8054 13.1249 -8.27113e-17)
(49.813 13.1022 1.1587e-17)
(49.8195 13.0787 6.00055e-17)
(49.825 13.0539 -3.9631e-17)
(49.8299 13.0277 5.50268e-19)
(49.8342 12.9999 -3.88193e-17)
(49.8384 12.9708 4.34961e-18)
(49.8408 12.9375 1.16421e-17)
(49.8391 12.9113 -2.28766e-20)
(49.707 13.2185 -3.34379e-17)
(49.733 13.2198 -3.15638e-17)
(49.755 13.2162 1.65018e-17)
(49.7674 13.1911 3.46326e-17)
(49.7797 13.1711 0)
(49.7902 13.1516 -1.58223e-18)
(49.7986 13.13 0)
(49.8055 13.1076 -9.27136e-17)
(49.8113 13.0842 -4.93318e-17)
(49.8162 13.0596 1.3797e-17)
(49.8203 13.0337 -8.07165e-17)
(49.8239 13.0062 7.11439e-17)
(49.8269 12.977 2.57359e-17)
(49.8299 12.9463 -8.95869e-18)
(49.8308 12.9111 -5.09813e-18)
(49.8277 12.8835 2.53635e-20)
(49.7057 13.2236 1.58526e-16)
(49.73 13.2234 1.34574e-16)
(49.7514 13.2201 3.28704e-17)
(49.763 13.1957 -1.71864e-17)
(49.7744 13.1757 -1.85925e-17)
(49.7843 13.1565 1.00968e-16)
(49.792 13.1352 -2.23267e-17)
(49.7983 13.113 -1.67538e-18)
(49.8035 13.0898 6.29782e-17)
(49.8077 13.0655 4.172e-17)
(49.811 13.0398 4.41654e-17)
(49.8138 13.0126 -2.39593e-17)
(49.8161 12.9838 -6.90933e-17)
(49.8178 12.953 4.32074e-18)
(49.8195 12.9206 -5.01767e-18)
(49.8189 12.8836 2.73827e-18)
(49.8142 12.8544 -2.81422e-20)
(49.7046 13.2285 -1.37369e-16)
(49.7273 13.227 -1.33069e-16)
(49.748 13.2239 6.82717e-17)
(49.7588 13.2001 -1.86354e-17)
(49.7694 13.1803 1.56814e-16)
(49.7786 13.1614 8.33672e-17)
(49.7857 13.1404 -1.33813e-16)
(49.7913 13.1184 1.1777e-16)
(49.7959 13.0955 -1.0355e-16)
(49.7994 13.0714 -8.27774e-17)
(49.8021 13.046 1.54417e-17)
(49.8041 13.0191 -4.8838e-17)
(49.8055 12.9906 4.41504e-17)
(49.8064 12.9603 -9.347e-18)
(49.8068 12.9279 1.58988e-17)
(49.8072 12.8939 0)
(49.805 12.855 9.38137e-18)
(49.7988 12.8242 3.12035e-20)
(49.7037 13.2333 1.71478e-16)
(49.7248 13.2306 0)
(49.7448 13.2276 3.53183e-17)
(49.7548 13.2045 -1.67058e-16)
(49.7646 13.1849 -1.58088e-16)
(49.7732 13.1663 -1.05139e-16)
(49.7796 13.1455 1.80634e-16)
(49.7846 13.1238 -1.20545e-18)
(49.7885 13.1012 -1.64673e-18)
(49.7914 13.0774 0)
(49.7934 13.0523 1.48571e-17)
(49.7947 13.0257 4.94725e-17)
(49.7953 12.9976 -2.66865e-17)
(49.7954 12.9677 -3.87241e-17)
(49.795 12.9359 0)
(49.794 12.9018 1.31367e-19)
(49.793 12.866 -6.0307e-18)
(49.789 12.8252 3.54243e-18)
(49.7812 12.7929 -3.46214e-20)
(49.7029 13.2379 -2.22514e-16)
(49.7225 13.2341 1.05943e-16)
(49.7418 13.2313 0)
(49.751 13.2089 2.66953e-16)
(49.76 13.1894 -1.98222e-17)
(49.7679 13.1711 4.30828e-17)
(49.7738 13.1507 2.39266e-17)
(49.7782 13.1293 0)
(49.7815 13.1069 1.3142e-16)
(49.7837 13.0834 -1.15432e-16)
(49.785 13.0586 0)
(49.7856 13.0324 -6.75306e-17)
(49.7855 13.0047 0)
(49.7847 12.9752 5.90484e-17)
(49.7835 12.9439 2.17845e-17)
(49.7817 12.9105 -7.0575e-17)
(49.7792 12.8747 4.48986e-17)
(49.7768 12.8371 -1.39821e-17)
(49.771 12.7944 -1.91861e-17)
(49.7614 12.7605 -2.326e-21)
(49.7023 13.2423 3.14891e-16)
(49.7204 13.2376 -1.45073e-16)
(49.739 13.2349 0)
(49.7475 13.2131 4.20353e-17)
(49.7557 13.1939 0)
(49.763 13.1759 -2.23994e-17)
(49.7682 13.1558 -9.19163e-17)
(49.772 13.1347 1.01221e-16)
(49.7747 13.1127 0)
(49.7763 13.0895 1.1561e-16)
(49.7769 13.065 0)
(49.7768 13.0392 5.00806e-17)
(49.776 13.0119 -1.89741e-17)
(49.7745 12.9829 2.06233e-17)
(49.7724 12.952 -9.7791e-17)
(49.7697 12.9192 1.09285e-17)
(49.7664 12.8842 -3.91491e-17)
(49.7624 12.8467 3.57626e-17)
(49.7585 12.8072 -3.04501e-19)
(49.7508 12.7626 1.29481e-17)
(49.7394 12.7271 8.25435e-20)
(49.7018 13.2466 -2.64934e-16)
(49.7184 13.241 -3.34464e-16)
(49.7364 13.2385 -1.84224e-16)
(49.7442 13.2173 2.34521e-18)
(49.7516 13.1984 -1.98189e-17)
(49.7582 13.1807 0)
(49.7628 13.161 4.77384e-17)
(49.766 13.1402 -1.26501e-16)
(49.7681 13.1185 0)
(49.7691 13.0956 0)
(49.7691 13.0715 -1.28411e-16)
(49.7684 13.046 1.77285e-17)
(49.7668 13.0191 -5.7014e-17)
(49.7646 12.9906 4.06528e-17)
(49.7617 12.9602 2.23726e-17)
(49.7582 12.9279 6.01708e-17)
(49.754 12.8936 0)
(49.7492 12.8569 -1.45603e-17)
(49.7436 12.8177 3.15888e-17)
(49.738 12.7764 8.36466e-18)
(49.7283 12.7299 -9.18053e-18)
(49.715 12.6928 5.67947e-21)
(49.7015 13.2507 2.96295e-16)
(49.7166 13.2444 6.41393e-16)
(49.7339 13.2419 -2.85958e-18)
(49.741 13.2215 -1.59982e-16)
(49.7477 13.2028 1.94625e-16)
(49.7537 13.1854 1.37415e-16)
(49.7577 13.1661 0)
(49.7603 13.1456 7.91438e-17)
(49.7618 13.1243 0)
(49.7622 13.1017 8.99589e-17)
(49.7616 13.078 2.58883e-16)
(49.7602 13.0529 0)
(49.758 13.0264 5.68419e-17)
(49.755 12.9983 0)
(49.7514 12.9685 -1.11622e-16)
(49.7471 12.9368 0)
(49.7421 12.903 -1.29059e-17)
(49.7363 12.8671 0)
(49.73 12.8288 -3.96979e-17)
(49.7226 12.7878 -8.96124e-18)
(49.7153 12.7447 0)
(49.7035 12.6963 -5.4089e-18)
(49.6882 12.6577 -4.91204e-20)
(49.7012 13.2547 5.97373e-18)
(49.715 13.2478 -6.17136e-16)
(49.7316 13.2453 1.12473e-16)
(49.738 13.2256 3.9984e-17)
(49.7439 13.2072 -1.73632e-16)
(49.7493 13.1901 -2.06522e-16)
(49.7528 13.1712 -1.74333e-16)
(49.7548 13.151 -2.11203e-16)
(49.7557 13.13 0)
(49.7556 13.1079 -1.21096e-16)
(49.7544 13.0845 -2.3051e-16)
(49.7524 13.0599 1.42613e-16)
(49.7495 13.0338 0)
(49.7459 13.0062 8.36773e-17)
(49.7415 12.9769 1.1317e-16)
(49.7364 12.9457 0)
(49.7306 12.9126 5.38994e-17)
(49.724 12.8773 7.39189e-17)
(49.7167 12.8398 1.64945e-17)
(49.7086 12.7998 8.51931e-18)
(49.6995 12.7571 -5.72694e-19)
(49.6903 12.7122 0)
(49.6763 12.6619 -1.20194e-17)
(49.6589 12.6218 -5.77933e-20)
(49.7011 13.2585 3.40703e-16)
(49.7135 13.251 3.11182e-16)
(49.7295 13.2486 -1.96496e-16)
(49.7353 13.2296 0)
(49.7404 13.2115 4.52535e-17)
(49.7452 13.1948 2.40148e-17)
(49.7481 13.1762 1.99422e-16)
(49.7496 13.1565 2.9501e-16)
(49.7499 13.1358 0)
(49.7492 13.1141 -1.24251e-16)
(49.7475 13.0911 1.32414e-16)
(49.7448 13.0669 -1.69287e-17)
(49.7413 13.0412 0)
(49.737 13.0141 -8.3808e-17)
(49.7319 12.9853 0)
(49.7261 12.9547 -2.42306e-17)
(49.7195 12.9222 -3.99628e-17)
(49.7121 12.8877 -5.88176e-17)
(49.7039 12.8509 -1.57132e-17)
(49.6949 12.8117 -6.18088e-17)
(49.6851 12.7701 0)
(49.674 12.7256 1.03315e-17)
(49.663 12.6789 1.16291e-17)
(49.6466 12.6269 1.2874e-17)
(49.6271 12.5853 -3.70789e-21)
(49.7011 13.2621 4.07159e-17)
(49.7122 13.2542 0)
(49.7274 13.2519 3.96025e-16)
(49.7326 13.2335 4.15722e-17)
(49.7371 13.2158 0)
(49.7413 13.1994 1.21055e-16)
(49.7436 13.1812 -5.10577e-17)
(49.7445 13.1619 -2.168e-16)
(49.7443 13.1416 2.85858e-17)
(49.7431 13.1203 2.50711e-16)
(49.7408 13.0977 0)
(49.7375 13.0739 -1.63563e-16)
(49.7334 13.0487 -1.38958e-16)
(49.7285 13.022 0)
(49.7227 12.9937 -2.37705e-17)
(49.7162 12.9637 0)
(49.7088 12.9319 0)
(49.7007 12.898 4.54144e-17)
(49.6917 12.862 6.54589e-17)
(49.6818 12.8237 1.07063e-16)
(49.671 12.783 1.95476e-17)
(49.6593 12.7397 0)
(49.6463 12.6935 -1.21156e-17)
(49.6331 12.645 -3.26131e-17)
(49.6144 12.5913 -6.91168e-18)
(49.5926 12.5482 -4.04216e-21)
(49.7011 13.2656 -6.29456e-16)
(49.711 13.2574 -4.1757e-17)
(49.7256 13.2551 4.08566e-18)
(49.7302 13.2373 2.60953e-16)
(49.734 13.22 0)
(49.7376 13.204 -1.68874e-16)
(49.7394 13.1862 2.33724e-16)
(49.7397 13.1673 2.49592e-16)
(49.739 13.1474 0)
(49.7372 13.1264 -1.26527e-16)
(49.7343 13.1043 -1.72474e-16)
(49.7306 13.0809 3.78137e-17)
(49.7259 13.0561 1.78089e-16)
(49.7203 13.03 2.21423e-17)
(49.7139 13.0022 2.40259e-17)
(49.7067 12.9728 5.08837e-17)
(49.6986 12.9416 8.25923e-17)
(49.6897 12.9084 -1.65465e-16)
(49.6799 12.8732 -1.14561e-16)
(49.6692 12.8357 5.842e-19)
(49.6576 12.7959 0)
(49.6449 12.7536 3.27772e-17)
(49.6313 12.7086 -5.96448e-17)
(49.6161 12.6608 3.85096e-17)
(49.6008 12.6106 -2.17273e-17)
(49.5796 12.5551 -1.19449e-17)
(49.5555 12.5107 1.51575e-19)
(49.7012 13.269 -2.10597e-18)
(49.71 13.2605 2.93165e-16)
(49.7238 13.2582 -6.60081e-16)
(49.7279 13.2411 -1.75583e-16)
(49.731 13.2242 1.4246e-16)
(49.734 13.2085 0)
(49.7353 13.1912 -2.62184e-16)
(49.7351 13.1726 2.13145e-18)
(49.7339 13.1531 0)
(49.7316 13.1326 0)
(49.7282 13.1109 1.73502e-16)
(49.7238 13.0879 3.65168e-17)
(49.7186 13.0636 1.22562e-16)
(49.7124 13.038 2.23897e-17)
(49.7054 13.0108 1.20684e-18)
(49.6975 12.9819 -2.5037e-17)
(49.6888 12.9513 -2.6332e-17)
(49.6791 12.9188 4.43137e-17)
(49.6686 12.8844 4.99031e-17)
(49.6571 12.8477 -8.97827e-17)
(49.6447 12.8088 -5.91089e-17)
(49.6312 12.7674 -4.3217e-17)
(49.6165 12.7236 3.5144e-17)
(49.6008 12.677 -3.96862e-17)
(49.5835 12.6275 2.85983e-17)
(49.566 12.5756 7.86599e-18)
(49.5422 12.5186 4.22523e-18)
(49.5157 12.4728 -1.67268e-19)
(49.7015 13.2722 3.26641e-16)
(49.709 13.2635 -3.38333e-16)
(49.7222 13.2612 3.92112e-17)
(49.7257 13.2448 -4.57356e-17)
(49.7283 13.2283 -1.41398e-16)
(49.7307 13.213 5.12396e-17)
(49.7314 13.1961 0)
(49.7308 13.1779 -3.99095e-16)
(49.729 13.1589 0)
(49.7262 13.1387 -9.78115e-17)
(49.7223 13.1175 -3.5948e-17)
(49.7174 13.095 -3.69883e-17)
(49.7116 13.0712 -3.47361e-16)
(49.7049 13.046 0)
(49.6972 13.0193 -2.33318e-17)
(49.6887 12.9911 -2.53032e-17)
(49.6793 12.9611 -1.12307e-16)
(49.669 12.9293 1.2225e-16)
(49.6577 12.8955 -1.62916e-17)
(49.6455 12.8597 1.87757e-17)
(49.6323 12.8217 1.80084e-16)
(49.6179 12.7813 4.38686e-17)
(49.6025 12.7385 4.79825e-17)
(49.5858 12.693 1.31209e-16)
(49.5679 12.6449 -4.29526e-17)
(49.5483 12.5938 0)
(49.5285 12.5403 0)
(49.5022 12.4817 -9.61832e-18)
(49.4731 12.4347 -9.70655e-20)
(49.7017 13.2753 2.92534e-16)
(49.7082 13.2664 0)
(49.7207 13.2642 3.41029e-16)
(49.7237 13.2484 -4.11798e-16)
(49.7256 13.2324 -1.53866e-18)
(49.7275 13.2174 1.60809e-18)
(49.7278 13.2009 -8.10828e-17)
(49.7266 13.1832 2.76123e-17)
(49.7244 13.1646 -6.19184e-17)
(49.721 13.1449 4.31789e-16)
(49.7166 13.124 7.15707e-17)
(49.7112 13.102 3.74611e-17)
(49.7049 13.0787 1.64551e-16)
(49.6976 13.054 4.46857e-17)
(49.6894 13.0279 0)
(49.6803 13.0002 2.68955e-17)
(49.6702 12.9709 2.92277e-17)
(49.6593 12.9398 0)
(49.6473 12.9068 0)
(49.6344 12.8717 -9.27018e-17)
(49.6204 12.8346 -1.80259e-16)
(49.6053 12.7951 -2.19738e-16)
(49.589 12.7533 -1.21027e-16)
(49.5715 12.709 2.95305e-19)
(49.5527 12.6621 4.36196e-17)
(49.5326 12.6124 8.9104e-19)
(49.5106 12.5598 0)
(49.4884 12.5047 -3.07393e-19)
(49.4594 12.4447 0)
(49.4278 12.3964 -1.11591e-20)
(49.702 13.2782 3.80686e-17)
(49.7075 13.2693 -3.09422e-16)
(49.7193 13.2671 4.45194e-17)
(49.7218 13.252 3.69963e-16)
(49.7232 13.2364 2.47946e-16)
(49.7245 13.2217 -1.04593e-16)
(49.7243 13.2057 -5.4239e-17)
(49.7226 13.1884 2.70299e-17)
(49.7199 13.1702 -6.27887e-17)
(49.7161 13.151 -5.04099e-16)
(49.7112 13.1306 -7.11305e-17)
(49.7053 13.109 3.79355e-17)
(49.6985 13.0862 0)
(49.6906 13.0621 2.31291e-17)
(49.6819 13.0365 -2.19729e-16)
(49.6722 13.0094 -2.71555e-17)
(49.6615 12.9807 1.16688e-16)
(49.6499 12.9502 -1.55725e-16)
(49.6373 12.918 -1.71307e-16)
(49.6237 12.8837 7.3907e-17)
(49.6089 12.8474 1.00396e-16)
(49.5931 12.8089 8.81859e-17)
(49.576 12.7681 1.20065e-16)
(49.5578 12.7249 -1.1961e-16)
(49.5381 12.6791 5.82425e-17)
(49.5171 12.6307 0)
(49.4947 12.5796 3.60682e-17)
(49.4703 12.5255 -4.84848e-17)
(49.4456 12.4689 1.03159e-17)
(49.4139 12.4075 -1.16806e-17)
(49.3797 12.358 2.17433e-19)
(49.7024 13.281 -3.42193e-16)
(49.7068 13.2721 3.57318e-16)
(49.718 13.2699 -3.57369e-16)
(49.7201 13.2555 -9.44412e-17)
(49.7209 13.2403 -1.48768e-16)
(49.7217 13.2261 1.58221e-16)
(49.721 13.2105 -5.50833e-17)
(49.7189 13.1936 -1.70946e-18)
(49.7157 13.1759 2.55192e-16)
(49.7114 13.1571 5.77521e-16)
(49.706 13.1371 -1.82758e-16)
(49.6997 13.116 -1.18972e-16)
(49.6923 13.0937 0)
(49.684 13.0701 -2.33759e-17)
(49.6747 13.0451 1.72616e-16)
(49.6644 13.0186 2.14336e-16)
(49.6532 12.9905 -8.7316e-17)
(49.641 12.9607 9.20348e-19)
(49.6277 12.9292 1.36716e-16)
(49.6134 12.8957 3.64156e-17)
(49.598 12.8603 0)
(49.5814 12.8227 1.1208e-16)
(49.5636 12.7829 0)
(49.5446 12.7407 5.31308e-17)
(49.5242 12.6961 2.94709e-17)
(49.5024 12.649 6.41193e-17)
(49.479 12.5991 -1.23475e-16)
(49.4543 12.5466 1.97128e-17)
(49.4274 12.491 -5.75784e-19)
(49.4001 12.433 2.36351e-17)
(49.3656 12.3703 -6.59588e-18)
(49.3289 12.3197 0)
(49.7028 13.2837 0)
(49.7063 13.2748 0)
(49.7168 13.2727 3.60659e-16)
(49.7185 13.2589 0)
(49.7187 13.2442 1.01672e-16)
(49.719 13.2303 -5.29424e-17)
(49.7178 13.2152 -2.89206e-17)
(49.7153 13.1988 -1.60602e-18)
(49.7116 13.1815 -4.82743e-16)
(49.7069 13.1631 1.71614e-18)
(49.7011 13.1437 3.77682e-17)
(49.6943 13.123 3.7956e-17)
(49.6864 13.1012 -1.71441e-16)
(49.6776 13.0781 -2.36229e-17)
(49.6678 13.0537 2.24243e-16)
(49.657 13.0277 -4.31642e-16)
(49.6452 13.0003 -3.00245e-17)
(49.6324 12.9712 1.59382e-16)
(49.6185 12.9404 1.77241e-18)
(49.6036 12.9077 -1.93287e-17)
(49.5875 12.8731 2.1079e-17)
(49.5702 12.8364 -8.93511e-17)
(49.5517 12.7976 1.30648e-18)
(49.532 12.7565 -1.3477e-16)
(49.5108 12.713 -5.84819e-17)
(49.4882 12.667 -1.44064e-16)
(49.4642 12.6185 7.03042e-17)
(49.4384 12.5673 1.88304e-17)
(49.4112 12.5134 1.09117e-17)
(49.3817 12.4565 5.8087e-17)
(49.3519 12.3971 -1.25064e-17)
(49.3146 12.3332 6.87802e-18)
(49.2752 12.2815 0)
(49.7033 13.2863 3.97908e-16)
(49.7059 13.2774 -4.56896e-17)
(49.7157 13.2754 -3.70216e-16)
(49.717 13.2622 0)
(49.7167 13.2479 -5.24076e-17)
(49.7165 13.2345 -5.37726e-17)
(49.7149 13.2198 0)
(49.7119 13.2039 3.05797e-16)
(49.7078 13.187 -1.5503e-18)
(49.7026 13.1691 -5.92821e-16)
(49.6964 13.1501 0)
(49.6891 13.13 1.20876e-16)
(49.6808 13.1087 1.28208e-16)
(49.6715 13.0861 0)
(49.6612 13.0622 -4.0397e-16)
(49.6498 13.0369 -1.03522e-18)
(49.6375 13.0101 3.02909e-17)
(49.6241 12.9817 1.5976e-16)
(49.6097 12.9516 -3.39979e-17)
(49.5941 12.9197 1.9463e-18)
(49.5774 12.8859 -1.66622e-16)
(49.5595 12.8501 -2.19707e-17)
(49.5403 12.8122 0)
(49.5199 12.7721 -2.66071e-17)
(49.498 12.7298 -8.92185e-17)
(49.4747 12.685 -2.09443e-19)
(49.4499 12.6377 0)
(49.4234 12.5879 -9.74813e-17)
(49.3953 12.5354 0)
(49.3655 12.4801 -1.16724e-16)
(49.3334 12.4219 1.3173e-17)
(49.3009 12.3612 -4.27036e-17)
(49.2609 12.2962 7.95748e-18)
(49.2188 12.2434 3.02993e-19)
(49.7038 13.2887 -3.63194e-16)
(49.7055 13.28 -9.39964e-17)
(49.7147 13.278 7.98231e-16)
(49.7156 13.2654 -5.04197e-17)
(49.7148 13.2517 -5.321e-17)
(49.7141 13.2387 2.76414e-16)
(49.7121 13.2244 -2.97578e-17)
(49.7087 13.2089 0)
(49.7042 13.1925 2.65382e-16)
(49.6986 13.1751 2.82166e-16)
(49.6919 13.1566 0)
(49.6842 13.137 -2.04526e-16)
(49.6754 13.1162 0)
(49.6656 13.0941 4.61154e-17)
(49.6549 13.0708 2.03009e-16)
(49.643 13.0461 2.46461e-16)
(49.6302 13.0199 0)
(49.6163 12.9921 -1.60589e-16)
(49.6012 12.9627 -1.4071e-16)
(49.5851 12.9316 -1.53043e-16)
(49.5678 12.8986 2.92125e-16)
(49.5492 12.8637 -1.17398e-18)
(49.5294 12.8268 0)
(49.5083 12.7877 1.35723e-16)
(49.4857 12.7465 1.18034e-16)
(49.4617 12.7028 6.45916e-17)
(49.4362 12.6568 1.82013e-17)
(49.409 12.6083 1.55269e-16)
(49.3802 12.5572 2.07548e-17)
(49.3495 12.5034 -9.55213e-20)
(49.3172 12.4469 3.88419e-17)
(49.2824 12.3875 -1.37794e-17)
(49.2472 12.3255 1.51021e-17)
(49.2044 12.2594 -8.2993e-18)
(49.1596 12.2057 -3.15726e-19)
(49.7044 13.2911 -8.58075e-17)
(49.7053 13.2825 4.80306e-16)
(49.7138 13.2806 -3.32235e-16)
(49.7143 13.2686 4.04456e-16)
(49.713 13.2553 5.25451e-17)
(49.7119 13.2427 -1.6843e-16)
(49.7095 13.229 -6.03669e-17)
(49.7056 13.214 -1.07485e-18)
(49.7007 13.198 0)
(49.6947 13.181 -7.17376e-17)
(49.6876 13.163 3.91538e-17)
(49.6795 13.1439 3.71021e-16)
(49.6703 13.1236 4.33151e-17)
(49.6601 13.1021 0)
(49.6488 13.0793 0)
(49.6365 13.0552 0)
(49.6232 13.0296 0)
(49.6087 13.0026 0)
(49.5932 12.9739 2.83132e-16)
(49.5765 12.9435 1.53643e-16)
(49.5586 12.9114 -1.67231e-16)
(49.5394 12.8773 0)
(49.519 12.8413 1.23955e-16)
(49.4972 12.8033 -1.08817e-16)
(49.474 12.763 -2.89541e-17)
(49.4493 12.7206 -3.33545e-17)
(49.423 12.6758 1.82519e-17)
(49.3952 12.6285 -1.74619e-16)
(49.3656 12.5788 0)
(49.3343 12.5264 4.67153e-17)
(49.3011 12.4714 5.13304e-17)
(49.2662 12.4137 -7.01128e-17)
(49.2287 12.3531 1.58566e-17)
(49.1908 12.2901 8.70721e-18)
(49.1451 12.223 0)
(49.0977 12.1683 -3.62637e-19)
(49.7049 13.2933 0)
(49.7051 13.285 -3.40042e-16)
(49.713 13.2831 3.40581e-16)
(49.7131 13.2717 -4.08651e-16)
(49.7114 13.2589 -4.34499e-16)
(49.7098 13.2468 0)
(49.707 13.2335 6.12345e-17)
(49.7027 13.2189 3.51716e-16)
(49.6974 13.2034 -2.3922e-16)
(49.691 13.1869 0)
(49.6836 13.1694 -1.52673e-18)
(49.675 13.1508 -2.06899e-16)
(49.6654 13.131 1.90188e-18)
(49.6548 13.1101 1.43598e-16)
(49.6431 13.0878 0)
(49.6303 13.0643 -1.95947e-16)
(49.6165 13.0394 2.43098e-16)
(49.6015 13.013 1.31709e-16)
(49.5854 12.985 -1.42487e-16)
(49.5682 12.9554 0)
(49.5497 12.924 -4.32823e-17)
(49.53 12.8909 -1.6033e-16)
(49.509 12.8558 -7.4284e-17)
(49.4866 12.8187 8.10561e-17)
(49.4627 12.7795 -8.87796e-17)
(49.4374 12.7382 0)
(49.4105 12.6945 -1.07942e-16)
(49.382 12.6486 8.72774e-19)
(49.3517 12.6002 2.19355e-17)
(49.3197 12.5492 -9.36791e-17)
(49.2859 12.4957 -1.0262e-16)
(49.2501 12.4396 5.62416e-17)
(49.2125 12.3807 1.5066e-17)
(49.1723 12.3191 -8.43016e-17)
(49.1316 12.2549 -9.08082e-18)
(49.0832 12.1869 0)
(49.033 12.1313 7.73843e-19)
(49.7055 13.2954 -4.21875e-17)
(49.7049 13.2874 0)
(49.7123 13.2856 -7.40639e-16)
(49.712 13.2748 -4.17333e-16)
(49.7099 13.2625 4.39044e-16)
(49.7079 13.2507 0)
(49.7047 13.2379 0)
(49.7 13.2238 -2.89512e-16)
(49.6943 13.2088 2.06119e-16)
(49.6876 13.1928 3.74689e-17)
(49.6797 13.1757 0)
(49.6708 13.1576 3.78619e-16)
(49.6608 13.1384 0)
(49.6497 13.118 -4.86476e-16)
(49.6376 13.0963 5.13308e-17)
(49.6244 13.0734 -2.96598e-17)
(49.6101 13.0491 -2.92495e-17)
(49.5946 13.0233 -3.98057e-16)
(49.5781 12.9961 1.44027e-16)
(49.5603 12.9672 1.16331e-16)
(49.5413 12.9367 -4.35704e-17)
(49.521 12.9044 4.14792e-16)
(49.4994 12.8702 -2.45713e-17)
(49.4764 12.8341 -5.49739e-17)
(49.452 12.7959 2.90204e-17)
(49.426 12.7557 -3.19295e-17)
(49.3985 12.7132 -2.12485e-19)
(49.3693 12.6685 1.56463e-16)
(49.3384 12.6214 -2.08865e-17)
(49.3058 12.5718 1.64608e-16)
(49.2712 12.5198 5.13196e-17)
(49.2348 12.4652 -5.62804e-17)
(49.1964 12.4079 0)
(49.1561 12.348 6.7617e-17)
(49.1132 12.2853 0)
(49.0697 12.22 0)
(49.0185 12.1512 0)
(48.9657 12.0947 -4.19273e-19)
(49.7061 13.2974 -3.38283e-16)
(49.7049 13.2897 0)
(49.7116 13.288 4.52067e-16)
(49.711 13.2777 3.69804e-16)
(49.7085 13.2659 -3.91296e-16)
(49.7061 13.2546 5.95402e-17)
(49.7025 13.2422 2.48363e-16)
(49.6975 13.2286 0)
(49.6914 13.2141 -3.43663e-17)
(49.6843 13.1986 3.65882e-17)
(49.6761 13.182 2.38978e-16)
(49.6667 13.1644 -3.40131e-16)
(49.6564 13.1457 -1.83083e-16)
(49.6449 13.1259 -5.0819e-17)
(49.6324 13.1048 2.63964e-16)
(49.6187 13.0824 1.99059e-16)
(49.604 13.0588 -2.16601e-16)
(49.5881 13.0337 2.67212e-16)
(49.571 13.0071 3.13885e-19)
(49.5528 12.979 -1.57217e-16)
(49.5333 12.9493 4.1761e-17)
(49.5124 12.9178 -1.40438e-16)
(49.4903 12.8845 -2.02724e-16)
(49.4667 12.8494 8.21352e-17)
(49.4417 12.8122 -1.68703e-18)
(49.4151 12.7731 -1.31505e-16)
(49.387 12.7317 1.0663e-16)
(49.3572 12.6882 7.85667e-17)
(49.3257 12.6424 -8.58352e-17)
(49.2924 12.5942 -9.38477e-17)
(49.2572 12.5436 0)
(49.2202 12.4905 1.12537e-16)
(49.1812 12.4348 -1.58035e-17)
(49.1401 12.3765 0)
(49.0971 12.3156 0)
(49.0514 12.2518 2.07846e-17)
(49.0051 12.1856 -2.22399e-17)
(48.9512 12.1159 -6.24192e-18)
(48.8956 12.0585 0)
(49.7067 13.2993 3.8663e-16)
(49.7049 13.2919 0)
(49.711 13.2903 -4.61914e-16)
(49.7101 13.2806 -5.30858e-17)
(49.7072 13.2693 9.07397e-16)
(49.7044 13.2584 -5.89297e-17)
(49.7004 13.2465 -5.64918e-16)
(49.6951 13.2334 2.66877e-16)
(49.6887 13.2193 2.83514e-16)
(49.6812 13.2043 -3.84055e-17)
(49.6726 13.1883 -3.62541e-16)
(49.6629 13.1712 -2.58826e-16)
(49.6522 13.153 2.31829e-16)
(49.6403 13.1337 1.47653e-16)
(49.6274 13.1132 -3.7551e-16)
(49.6134 13.0915 0)
(49.5982 13.0684 3.05007e-17)
(49.5819 13.044 0)
(49.5643 13.0182 3.77138e-17)
(49.5456 12.9908 0)
(49.5256 12.9618 0)
(49.5043 12.9312 4.80175e-17)
(49.4816 12.8988 2.29749e-16)
(49.4575 12.8646 -3.61437e-16)
(49.4319 12.8285 1.19398e-16)
(49.4048 12.7903 1.30264e-16)
(49.376 12.7501 3.69648e-17)
(49.3456 12.7078 -1.18916e-16)
(49.3135 12.6632 8.59816e-17)
(49.2796 12.6164 0)
(49.2438 12.5671 2.6382e-17)
(49.2062 12.5155 -1.68864e-16)
(49.1665 12.4613 -1.57943e-17)
(49.1248 12.4047 1.01232e-16)
(49.0811 12.3454 -7.38814e-17)
(49.0353 12.2834 -6.1191e-17)
(48.9869 12.2188 1.18505e-17)
(48.9378 12.1516 -1.24348e-17)
(48.8812 12.0811 1.33192e-17)
(48.823 12.0229 0)
(49.7074 13.3012 0)
(49.7049 13.294 -3.65046e-16)
(49.7105 13.2925 4.1521e-16)
(49.7093 13.2834 -3.28044e-16)
(49.706 13.2727 -4.59893e-16)
(49.7028 13.2622 -5.45883e-16)
(49.6985 13.2508 1.89884e-16)
(49.6929 13.2381 -2.697e-16)
(49.6861 13.2245 -2.86405e-16)
(49.6783 13.21 0)
(49.6694 13.1945 4.00328e-17)
(49.6593 13.1779 7.40045e-16)
(49.6482 13.1602 -4.58438e-17)
(49.636 13.1415 -1.00524e-16)
(49.6227 13.1216 4.85154e-16)
(49.6083 13.1004 2.98073e-17)
(49.5927 13.078 0)
(49.5759 13.0543 0)
(49.558 13.0291 3.79509e-17)
(49.5388 13.0025 -1.98895e-16)
(49.5183 12.9743 1.73508e-16)
(49.4965 12.9445 -4.83172e-17)
(49.4733 12.913 -5.00563e-17)
(49.4486 12.8797 1.95806e-16)
(49.4225 12.8446 2.96778e-17)
(49.3948 12.8075 -1.64194e-18)
(49.3656 12.7684 3.53014e-17)
(49.3346 12.7272 -7.90353e-17)
(49.3019 12.6839 -2.21139e-17)
(49.2674 12.6383 -9.42211e-17)
(49.231 12.5905 0)
(49.1928 12.5403 1.39036e-18)
(49.1525 12.4876 3.15819e-17)
(49.1102 12.4325 1.64408e-17)
(49.0659 12.3748 5.57767e-17)
(49.0194 12.3146 4.03996e-17)
(48.9709 12.2517 3.29372e-17)
(48.9197 12.1862 -6.02229e-17)
(48.8679 12.1181 3.91544e-20)
(48.8086 12.0468 -1.45198e-17)
(48.7477 11.9877 0)
(49.708 13.3029 -3.49136e-16)
(49.705 13.2961 8.4483e-16)
(49.7101 13.2947 -1.0701e-16)
(49.7085 13.2862 4.42766e-16)
(49.7049 13.2759 -5.77026e-17)
(49.7014 13.2659 9.81986e-16)
(49.6967 13.2549 -1.95165e-16)
(49.6908 13.2428 3.2707e-17)
(49.6837 13.2297 -3.27906e-16)
(49.6755 13.2156 0)
(49.6663 13.2006 3.30171e-16)
(49.6559 13.1846 -3.5235e-16)
(49.6445 13.1674 0)
(49.6319 13.1492 0)
(49.6182 13.1299 -1.08837e-16)
(49.6034 13.1094 2.35386e-16)
(49.5875 13.0876 -2.85124e-16)
(49.5703 13.0645 3.51333e-17)
(49.5519 13.0401 -4.4566e-16)
(49.5323 13.0142 1.2154e-16)
(49.5113 12.9868 1.37695e-19)
(49.489 12.9578 0)
(49.4654 12.9271 2.30195e-16)
(49.4402 12.8948 0)
(49.4136 12.8606 0)
(49.3854 12.8246 3.41397e-17)
(49.3556 12.7866 1.80619e-16)
(49.3241 12.7465 0)
(49.2908 12.7044 6.43877e-17)
(49.2557 12.6601 2.30799e-17)
(49.2188 12.6136 1.03135e-16)
(49.1799 12.5648 2.25482e-16)
(49.1391 12.5136 -3.01113e-17)
(49.0963 12.46 -1.57192e-17)
(49.0513 12.404 0)
(49.0043 12.3454 -2.06409e-17)
(48.9551 12.2842 -6.66562e-17)
(48.9038 12.2205 2.41278e-17)
(48.8499 12.154 3.99167e-17)
(48.7953 12.085 -2.89148e-17)
(48.7333 12.013 7.73895e-18)
(48.6699 11.9531 0)
(49.7087 13.3045 4.55684e-16)
(49.7052 13.2982 -4.82248e-16)
(49.7097 13.2969 -3.7679e-16)
(49.7079 13.2889 -3.95377e-16)
(49.7039 13.2791 0)
(49.7 13.2696 -4.97666e-16)
(49.6951 13.2591 2.62091e-16)
(49.6888 13.2474 -2.77885e-16)
(49.6814 13.2348 3.3041e-16)
(49.673 13.2212 3.85241e-17)
(49.6634 13.2067 5.67141e-19)
(49.6527 13.1912 0)
(49.641 13.1746 0)
(49.6281 13.1569 2.05188e-16)
(49.614 13.1382 2.20613e-16)
(49.5989 13.1183 -2.95542e-16)
(49.5825 13.0971 2.56095e-16)
(49.565 13.0747 -3.54266e-17)
(49.5462 13.0509 2.62743e-16)
(49.5261 13.0258 -2.03774e-16)
(49.5047 12.9992 -2.2091e-16)
(49.482 12.971 0)
(49.4578 12.9412 -2.65442e-17)
(49.4322 12.9098 2.75581e-17)
(49.4051 12.8766 2.4556e-16)
(49.3764 12.8415 0)
(49.346 12.8046 -1.43984e-16)
(49.314 12.7657 0)
(49.2802 12.7248 0)
(49.2446 12.6817 4.72839e-17)
(49.2071 12.6365 -1.03365e-16)
(49.1677 12.5891 -1.4183e-16)
(49.1263 12.5393 1.54845e-16)
(49.0829 12.4873 -2.02101e-16)
(49.0374 12.4327 -1.80031e-17)
(48.9898 12.3758 2.06074e-17)
(48.94 12.3163 6.55616e-17)
(48.8881 12.2543 4.81615e-17)
(48.8341 12.1896 1.28765e-17)
(48.7775 12.1223 -1.40839e-17)
(48.7201 12.0524 1.54092e-17)
(48.6555 11.9796 -8.59185e-18)
(48.5895 11.9188 0)
(49.7093 13.3061 -4.76268e-17)
(49.7054 13.3001 -5.44545e-16)
(49.7093 13.299 4.36997e-16)
(49.7073 13.2915 3.4248e-16)
(49.703 13.2823 0)
(49.6988 13.2731 6.40061e-17)
(49.6936 13.2631 0)
(49.687 13.2519 -5.08105e-19)
(49.6793 13.2398 0)
(49.6705 13.2267 0)
(49.6607 13.2127 -3.37687e-16)
(49.6497 13.1977 3.15146e-16)
(49.6376 13.1817 0)
(49.6244 13.1646 -2.07147e-16)
(49.6101 13.1464 -4.45437e-16)
(49.5945 13.1271 0)
(49.5778 13.1066 0)
(49.5599 13.0848 2.79259e-16)
(49.5407 13.0618 3.00232e-16)
(49.5203 13.0373 3.26858e-16)
(49.4985 13.0115 2.65836e-16)
(49.4753 12.9841 -1.94475e-16)
(49.4507 12.9552 -2.0876e-16)
(49.4246 12.9247 2.54595e-16)
(49.397 12.8924 -4.9366e-16)
(49.3678 12.8584 0)
(49.337 12.8225 0)
(49.3044 12.7847 -1.98407e-16)
(49.2701 12.745 -1.73858e-16)
(49.234 12.7032 1.89644e-16)
(49.196 12.6592 2.52933e-17)
(49.156 12.6132 -2.89534e-17)
(49.1141 12.5648 -9.33089e-17)
(49.0701 12.5142 1.73248e-18)
(49.0241 12.4612 0)
(48.9759 12.4058 2.05808e-17)
(48.9256 12.348 -2.14923e-17)
(48.8731 12.2877 -9.59282e-17)
(48.8185 12.2248 -7.80881e-17)
(48.7618 12.1593 0)
(48.7024 12.0911 4.72882e-17)
(48.6423 12.0203 -1.72736e-17)
(48.5752 11.9468 0)
(48.5066 11.8851 5.46163e-21)
(49.71 13.3076 0)
(49.7056 13.302 3.87798e-16)
(49.7091 13.301 -3.89498e-16)
(49.7067 13.2941 0)
(49.7022 13.2853 5.50244e-16)
(49.6977 13.2767 -6.49429e-17)
(49.6921 13.2671 -1.00957e-16)
(49.6853 13.2564 2.4887e-16)
(49.6773 13.2447 0)
(49.6683 13.2322 -2.80466e-16)
(49.6582 13.2187 0)
(49.6469 13.2042 -3.65013e-16)
(49.6345 13.1887 4.7967e-17)
(49.621 13.1722 0)
(49.6063 13.1546 2.2494e-16)
(49.5905 13.1359 0)
(49.5734 13.116 0)
(49.5551 13.0949 -2.81613e-16)
(49.5356 13.0725 -1.67415e-20)
(49.5147 13.0488 -1.2442e-16)
(49.4925 13.0237 -3.56856e-16)
(49.469 12.9972 1.46229e-16)
(49.4439 12.9691 1.05162e-16)
(49.4174 12.9395 -1.24682e-19)
(49.3894 12.9082 1.5913e-19)
(49.3597 12.8751 0)
(49.3284 12.8403 0)
(49.2953 12.8036 1.60168e-16)
(49.2605 12.765 1.29853e-16)
(49.2239 12.7244 -1.90331e-16)
(49.1853 12.6818 -1.03682e-16)
(49.1449 12.637 -2.89923e-17)
(49.1024 12.5901 1.53619e-16)
(49.0579 12.5409 1.34923e-16)
(49.0113 12.4894 -1.4539e-16)
(48.9626 12.4356 2.05619e-17)
(48.9118 12.3794 -2.14648e-17)
(48.8588 12.3207 7.1386e-17)
(48.8036 12.2595 5.23566e-17)
(48.7462 12.1957 5.70762e-17)
(48.6868 12.1294 3.11071e-17)
(48.6247 12.0604 -1.70384e-17)
(48.5619 11.9887 9.11725e-18)
(48.4923 11.9144 1.03604e-17)
(48.4211 11.8517 0)
(49.7107 13.309 0)
(49.7059 13.3038 5.57072e-17)
(49.7088 13.303 5.09326e-16)
(49.7063 13.2966 0)
(49.7015 13.2883 -4.96514e-16)
(49.6967 13.2801 0)
(49.6908 13.271 -2.06346e-16)
(49.6837 13.2608 7.23923e-17)
(49.6755 13.2496 -1.16101e-18)
(49.6662 13.2376 4.11078e-17)
(49.6558 13.2246 1.48633e-18)
(49.6442 13.2106 0)
(49.6316 13.1957 3.95159e-16)