/*--------------------------------*- C++ -*----------------------------------*\
  =========                 |
  \\      /  F ield         | OpenFOAM: The Open Source CFD Toolbox
   \\    /   O peration     | Website:  https://openfoam.org
    \\  /    A nd           | Version:  7
     \\/     M anipulation  |
\*---------------------------------------------------------------------------*/
FoamFile
{
    version     2.0;
    format      ascii;
    class       volScalarField;
    location    "600";
    object      yPlus;
}
// * * * * * * * * * * * * * * * * * * * * * * * * * * * * * * * * * * * * * //

dimensions      [0 0 0 0 0 0 0];

internalField   uniform 0;

boundaryField
{
    inlet-l
    {
        type            calculated;
        value           uniform 0;
    }
    airfoil-l1
    {
        type            calculated;
        value           nonuniform List<scalar> 
107
(
27.6085
26.8044
25.7659
24.5603
23.2591
21.9207
20.5889
19.2913
18.043
16.847
15.7063
14.6274
13.627
12.7234
11.892
11.1092
10.3654
9.65964
8.9836
8.32856
7.69055
7.05708
6.42052
5.77084
5.0936
4.36776
3.54743
2.53425
0.773685
2.26642
3.25923
3.99272
4.59316
5.11595
5.58246
6.00932
6.40599
6.77754
7.13133
7.47532
7.80884
8.13251
8.45229
8.76964
9.08594
9.40073
9.7159
10.0344
10.3529
10.6724
10.9908
11.3162
11.6489
11.9898
12.3456
12.707
13.0667
13.4174
13.7561
14.0771
14.3871
14.6865
14.9778
15.2617
15.5386
15.812
16.0768
16.338
16.5943
16.8408
17.0912
17.3336
17.5748
17.8088
18.0462
18.276
18.5006
18.7237
18.9446
19.1614
19.3721
19.582
19.7868
19.9867
20.1866
20.384
20.5716
20.7572
20.9405
21.117
21.2925
21.4615
21.6265
21.7839
21.9354
22.0878
22.23
22.3679
22.5006
22.6295
22.7485
22.8625
22.9708
23.0734
23.1695
23.2531
23.3358
)
;
    }
    empty-1
    {
        type            empty;
    }
    empty-2
    {
        type            empty;
    }
    wall-l1
    {
        type            calculated;
        value           nonuniform 0();
    }
    airfoil-l2
    {
        type            calculated;
        value           uniform 23.5016;
    }
    empty-3
    {
        type            empty;
    }
    empty-4
    {
        type            empty;
    }
    wall-l2
    {
        type            calculated;
        value           nonuniform 0();
    }
    outlet-l
    {
        type            calculated;
        value           nonuniform 0();
    }
    empty-5
    {
        type            empty;
    }
    empty-6
    {
        type            empty;
    }
    outlet-h
    {
        type            calculated;
        value           nonuniform 0();
    }
    wall-h2
    {
        type            calculated;
        value           nonuniform 0();
    }
    empty-7
    {
        type            empty;
    }
    empty-8
    {
        type            empty;
    }
    airfoil-h2
    {
        type            calculated;
        value           nonuniform 0();
    }
    wall-h1
    {
        type            calculated;
        value           nonuniform 0();
    }
    empty-9
    {
        type            empty;
    }
    empty-10
    {
        type            empty;
    }
    inlet-h
    {
        type            calculated;
        value           uniform 0;
    }
    airfoil-h1
    {
        type            calculated;
        value           nonuniform List<scalar> 
16
(
28.172
28.5633
28.7456
28.7125
28.4585
28.0595
27.5928
27.1103
26.6321
26.1712
25.7463
25.3569
24.9956
24.6669
24.3692
24.1007
)
;
    }
    empty-11
    {
        type            empty;
    }
    empty-12
    {
        type            empty;
    }
    procBoundary0to1
    {
        type            processor;
        value           uniform 0;
    }
    procBoundary0to3
    {
        type            processor;
        value           uniform 0;
    }
}


// ************************************************************************* //
