/*--------------------------------*- C++ -*----------------------------------*\
  =========                 |
  \\      /  F ield         | OpenFOAM: The Open Source CFD Toolbox
   \\    /   O peration     | Website:  https://openfoam.org
    \\  /    A nd           | Version:  7
     \\/     M anipulation  |
\*---------------------------------------------------------------------------*/
FoamFile
{
    version     2.0;
    format      ascii;
    class       volScalarField;
    location    "1600";
    object      nut;
}
// * * * * * * * * * * * * * * * * * * * * * * * * * * * * * * * * * * * * * //

dimensions      [0 2 -1 0 0 0 0];

internalField   nonuniform List<scalar> 
23023
(
5.25681e-06
5.25605e-06
5.2568e-06
5.25593e-06
5.25605e-06
5.25679e-06
5.25568e-06
5.25592e-06
5.25606e-06
5.25678e-06
5.25566e-06
5.25591e-06
5.25607e-06
5.25678e-06
5.25569e-06
5.25564e-06
5.2559e-06
5.25608e-06
5.25677e-06
5.25565e-06
5.25566e-06
5.25563e-06
5.25589e-06
5.25608e-06
5.25677e-06
5.25551e-06
5.25564e-06
5.25562e-06
5.25561e-06
5.25589e-06
5.25609e-06
5.25677e-06
5.25518e-06
5.25552e-06
5.25563e-06
5.25559e-06
5.2556e-06
5.25589e-06
5.2561e-06
5.25676e-06
5.25465e-06
5.25521e-06
5.25553e-06
5.25562e-06
5.25555e-06
5.2556e-06
5.2559e-06
5.25611e-06
5.25676e-06
5.25396e-06
5.2547e-06
5.25524e-06
5.25554e-06
5.2556e-06
5.25551e-06
5.25559e-06
5.2559e-06
5.25613e-06
5.25677e-06
5.25401e-06
5.25474e-06
5.25527e-06
5.25555e-06
5.25558e-06
5.25548e-06
5.25559e-06
5.25591e-06
5.25614e-06
5.25677e-06
5.25321e-06
5.25405e-06
5.25479e-06
5.2553e-06
5.25555e-06
5.25556e-06
5.25546e-06
5.25559e-06
5.25592e-06
5.25615e-06
5.25677e-06
5.25241e-06
5.25325e-06
5.2541e-06
5.25483e-06
5.25533e-06
5.25556e-06
5.25553e-06
5.25543e-06
5.25559e-06
5.25593e-06
5.25616e-06
5.25678e-06
5.25171e-06
5.25244e-06
5.25329e-06
5.25415e-06
5.25487e-06
5.25535e-06
5.25555e-06
5.2555e-06
5.25542e-06
5.2556e-06
5.25595e-06
5.25618e-06
5.25678e-06
5.25114e-06
5.25171e-06
5.25246e-06
5.25333e-06
5.25419e-06
5.25491e-06
5.25537e-06
5.25555e-06
5.25547e-06
5.2554e-06
5.25561e-06
5.25596e-06
5.25619e-06
5.25679e-06
5.25113e-06
5.25172e-06
5.25249e-06
5.25337e-06
5.25424e-06
5.25495e-06
5.2554e-06
5.25554e-06
5.25543e-06
5.25539e-06
5.25562e-06
5.25598e-06
5.2562e-06
5.2568e-06
5.25071e-06
5.25113e-06
5.25173e-06
5.25252e-06
5.25342e-06
5.25429e-06
5.25499e-06
5.25541e-06
5.25553e-06
5.25539e-06
5.25538e-06
5.25563e-06
5.256e-06
5.25622e-06
5.25681e-06
5.25039e-06
5.2507e-06
5.25112e-06
5.25174e-06
5.25254e-06
5.25346e-06
5.25434e-06
5.25503e-06
5.25543e-06
5.25552e-06
5.25534e-06
5.25537e-06
5.25565e-06
5.25602e-06
5.25623e-06
5.25682e-06
5.25038e-06
5.25068e-06
5.25112e-06
5.25175e-06
5.25257e-06
5.2535e-06
5.25439e-06
5.25507e-06
5.25545e-06
5.25551e-06
5.2553e-06
5.25537e-06
5.25567e-06
5.25604e-06
5.25624e-06
5.25684e-06
5.25009e-06
5.25037e-06
5.25067e-06
5.25111e-06
5.25176e-06
5.25261e-06
5.25355e-06
5.25443e-06
5.2551e-06
5.25546e-06
5.25549e-06
5.25526e-06
5.25537e-06
5.25569e-06
5.25607e-06
5.25626e-06
5.25685e-06
5.24977e-06
5.25009e-06
5.25036e-06
5.25066e-06
5.25111e-06
5.25177e-06
5.25264e-06
5.2536e-06
5.25448e-06
5.25514e-06
5.25547e-06
5.25547e-06
5.25523e-06
5.25537e-06
5.25571e-06
5.25609e-06
5.25627e-06
5.25687e-06
5.24937e-06
5.24977e-06
5.25008e-06
5.25034e-06
5.25065e-06
5.2511e-06
5.25179e-06
5.25267e-06
5.25365e-06
5.25453e-06
5.25517e-06
5.25548e-06
5.25544e-06
5.2552e-06
5.25538e-06
5.25574e-06
5.25612e-06
5.25628e-06
5.25689e-06
5.24891e-06
5.24938e-06
5.24977e-06
5.25008e-06
5.25033e-06
5.25063e-06
5.2511e-06
5.2518e-06
5.25271e-06
5.2537e-06
5.25458e-06
5.25521e-06
5.25548e-06
5.25541e-06
5.25517e-06
5.25539e-06
5.25576e-06
5.25614e-06
5.25629e-06
5.25691e-06
5.24892e-06
5.24939e-06
5.24978e-06
5.25007e-06
5.25032e-06
5.25062e-06
5.2511e-06
5.25182e-06
5.25275e-06
5.25375e-06
5.25463e-06
5.25524e-06
5.25548e-06
5.25538e-06
5.25515e-06
5.2554e-06
5.25579e-06
5.25617e-06
5.2563e-06
5.25694e-06
5.24844e-06
5.24893e-06
5.2494e-06
5.24978e-06
5.25006e-06
5.2503e-06
5.25061e-06
5.2511e-06
5.25184e-06
5.25279e-06
5.2538e-06
5.25468e-06
5.25527e-06
5.25548e-06
5.25534e-06
5.25514e-06
5.25542e-06
5.25582e-06
5.2562e-06
5.25631e-06
5.25696e-06
5.24797e-06
5.24844e-06
5.24894e-06
5.2494e-06
5.24978e-06
5.25005e-06
5.25029e-06
5.2506e-06
5.2511e-06
5.25186e-06
5.25283e-06
5.25385e-06
5.25473e-06
5.2553e-06
5.25548e-06
5.2553e-06
5.25512e-06
5.25544e-06
5.25586e-06
5.25623e-06
5.25631e-06
5.25699e-06
5.24797e-06
5.24845e-06
5.24895e-06
5.24941e-06
5.24978e-06
5.25005e-06
5.25027e-06
5.25059e-06
5.2511e-06
5.25188e-06
5.25287e-06
5.2539e-06
5.25478e-06
5.25532e-06
5.25547e-06
5.25525e-06
5.25511e-06
5.25546e-06
5.25589e-06
5.25625e-06
5.25632e-06
5.25702e-06
5.24754e-06
5.24798e-06
5.24846e-06
5.24896e-06
5.24942e-06
5.24978e-06
5.25003e-06
5.25025e-06
5.25058e-06
5.2511e-06
5.25191e-06
5.25292e-06
5.25396e-06
5.25482e-06
5.25535e-06
5.25546e-06
5.25521e-06
5.25511e-06
5.25549e-06
5.25592e-06
5.25628e-06
5.25633e-06
5.25705e-06
5.24714e-06
5.24754e-06
5.24798e-06
5.24847e-06
5.24897e-06
5.24943e-06
5.24978e-06
5.25002e-06
5.25024e-06
5.25057e-06
5.25111e-06
5.25193e-06
5.25296e-06
5.25401e-06
5.25487e-06
5.25537e-06
5.25545e-06
5.25516e-06
5.25511e-06
5.25551e-06
5.25596e-06
5.25631e-06
5.25633e-06
5.25709e-06
5.24714e-06
5.24754e-06
5.24798e-06
5.24848e-06
5.24898e-06
5.24943e-06
5.24978e-06
5.25001e-06
5.25022e-06
5.25056e-06
5.25111e-06
5.25196e-06
5.25301e-06
5.25407e-06
5.25492e-06
5.25539e-06
5.25543e-06
5.25511e-06
5.25511e-06
5.25555e-06
5.256e-06
5.25634e-06
5.25633e-06
5.25712e-06
5.24676e-06
5.24714e-06
5.24754e-06
5.24799e-06
5.24848e-06
5.24899e-06
5.24944e-06
5.24977e-06
5.25e-06
5.25021e-06
5.25055e-06
5.25112e-06
5.25199e-06
5.25306e-06
5.25413e-06
5.25496e-06
5.25541e-06
5.25541e-06
5.25506e-06
5.25511e-06
5.25558e-06
5.25604e-06
5.25636e-06
5.25633e-06
5.25716e-06
5.24639e-06
5.24677e-06
5.24714e-06
5.24754e-06
5.24799e-06
5.24849e-06
5.249e-06
5.24945e-06
5.24977e-06
5.24998e-06
5.2502e-06
5.25055e-06
5.25112e-06
5.25202e-06
5.25311e-06
5.25418e-06
5.25501e-06
5.25542e-06
5.25539e-06
5.25501e-06
5.25512e-06
5.25562e-06
5.25608e-06
5.25639e-06
5.25633e-06
5.2572e-06
5.24639e-06
5.24677e-06
5.24714e-06
5.24754e-06
5.248e-06
5.2485e-06
5.24901e-06
5.24945e-06
5.24977e-06
5.24997e-06
5.25019e-06
5.25054e-06
5.25113e-06
5.25205e-06
5.25317e-06
5.25424e-06
5.25505e-06
5.25543e-06
5.25536e-06
5.25497e-06
5.25513e-06
5.25565e-06
5.25611e-06
5.25641e-06
5.25633e-06
5.25725e-06
5.24602e-06
5.2464e-06
5.24677e-06
5.24714e-06
5.24755e-06
5.248e-06
5.24851e-06
5.24902e-06
5.24946e-06
5.24976e-06
5.24995e-06
5.25018e-06
5.25054e-06
5.25114e-06
5.25209e-06
5.25322e-06
5.2543e-06
5.25509e-06
5.25544e-06
5.25533e-06
5.25493e-06
5.25515e-06
5.25569e-06
5.25615e-06
5.25644e-06
5.25633e-06
5.2573e-06
5.24565e-06
5.24602e-06
5.2464e-06
5.24677e-06
5.24714e-06
5.24755e-06
5.24801e-06
5.24852e-06
5.24903e-06
5.24946e-06
5.24975e-06
5.24993e-06
5.25018e-06
5.25054e-06
5.25115e-06
5.25213e-06
5.25328e-06
5.25436e-06
5.25513e-06
5.25545e-06
5.2553e-06
5.2549e-06
5.25517e-06
5.25574e-06
5.25619e-06
5.25646e-06
5.25632e-06
5.25735e-06
5.24565e-06
5.24602e-06
5.2464e-06
5.24677e-06
5.24714e-06
5.24755e-06
5.24801e-06
5.24853e-06
5.24904e-06
5.24946e-06
5.24975e-06
5.24992e-06
5.25017e-06
5.25054e-06
5.25117e-06
5.25217e-06
5.25333e-06
5.25442e-06
5.25517e-06
5.25545e-06
5.25526e-06
5.25488e-06
5.2552e-06
5.25578e-06
5.25623e-06
5.25648e-06
5.25632e-06
5.2574e-06
5.24529e-06
5.24565e-06
5.24603e-06
5.2464e-06
5.24677e-06
5.24714e-06
5.24755e-06
5.24802e-06
5.24854e-06
5.24905e-06
5.24947e-06
5.24974e-06
5.2499e-06
5.25016e-06
5.25054e-06
5.25118e-06
5.25221e-06
5.25339e-06
5.25447e-06
5.25521e-06
5.25545e-06
5.25521e-06
5.25486e-06
5.25522e-06
5.25583e-06
5.25627e-06
5.2565e-06
5.25631e-06
5.25745e-06
5.24493e-06
5.24529e-06
5.24566e-06
5.24603e-06
5.2464e-06
5.24677e-06
5.24714e-06
5.24755e-06
5.24802e-06
5.24855e-06
5.24906e-06
5.24947e-06
5.24973e-06
5.24988e-06
5.25016e-06
5.25054e-06
5.2512e-06
5.25225e-06
5.25345e-06
5.25453e-06
5.25524e-06
5.25545e-06
5.25516e-06
5.25485e-06
5.25526e-06
5.25588e-06
5.25631e-06
5.25652e-06
5.2563e-06
5.25751e-06
5.24459e-06
5.24494e-06
5.24529e-06
5.24566e-06
5.24603e-06
5.2464e-06
5.24677e-06
5.24714e-06
5.24755e-06
5.24803e-06
5.24856e-06
5.24907e-06
5.24947e-06
5.24972e-06
5.24987e-06
5.25016e-06
5.25054e-06
5.25122e-06
5.2523e-06
5.25351e-06
5.25459e-06
5.25527e-06
5.25544e-06
5.25511e-06
5.25484e-06
5.25529e-06
5.25592e-06
5.25635e-06
5.25654e-06
5.25629e-06
5.25757e-06
5.24426e-06
5.24459e-06
5.24494e-06
5.24529e-06
5.24566e-06
5.24603e-06
5.2464e-06
5.24677e-06
5.24714e-06
5.24755e-06
5.24803e-06
5.24857e-06
5.24908e-06
5.24948e-06
5.24971e-06
5.24986e-06
5.25015e-06
5.25054e-06
5.25124e-06
5.25234e-06
5.25358e-06
5.25465e-06
5.2553e-06
5.25544e-06
5.25506e-06
5.25484e-06
5.25533e-06
5.25597e-06
5.25639e-06
5.25656e-06
5.25628e-06
5.25764e-06
5.24393e-06
5.24426e-06
5.2446e-06
5.24494e-06
5.2453e-06
5.24566e-06
5.24603e-06
5.2464e-06
5.24676e-06
5.24714e-06
5.24755e-06
5.24804e-06
5.24858e-06
5.24909e-06
5.24948e-06
5.2497e-06
5.24985e-06
5.25015e-06
5.25054e-06
5.25126e-06
5.25239e-06
5.25364e-06
5.2547e-06
5.25533e-06
5.25542e-06
5.255e-06
5.25484e-06
5.25537e-06
5.25603e-06
5.25643e-06
5.25657e-06
5.25627e-06
5.25771e-06
5.2436e-06
5.24393e-06
5.24426e-06
5.2446e-06
5.24494e-06
5.2453e-06
5.24566e-06
5.24604e-06
5.2464e-06
5.24676e-06
5.24713e-06
5.24755e-06
5.24805e-06
5.24859e-06
5.2491e-06
5.24948e-06
5.24968e-06
5.24984e-06
5.25015e-06
5.25054e-06
5.25129e-06
5.25244e-06
5.2537e-06
5.25476e-06
5.25536e-06
5.2554e-06
5.25494e-06
5.25485e-06
5.25541e-06
5.25608e-06
5.25646e-06
5.25658e-06
5.25626e-06
5.25778e-06
5.2436e-06
5.24393e-06
5.24426e-06
5.2446e-06
5.24495e-06
5.2453e-06
5.24566e-06
5.24604e-06
5.2464e-06
5.24676e-06
5.24713e-06
5.24756e-06
5.24806e-06
5.2486e-06
5.24911e-06
5.24948e-06
5.24967e-06
5.24983e-06
5.25015e-06
5.25055e-06
5.25131e-06
5.2525e-06
5.25377e-06
5.25481e-06
5.25538e-06
5.25538e-06
5.25488e-06
5.25486e-06
5.25546e-06
5.25613e-06
5.2565e-06
5.25659e-06
5.25625e-06
5.25785e-06
5.24328e-06
5.24361e-06
5.24393e-06
5.24427e-06
5.2446e-06
5.24495e-06
5.2453e-06
5.24567e-06
5.24604e-06
5.2464e-06
5.24676e-06
5.24713e-06
5.24756e-06
5.24806e-06
5.24861e-06
5.24912e-06
5.24947e-06
5.24965e-06
5.24983e-06
5.25015e-06
5.25055e-06
5.25134e-06
5.25255e-06
5.25384e-06
5.25487e-06
5.2554e-06
5.25536e-06
5.25482e-06
5.25487e-06
5.25551e-06
5.25618e-06
5.25653e-06
5.2566e-06
5.25624e-06
5.25793e-06
5.24297e-06
5.24328e-06
5.24361e-06
5.24394e-06
5.24427e-06
5.24461e-06
5.24495e-06
5.2453e-06
5.24567e-06
5.24604e-06
5.2464e-06
5.24676e-06
5.24713e-06
5.24756e-06
5.24807e-06
5.24862e-06
5.24912e-06
5.24947e-06
5.24964e-06
5.24982e-06
5.25015e-06
5.25055e-06
5.25137e-06
5.25261e-06
5.2539e-06
5.25492e-06
5.25542e-06
5.25533e-06
5.25477e-06
5.25489e-06
5.25556e-06
5.25624e-06
5.25656e-06
5.25661e-06
5.25623e-06
5.25801e-06
5.24297e-06
5.24329e-06
5.24361e-06
5.24394e-06
5.24427e-06
5.24461e-06
5.24495e-06
5.2453e-06
5.24567e-06
5.24604e-06
5.2464e-06
5.24676e-06
5.24713e-06
5.24756e-06
5.24808e-06
5.24864e-06
5.24913e-06
5.24947e-06
5.24962e-06
5.24982e-06
5.25015e-06
5.25056e-06
5.25141e-06
5.25267e-06
5.25397e-06
5.25497e-06
5.25544e-06
5.2553e-06
5.25472e-06
5.25491e-06
5.25562e-06
5.25629e-06
5.2566e-06
5.25661e-06
5.25622e-06
5.2581e-06
5.24266e-06
5.24297e-06
5.24329e-06
5.24361e-06
5.24394e-06
5.24427e-06
5.24461e-06
5.24495e-06
5.2453e-06
5.24567e-06
5.24604e-06
5.2464e-06
5.24675e-06
5.24713e-06
5.24757e-06
5.24809e-06
5.24865e-06
5.24914e-06
5.24947e-06
5.2496e-06
5.24981e-06
5.25016e-06
5.25056e-06
5.25144e-06
5.25273e-06
5.25404e-06
5.25502e-06
5.25545e-06
5.25526e-06
5.25467e-06
5.25494e-06
5.25567e-06
5.25634e-06
5.25663e-06
5.25662e-06
5.25621e-06
5.25818e-06
5.24236e-06
5.24266e-06
5.24297e-06
5.24329e-06
5.24361e-06
5.24394e-06
5.24428e-06
5.24461e-06
5.24495e-06
5.24531e-06
5.24567e-06
5.24604e-06
5.2464e-06
5.24675e-06
5.24713e-06
5.24757e-06
5.2481e-06
5.24866e-06
5.24915e-06
5.24946e-06
5.24958e-06
5.24981e-06
5.25016e-06
5.25057e-06
5.25148e-06
5.25279e-06
5.2541e-06
5.25507e-06
5.25546e-06
5.25521e-06
5.25463e-06
5.25497e-06
5.25573e-06
5.2564e-06
5.25665e-06
5.25662e-06
5.2562e-06
5.25828e-06
5.24205e-06
5.24236e-06
5.24266e-06
5.24297e-06
5.24329e-06
5.24362e-06
5.24395e-06
5.24428e-06
5.24461e-06
5.24495e-06
5.24531e-06
5.24567e-06
5.24604e-06
5.2464e-06
5.24675e-06
5.24713e-06
5.24757e-06
5.24811e-06
5.24867e-06
5.24916e-06
5.24945e-06
5.24956e-06
5.24981e-06
5.25016e-06
5.25058e-06
5.25152e-06
5.25286e-06
5.25417e-06
5.25511e-06
5.25546e-06
5.25517e-06
5.2546e-06
5.25501e-06
5.25579e-06
5.25645e-06
5.25668e-06
5.25661e-06
5.2562e-06
5.25837e-06
5.24175e-06
5.24205e-06
5.24236e-06
5.24266e-06
5.24297e-06
5.24329e-06
5.24362e-06
5.24395e-06
5.24428e-06
5.24462e-06
5.24496e-06
5.24531e-06
5.24567e-06
5.24604e-06
5.2464e-06
5.24675e-06
5.24713e-06
5.24758e-06
5.24812e-06
5.24869e-06
5.24916e-06
5.24945e-06
5.24954e-06
5.24981e-06
5.25017e-06
5.25059e-06
5.25156e-06
5.25293e-06
5.25424e-06
5.25516e-06
5.25546e-06
5.25512e-06
5.25458e-06
5.25505e-06
5.25585e-06
5.2565e-06
5.2567e-06
5.25661e-06
5.25619e-06
5.25847e-06
5.24145e-06
5.24175e-06
5.24205e-06
5.24235e-06
5.24266e-06
5.24298e-06
5.2433e-06
5.24362e-06
5.24395e-06
5.24428e-06
5.24462e-06
5.24496e-06
5.24531e-06
5.24567e-06
5.24604e-06
5.24639e-06
5.24674e-06
5.24712e-06
5.24758e-06
5.24813e-06
5.2487e-06
5.24917e-06
5.24944e-06
5.24953e-06
5.24981e-06
5.25017e-06
5.25059e-06
5.25161e-06
5.25299e-06
5.25431e-06
5.2552e-06
5.25546e-06
5.25506e-06
5.25456e-06
5.25509e-06
5.25592e-06
5.25655e-06
5.25672e-06
5.2566e-06
5.2562e-06
5.25857e-06
5.24115e-06
5.24145e-06
5.24175e-06
5.24205e-06
5.24235e-06
5.24266e-06
5.24298e-06
5.2433e-06
5.24362e-06
5.24395e-06
5.24429e-06
5.24462e-06
5.24496e-06
5.24531e-06
5.24567e-06
5.24604e-06
5.24639e-06
5.24674e-06
5.24712e-06
5.24759e-06
5.24814e-06
5.24871e-06
5.24917e-06
5.24943e-06
5.24951e-06
5.24981e-06
5.25017e-06
5.25061e-06
5.25165e-06
5.25306e-06
5.25438e-06
5.25524e-06
5.25545e-06
5.255e-06
5.25456e-06
5.25514e-06
5.25598e-06
5.2566e-06
5.25674e-06
5.25659e-06
5.25621e-06
5.25868e-06
5.24085e-06
5.24115e-06
5.24145e-06
5.24175e-06
5.24205e-06
5.24235e-06
5.24266e-06
5.24298e-06
5.2433e-06
5.24363e-06
5.24396e-06
5.24429e-06
5.24462e-06
5.24496e-06
5.24531e-06
5.24567e-06
5.24604e-06
5.24639e-06
5.24674e-06
5.24712e-06
5.24759e-06
5.24815e-06
5.24872e-06
5.24918e-06
5.24942e-06
5.2495e-06
5.24982e-06
5.25018e-06
5.25062e-06
5.2517e-06
5.25313e-06
5.25444e-06
5.25528e-06
5.25544e-06
5.25494e-06
5.25455e-06
5.25519e-06
5.25605e-06
5.25665e-06
5.25676e-06
5.25658e-06
5.25622e-06
5.25879e-06
5.24054e-06
5.24084e-06
5.24115e-06
5.24145e-06
5.24175e-06
5.24205e-06
5.24235e-06
5.24267e-06
5.24298e-06
5.2433e-06
5.24363e-06
5.24396e-06
5.24429e-06
5.24462e-06
5.24496e-06
5.24531e-06
5.24567e-06
5.24604e-06
5.24639e-06
5.24674e-06
5.24712e-06
5.2476e-06
5.24816e-06
5.24874e-06
5.24918e-06
5.24941e-06
5.24949e-06
5.24982e-06
5.25018e-06
5.25063e-06
5.25175e-06
5.25321e-06
5.25451e-06
5.25531e-06
5.25543e-06
5.25487e-06
5.25456e-06
5.25525e-06
5.25611e-06
5.2567e-06
5.25677e-06
5.25657e-06
5.25624e-06
5.2589e-06
5.24022e-06
5.24053e-06
5.24084e-06
5.24114e-06
5.24144e-06
5.24174e-06
5.24205e-06
5.24235e-06
5.24267e-06
5.24298e-06
5.2433e-06
5.24363e-06
5.24396e-06
5.24429e-06
5.24462e-06
5.24496e-06
5.24531e-06
5.24567e-06
5.24604e-06
5.24639e-06
5.24673e-06
5.24712e-06
5.24761e-06
5.24818e-06
5.24875e-06
5.24919e-06
5.24939e-06
5.24949e-06
5.24982e-06
5.25018e-06
5.25065e-06
5.25181e-06
5.25328e-06
5.25458e-06
5.25535e-06
5.25541e-06
5.2548e-06
5.25457e-06
5.25531e-06
5.25618e-06
5.25675e-06
5.25678e-06
5.25656e-06
5.25627e-06
5.25902e-06
5.2399e-06
5.24022e-06
5.24053e-06
5.24083e-06
5.24114e-06
5.24144e-06
5.24174e-06
5.24205e-06
5.24235e-06
5.24267e-06
5.24298e-06
5.24331e-06
5.24363e-06
5.24396e-06
5.24429e-06
5.24462e-06
5.24496e-06
5.24531e-06
5.24567e-06
5.24604e-06
5.24639e-06
5.24673e-06
5.24712e-06
5.24761e-06
5.24819e-06
5.24876e-06
5.24919e-06
5.24938e-06
5.24948e-06
5.24983e-06
5.25019e-06
5.25066e-06
5.25187e-06
5.25335e-06
5.25464e-06
5.25538e-06
5.25539e-06
5.25474e-06
5.25458e-06
5.25537e-06
5.25625e-06
5.25679e-06
5.25679e-06
5.25654e-06
5.2563e-06
5.25913e-06
5.23957e-06
5.23989e-06
5.24021e-06
5.24052e-06
5.24083e-06
5.24113e-06
5.24144e-06
5.24174e-06
5.24205e-06
5.24236e-06
5.24267e-06
5.24299e-06
5.24331e-06
5.24364e-06
5.24397e-06
5.24429e-06
5.24462e-06
5.24496e-06
5.24531e-06
5.24567e-06
5.24604e-06
5.24638e-06
5.24673e-06
5.24713e-06
5.24762e-06
5.2482e-06
5.24878e-06
5.24919e-06
5.24936e-06
5.24948e-06
5.24983e-06
5.25019e-06
5.25068e-06
5.25193e-06
5.25343e-06
5.25471e-06
5.2554e-06
5.25536e-06
5.25467e-06
5.2546e-06
5.25543e-06
5.25631e-06
5.25684e-06
5.25679e-06
5.25653e-06
5.25635e-06
5.25926e-06
5.23923e-06
5.23956e-06
5.23988e-06
5.2402e-06
5.24051e-06
5.24082e-06
5.24113e-06
5.24143e-06
5.24174e-06
5.24205e-06
5.24236e-06
5.24267e-06
5.24299e-06
5.24331e-06
5.24364e-06
5.24397e-06
5.2443e-06
5.24462e-06
5.24496e-06
5.24531e-06
5.24567e-06
5.24604e-06
5.24638e-06
5.24673e-06
5.24713e-06
5.24763e-06
5.24822e-06
5.24879e-06
5.24919e-06
5.24934e-06
5.24947e-06
5.24984e-06
5.25019e-06
5.2507e-06
5.25199e-06
5.25351e-06
5.25477e-06
5.25543e-06
5.25533e-06
5.2546e-06
5.25463e-06
5.2555e-06
5.25638e-06
5.25688e-06
5.25679e-06
5.25651e-06
5.2564e-06
5.25938e-06
5.23887e-06
5.23921e-06
5.23954e-06
5.23987e-06
5.24019e-06
5.24051e-06
5.24082e-06
5.24113e-06
5.24143e-06
5.24174e-06
5.24205e-06
5.24236e-06
5.24267e-06
5.24299e-06
5.24332e-06
5.24364e-06
5.24397e-06
5.2443e-06
5.24462e-06
5.24496e-06
5.24531e-06
5.24567e-06
5.24603e-06
5.24638e-06
5.24673e-06
5.24713e-06
5.24764e-06
5.24823e-06
5.2488e-06
5.24919e-06
5.24933e-06
5.24947e-06
5.24985e-06
5.2502e-06
5.25073e-06
5.25205e-06
5.25358e-06
5.25483e-06
5.25545e-06
5.25529e-06
5.25453e-06
5.25466e-06
5.25557e-06
5.25645e-06
5.25691e-06
5.25679e-06
5.25649e-06
5.25647e-06
5.25951e-06
5.2385e-06
5.23885e-06
5.2392e-06
5.23953e-06
5.23986e-06
5.24018e-06
5.2405e-06
5.24081e-06
5.24112e-06
5.24143e-06
5.24174e-06
5.24205e-06
5.24236e-06
5.24267e-06
5.24299e-06
5.24332e-06
5.24364e-06
5.24397e-06
5.2443e-06
5.24462e-06
5.24496e-06
5.24531e-06
5.24567e-06
5.24603e-06
5.24638e-06
5.24672e-06
5.24713e-06
5.24765e-06
5.24825e-06
5.24881e-06
5.24919e-06
5.2493e-06
5.24947e-06
5.24985e-06
5.2502e-06
5.25075e-06
5.25212e-06
5.25366e-06
5.25489e-06
5.25546e-06
5.25525e-06
5.25447e-06
5.25469e-06
5.25564e-06
5.25651e-06
5.25695e-06
5.25679e-06
5.25647e-06
5.25655e-06
5.25964e-06
5.23811e-06
5.23848e-06
5.23883e-06
5.23918e-06
5.23952e-06
5.23985e-06
5.24017e-06
5.24049e-06
5.24081e-06
5.24112e-06
5.24143e-06
5.24174e-06
5.24205e-06
5.24236e-06
5.24268e-06
5.243e-06
5.24332e-06
5.24365e-06
5.24397e-06
5.2443e-06
5.24462e-06
5.24496e-06
5.24531e-06
5.24567e-06
5.24603e-06
5.24638e-06
5.24672e-06
5.24713e-06
5.24766e-06
5.24826e-06
5.24882e-06
5.24919e-06
5.24928e-06
5.24947e-06
5.24986e-06
5.25021e-06
5.25079e-06
5.25219e-06
5.25374e-06
5.25495e-06
5.25548e-06
5.2552e-06
5.25442e-06
5.25473e-06
5.25571e-06
5.25658e-06
5.25698e-06
5.25678e-06
5.25645e-06
5.25665e-06
5.25977e-06
5.2377e-06
5.23808e-06
5.23845e-06
5.23882e-06
5.23917e-06
5.23951e-06
5.23984e-06
5.24017e-06
5.24049e-06
5.2408e-06
5.24112e-06
5.24143e-06
5.24174e-06
5.24205e-06
5.24236e-06
5.24268e-06
5.243e-06
5.24332e-06
5.24365e-06
5.24398e-06
5.2443e-06
5.24462e-06
5.24496e-06
5.24531e-06
5.24567e-06
5.24603e-06
5.24637e-06
5.24672e-06
5.24714e-06
5.24767e-06
5.24828e-06
5.24883e-06
5.24919e-06
5.24926e-06
5.24947e-06
5.24987e-06
5.25021e-06
5.25082e-06
5.25226e-06
5.25382e-06
5.25501e-06
5.25549e-06
5.25515e-06
5.25437e-06
5.25478e-06
5.25579e-06
5.25664e-06
5.25701e-06
5.25677e-06
5.25643e-06
5.25675e-06
5.2599e-06
5.23767e-06
5.23805e-06
5.23843e-06
5.2388e-06
5.23915e-06
5.23949e-06
5.23983e-06
5.24016e-06
5.24048e-06
5.2408e-06
5.24111e-06
5.24143e-06
5.24174e-06
5.24205e-06
5.24236e-06
5.24268e-06
5.243e-06
5.24333e-06
5.24365e-06
5.24398e-06
5.2443e-06
5.24462e-06
5.24496e-06
5.24531e-06
5.24567e-06
5.24603e-06
5.24637e-06
5.24672e-06
5.24714e-06
5.24768e-06
5.24829e-06
5.24884e-06
5.24918e-06
5.24924e-06
5.24947e-06
5.24988e-06
5.25021e-06
5.25086e-06
5.25233e-06
5.2539e-06
5.25506e-06
5.25549e-06
5.2551e-06
5.25433e-06
5.25483e-06
5.25587e-06
5.25671e-06
5.25704e-06
5.25676e-06
5.25642e-06
5.25686e-06
5.26004e-06
5.23727e-06
5.23763e-06
5.23802e-06
5.23841e-06
5.23878e-06
5.23914e-06
5.23948e-06
5.23982e-06
5.24015e-06
5.24048e-06
5.2408e-06
5.24111e-06
5.24142e-06
5.24174e-06
5.24205e-06
5.24236e-06
5.24268e-06
5.243e-06
5.24333e-06
5.24365e-06
5.24398e-06
5.2443e-06
5.24462e-06
5.24495e-06
5.24531e-06
5.24567e-06
5.24603e-06
5.24637e-06
5.24672e-06
5.24714e-06
5.24769e-06
5.24831e-06
5.24885e-06
5.24917e-06
5.24922e-06
5.24948e-06
5.24988e-06
5.25021e-06
5.2509e-06
5.2524e-06
5.25398e-06
5.25512e-06
5.25549e-06
5.25504e-06
5.2543e-06
5.25488e-06
5.25594e-06
5.25677e-06
5.25706e-06
5.25674e-06
5.2564e-06
5.25698e-06
5.26017e-06
5.23724e-06
5.2376e-06
5.238e-06
5.23839e-06
5.23876e-06
5.23912e-06
5.23947e-06
5.23981e-06
5.24015e-06
5.24047e-06
5.24079e-06
5.24111e-06
5.24142e-06
5.24174e-06
5.24205e-06
5.24237e-06
5.24269e-06
5.24301e-06
5.24333e-06
5.24366e-06
5.24398e-06
5.2443e-06
5.24462e-06
5.24495e-06
5.24531e-06
5.24567e-06
5.24603e-06
5.24637e-06
5.24672e-06
5.24715e-06
5.2477e-06
5.24832e-06
5.24886e-06
5.24917e-06
5.24919e-06
5.24948e-06
5.24989e-06
5.25022e-06
5.25094e-06
5.25248e-06
5.25406e-06
5.25517e-06
5.25549e-06
5.25497e-06
5.25428e-06
5.25494e-06
5.25602e-06
5.25683e-06
5.25709e-06
5.25672e-06
5.25639e-06
5.25711e-06
5.26031e-06
5.23688e-06
5.23721e-06
5.23758e-06
5.23797e-06
5.23837e-06
5.23875e-06
5.23911e-06
5.23946e-06
5.2398e-06
5.24014e-06
5.24047e-06
5.24079e-06
5.24111e-06
5.24142e-06
5.24174e-06
5.24205e-06
5.24237e-06
5.24269e-06
5.24301e-06
5.24333e-06
5.24366e-06
5.24398e-06
5.2443e-06
5.24462e-06
5.24495e-06
5.24531e-06
5.24567e-06
5.24603e-06
5.24636e-06
5.24672e-06
5.24715e-06
5.24771e-06
5.24834e-06
5.24887e-06
5.24916e-06
5.24918e-06
5.24949e-06
5.2499e-06
5.25022e-06
5.25099e-06
5.25256e-06
5.25414e-06
5.25522e-06
5.25548e-06
5.2549e-06
5.25427e-06
5.25501e-06
5.2561e-06
5.25688e-06
5.2571e-06
5.2567e-06
5.25637e-06
5.25724e-06
5.26045e-06
5.23685e-06
5.23718e-06
5.23755e-06
5.23795e-06
5.23835e-06
5.23873e-06
5.2391e-06
5.23945e-06
5.2398e-06
5.24013e-06
5.24046e-06
5.24079e-06
5.24111e-06
5.24142e-06
5.24174e-06
5.24205e-06
5.24237e-06
5.24269e-06
5.24301e-06
5.24334e-06
5.24366e-06
5.24398e-06
5.2443e-06
5.24462e-06
5.24495e-06
5.24531e-06
5.24567e-06
5.24603e-06
5.24636e-06
5.24672e-06
5.24716e-06
5.24773e-06
5.24835e-06
5.24888e-06
5.24915e-06
5.24916e-06
5.24949e-06
5.24991e-06
5.25023e-06
5.25104e-06
5.25264e-06
5.25422e-06
5.25526e-06
5.25547e-06
5.25483e-06
5.25426e-06
5.25507e-06
5.25618e-06
5.25694e-06
5.25712e-06
5.25668e-06
5.25637e-06
5.25739e-06
5.26059e-06
5.23682e-06
5.23715e-06
5.23752e-06
5.23792e-06
5.23833e-06
5.23872e-06
5.23909e-06
5.23944e-06
5.23979e-06
5.24013e-06
5.24046e-06
5.24078e-06
5.2411e-06
5.24142e-06
5.24174e-06
5.24206e-06
5.24237e-06
5.24269e-06
5.24301e-06
5.24334e-06
5.24366e-06
5.24398e-06
5.2443e-06
5.24462e-06
5.24495e-06
5.24531e-06
5.24567e-06
5.24603e-06
5.24636e-06
5.24672e-06
5.24716e-06
5.24774e-06
5.24837e-06
5.24889e-06
5.24914e-06
5.24915e-06
5.2495e-06
5.24991e-06
5.25023e-06
5.25109e-06
5.25273e-06
5.2543e-06
5.25531e-06
5.25546e-06
5.25476e-06
5.25427e-06
5.25514e-06
5.25626e-06
5.25699e-06
5.25713e-06
5.25665e-06
5.25636e-06
5.25754e-06
5.26073e-06
5.23679e-06
5.23712e-06
5.2375e-06
5.2379e-06
5.23831e-06
5.2387e-06
5.23908e-06
5.23943e-06
5.23978e-06
5.24012e-06
5.24045e-06
5.24078e-06
5.2411e-06
5.24142e-06
5.24174e-06
5.24206e-06
5.24238e-06
5.2427e-06
5.24302e-06
5.24334e-06
5.24366e-06
5.24398e-06
5.2443e-06
5.24462e-06
5.24495e-06
5.24531e-06
5.24567e-06
5.24603e-06
5.24636e-06
5.24672e-06
5.24717e-06
5.24775e-06
5.24838e-06
5.24889e-06
5.24912e-06
5.24914e-06
5.24951e-06
5.24992e-06
5.25023e-06
5.25115e-06
5.25281e-06
5.25438e-06
5.25534e-06
5.25544e-06
5.25468e-06
5.25428e-06
5.25522e-06
5.25634e-06
5.25704e-06
5.25713e-06
5.25662e-06
5.25636e-06
5.25769e-06
5.26087e-06
5.23645e-06
5.23676e-06
5.2371e-06
5.23747e-06
5.23788e-06
5.23829e-06
5.23869e-06
5.23906e-06
5.23943e-06
5.23977e-06
5.24012e-06
5.24045e-06
5.24078e-06
5.2411e-06
5.24142e-06
5.24174e-06
5.24206e-06
5.24238e-06
5.2427e-06
5.24302e-06
5.24334e-06
5.24366e-06
5.24398e-06
5.2443e-06
5.24462e-06
5.24495e-06
5.24531e-06
5.24568e-06
5.24603e-06
5.24636e-06
5.24672e-06
5.24718e-06
5.24777e-06
5.2484e-06
5.2489e-06
5.24911e-06
5.24913e-06
5.24952e-06
5.24993e-06
5.25024e-06
5.25121e-06
5.2529e-06
5.25446e-06
5.25538e-06
5.25541e-06
5.2546e-06
5.2543e-06
5.25529e-06
5.25641e-06
5.25709e-06
5.25714e-06
5.25659e-06
5.25636e-06
5.25785e-06
5.26101e-06
5.23641e-06
5.23674e-06
5.23707e-06
5.23745e-06
5.23786e-06
5.23827e-06
5.23867e-06
5.23905e-06
5.23942e-06
5.23977e-06
5.24011e-06
5.24045e-06
5.24078e-06
5.2411e-06
5.24142e-06
5.24174e-06
5.24206e-06
5.24238e-06
5.2427e-06
5.24302e-06
5.24334e-06
5.24366e-06
5.24398e-06
5.2443e-06
5.24461e-06
5.24495e-06
5.24531e-06
5.24568e-06
5.24603e-06
5.24636e-06
5.24672e-06
5.24718e-06
5.24778e-06
5.24842e-06
5.2489e-06
5.24909e-06
5.24912e-06
5.24953e-06
5.24993e-06
5.25025e-06
5.25127e-06
5.25298e-06
5.25453e-06
5.25541e-06
5.25538e-06
5.25453e-06
5.25432e-06
5.25537e-06
5.25649e-06
5.25714e-06
5.25713e-06
5.25656e-06
5.25637e-06
5.25801e-06
5.26115e-06
5.23602e-06
5.23638e-06
5.23671e-06
5.23705e-06
5.23743e-06
5.23784e-06
5.23825e-06
5.23866e-06
5.23904e-06
5.23941e-06
5.23976e-06
5.24011e-06
5.24044e-06
5.24077e-06
5.2411e-06
5.24142e-06
5.24174e-06
5.24206e-06
5.24238e-06
5.2427e-06
5.24302e-06
5.24334e-06
5.24367e-06
5.24398e-06
5.2443e-06
5.24461e-06
5.24495e-06
5.24531e-06
5.24568e-06
5.24602e-06
5.24635e-06
5.24672e-06
5.24719e-06
5.2478e-06
5.24843e-06
5.24891e-06
5.24907e-06
5.24912e-06
5.24954e-06
5.24994e-06
5.25025e-06
5.25134e-06
5.25307e-06
5.25461e-06
5.25544e-06
5.25535e-06
5.25445e-06
5.25435e-06
5.25545e-06
5.25657e-06
5.25718e-06
5.25713e-06
5.25652e-06
5.25639e-06
5.25818e-06
5.26129e-06
5.23598e-06
5.23635e-06
5.23668e-06
5.23703e-06
5.23741e-06
5.23782e-06
5.23824e-06
5.23864e-06
5.23903e-06
5.2394e-06
5.23975e-06
5.2401e-06
5.24044e-06
5.24077e-06
5.2411e-06
5.24142e-06
5.24175e-06
5.24207e-06
5.24238e-06
5.2427e-06
5.24303e-06
5.24335e-06
5.24367e-06
5.24398e-06
5.24429e-06
5.24461e-06
5.24495e-06
5.24531e-06
5.24568e-06
5.24602e-06
5.24635e-06
5.24672e-06
5.2472e-06
5.24781e-06
5.24845e-06
5.24891e-06
5.24905e-06
5.24911e-06
5.24955e-06
5.24994e-06
5.25026e-06
5.25141e-06
5.25316e-06
5.25468e-06
5.25547e-06
5.25531e-06
5.25438e-06
5.25439e-06
5.25553e-06
5.25664e-06
5.25722e-06
5.25712e-06
5.25649e-06
5.25642e-06
5.25836e-06
5.26143e-06
5.23595e-06
5.23632e-06
5.23666e-06
5.23701e-06
5.23738e-06
5.2378e-06
5.23822e-06
5.23863e-06
5.23902e-06
5.23939e-06
5.23975e-06
5.2401e-06
5.24044e-06
5.24077e-06
5.2411e-06
5.24143e-06
5.24175e-06
5.24207e-06
5.24239e-06
5.24271e-06
5.24303e-06
5.24335e-06
5.24367e-06
5.24398e-06
5.24429e-06
5.24461e-06
5.24495e-06
5.24531e-06
5.24568e-06
5.24602e-06
5.24635e-06
5.24672e-06
5.24721e-06
5.24783e-06
5.24846e-06
5.24891e-06
5.24903e-06
5.24911e-06
5.24956e-06
5.24995e-06
5.25027e-06
5.25148e-06
5.25325e-06
5.25475e-06
5.25549e-06
5.25526e-06
5.2543e-06
5.25443e-06
5.25561e-06
5.25671e-06
5.25725e-06
5.25711e-06
5.25645e-06
5.25645e-06
5.25854e-06
5.26157e-06
5.23592e-06
5.23629e-06
5.23664e-06
5.23698e-06
5.23737e-06
5.23778e-06
5.23821e-06
5.23862e-06
5.23901e-06
5.23938e-06
5.23974e-06
5.24009e-06
5.24043e-06
5.24077e-06
5.2411e-06
5.24143e-06
5.24175e-06
5.24207e-06
5.24239e-06
5.24271e-06
5.24303e-06
5.24335e-06
5.24367e-06
5.24398e-06
5.24429e-06
5.24461e-06
5.24495e-06
5.24531e-06
5.24568e-06
5.24602e-06
5.24635e-06
5.24672e-06
5.24722e-06
5.24784e-06
5.24847e-06
5.24891e-06
5.24901e-06
5.24911e-06
5.24957e-06
5.24995e-06
5.25028e-06
5.25155e-06
5.25334e-06
5.25482e-06
5.25551e-06
5.25522e-06
5.25424e-06
5.25448e-06
5.25569e-06
5.25678e-06
5.25728e-06
5.25709e-06
5.25641e-06
5.2565e-06
5.25872e-06
5.26171e-06
5.23588e-06
5.23626e-06
5.23661e-06
5.23696e-06
5.23735e-06
5.23776e-06
5.23819e-06
5.23861e-06
5.239e-06
5.23938e-06
5.23974e-06
5.24009e-06
5.24043e-06
5.24077e-06
5.2411e-06
5.24143e-06
5.24175e-06
5.24207e-06
5.24239e-06
5.24271e-06
5.24303e-06
5.24335e-06
5.24367e-06
5.24398e-06
5.24429e-06
5.24461e-06
5.24495e-06
5.24531e-06
5.24568e-06
5.24602e-06
5.24635e-06
5.24672e-06
5.24723e-06
5.24786e-06
5.24849e-06
5.24891e-06
5.24898e-06
5.24912e-06
5.24959e-06
5.24995e-06
5.2503e-06
5.25163e-06
5.25343e-06
5.25489e-06
5.25553e-06
5.25516e-06
5.25418e-06
5.25453e-06
5.25577e-06
5.25685e-06
5.25731e-06
5.25707e-06
5.25638e-06
5.25656e-06
5.2589e-06
5.26185e-06
5.23586e-06
5.23623e-06
5.23659e-06
5.23695e-06
5.23733e-06
5.23775e-06
5.23818e-06
5.2386e-06
5.23899e-06
5.23937e-06
5.23973e-06
5.24008e-06
5.24043e-06
5.24077e-06
5.2411e-06
5.24143e-06
5.24175e-06
5.24207e-06
5.24239e-06
5.24271e-06
5.24303e-06
5.24335e-06
5.24367e-06
5.24398e-06
5.24429e-06
5.24461e-06
5.24495e-06
5.24531e-06
5.24568e-06
5.24602e-06
5.24635e-06
5.24673e-06
5.24724e-06
5.24788e-06
5.2485e-06
5.2489e-06
5.24896e-06
5.24912e-06
5.2496e-06
5.24996e-06
5.25031e-06
5.25171e-06
5.25352e-06
5.25495e-06
5.25554e-06
5.25511e-06
5.25412e-06
5.25458e-06
5.25586e-06
5.25692e-06
5.25733e-06
5.25705e-06
5.25634e-06
5.25663e-06
5.25909e-06
5.26199e-06
5.23583e-06
5.23621e-06
5.23657e-06
5.23693e-06
5.23731e-06
5.23773e-06
5.23816e-06
5.23859e-06
5.23899e-06
5.23936e-06
5.23973e-06
5.24008e-06
5.24043e-06
5.24077e-06
5.2411e-06
5.24143e-06
5.24176e-06
5.24208e-06
5.2424e-06
5.24271e-06
5.24303e-06
5.24335e-06
5.24367e-06
5.24398e-06
5.24429e-06
5.24461e-06
5.24495e-06
5.24532e-06
5.24568e-06
5.24602e-06
5.24634e-06