/*--------------------------------*- C++ -*----------------------------------*\
  =========                 |
  \\      /  F ield         | OpenFOAM: The Open Source CFD Toolbox
   \\    /   O peration     | Website:  https://openfoam.org
    \\  /    A nd           | Version:  7
     \\/     M anipulation  |
\*---------------------------------------------------------------------------*/
FoamFile
{
    version     2.0;
    format      ascii;
    class       volScalarField;
    location    "1600";
    object      p;
}
// * * * * * * * * * * * * * * * * * * * * * * * * * * * * * * * * * * * * * //

dimensions      [0 2 -2 0 0 0 0];

internalField   nonuniform List<scalar> 
23023
(
1.21127
0.490493
1.21147
1.96226
0.489763
1.21145
2.2349
1.95999
0.488901
1.2113
2.23155
1.95763
0.488159
1.21115
3.01825
2.22826
1.95538
0.487528
1.21105
3.48379
3.01414
2.22517
1.95319
0.486903
1.211
4.06181
3.47923
3.01023
2.22217
1.951
0.486234
1.21098
4.56706
4.05709
3.47501
3.00652
2.21918
1.9488
0.485532
1.211
5.11798
4.56235
4.05283
3.47103
3.00288
2.2162
1.94664
0.48482
1.21104
5.68145
5.11336
4.55819
4.04877
3.46709
2.99924
2.21326
1.94452
0.484111
1.21109
5.6768
5.10931
4.55418
4.04473
3.46318
2.99565
2.21036
1.94242
0.483409
1.21115
6.28372
5.67268
5.10536
4.5502
4.04074
3.45936
2.99215
2.20751
1.94031
0.482712
1.2112
6.91945
6.27919
5.66869
5.10145
4.54631
4.03691
3.45567
2.98874
2.20469
1.93819
0.482018
1.21125
7.57504
6.91445
6.27509
5.66477
5.09769
4.54262
4.03324
3.45208
2.98539
2.20189
1.93604
0.481317
1.2113
8.2261
7.56925
6.90978
6.27107
5.66105
5.09417
4.53914
4.02972
3.44858
2.98208
2.1991
1.93387
0.480603
1.21138
8.21925
7.5637
6.90522
6.26716
5.65759
5.09088
4.53583
4.0263
3.44515
2.97879
2.19632
1.93167
0.479872
1.21148
8.84546
8.2126
7.55833
6.90084
6.2635
5.65438
5.08779
4.53265
4.02298
3.44177
2.97552
2.19353
1.92945
0.479126
1.2116
9.43747
8.83772
8.20622
7.55321
6.89674
6.26012
5.65138
5.08486
4.5296
4.01974
3.43844
2.97227
2.19072
1.92721
0.478373
1.21175
9.42855
8.83021
8.20015
7.54837
6.89291
6.25697
5.64857
5.08208
4.52666
4.01657
3.43516
2.96902
2.18791
1.92496
0.477622
1.21193
9.98958
9.41993
8.82303
8.19437
7.54381
6.88931
6.25403
5.64594
5.07945
4.52383
4.01349
3.43191
2.96578
2.1851
1.92272
0.476882
1.21213
10.5368
9.97993
9.4117
8.81619
8.18885
7.53947
6.88592
6.25128
5.64348
5.07696
4.52111
4.01047
3.4287
2.96256
2.18231
1.92051
0.476157
1.21235
11.0907
10.5263
9.9707
9.40383
8.80964
8.18356
7.53534
6.88275
6.24873
5.64118
5.07461
4.51851
4.00753
3.42554
2.95935
2.17954
1.91831
0.475448
1.21258
11.6665
11.0795
10.5163
9.96188
9.39625
8.80333
8.17849
7.53143
6.87977
6.24636
5.63905
5.07241
4.51601
4.00466
3.42242
2.95619
2.1768
1.91614
0.474751
1.21284
11.6545
11.0688
10.5067
9.95341
9.38894
8.79726
8.17365
7.52773
6.87699
6.24418
5.6371
5.07036
4.51363
4.00187
3.41936
2.95306
2.17409
1.91399
0.474062
1.21311
12.2556
11.6431
11.0585
10.4975
9.94524
9.38191
8.79143
8.16902
7.52423
6.8744
6.24217
5.63532
5.06844
4.51135
3.99916
3.41636
2.94998
2.17141
1.91185
0.473375
1.2134
12.8771
12.2433
11.6321
11.0486
10.4886
9.93736
9.37514
8.78583
8.1646
7.52091
6.872
6.24035
5.6337
5.06666
4.50917
3.99653
3.41341
2.94694
2.16873
1.90971
0.472684
1.21372
12.8639
12.2316
11.6215
11.039
10.48
9.9298
9.36863
8.78045
8.16036
7.51779
6.86979
6.23871
5.63224
5.06501
4.50709
3.99397
3.41051
2.94394
2.16607
1.90756
0.471986
1.21406
13.4949
12.8512
12.2203
11.6113
11.0299
10.4718
9.92253
9.36236
8.77526
8.15632
7.51485
6.86777
6.23725
5.63093
5.06346
4.5051
3.99147
3.40766
2.94095
2.1634
1.9054
0.471281
1.21444
14.1301
13.4811
12.839
12.2094
11.6016
11.0211
10.4639
9.91554
9.35631
8.77026
8.15245
7.5121
6.86593
6.23595
5.62975
5.06203
4.50319
3.98904
3.40485
2.93798
2.16072
1.90324
0.470568
1.21484
14.1151
13.4679
12.8272
12.1989
11.5922
11.0127
10.4564
9.90881
9.35046
8.76544
8.14877
7.50954
6.86426
6.23481
5.62869
5.06069
4.50136
3.98665
3.40205
2.935
2.15803
1.90107
0.469851
1.21527
14.7531
14.1006
13.4552
12.816
12.189
11.5833
11.0047
10.4491
9.90231
9.34481
8.7608
8.14527
7.50715
6.86275
6.2338
5.62775
5.05945
4.4996
3.98432
3.39928
2.93203
2.15535
1.8989
0.469132
1.21572
15.4009
14.7374
14.0868
13.443
12.8052
12.1794
11.5748
10.997
10.4421
9.89604
9.33935
8.75633
8.14193
7.50492
6.86139
6.23292
5.62692
5.0583
4.49791
3.98201
3.39651
2.92906
2.15266
1.89674
0.468415
1.21618
15.3838
14.7223
14.0735
13.4313
12.7949
12.1703
11.5666
10.9896
10.4354
9.88998
9.33407
8.75204
8.13877
7.50285
6.86017
6.23217
5.6262
5.05725
4.49628
3.97974
3.39376
2.92609
2.14997
1.89457
0.467701
1.21666
16.0463
15.3675
14.7079
14.0608
13.4201
12.785
12.1615
11.5588
10.9825
10.4289
9.88412
9.32897
8.74792
8.13577
7.50092
6.85908
6.23153
5.62559
5.05627
4.4947
3.9775
3.39102
2.92314
2.1473
1.89242
0.466993
1.21714
16.7286
16.0286
15.3519
14.6941
14.0486
13.4093
12.7755
12.1532
11.5513
10.9757
10.4227
9.87846
9.32406
8.74397
8.13292
7.49913
6.85812
6.23102
5.62508
5.05538
4.49318
3.97529
3.38831
2.92019
2.14463
1.89026
0.46629
1.21764
16.7095
16.0118
15.3368
14.6808
14.0368
13.399
12.7665
12.1451
11.5441
10.9692
10.4167
9.873
9.31933
8.74018
8.13021
7.49747
6.85729
6.23063
5.62468
5.05457
4.4917
3.97311
3.38561
2.91727
2.14198
1.88812
0.465593
1.21816
17.4107
16.6913
15.9955
15.3224
14.668
14.0256
13.3892
12.7578
12.1375
11.5372
10.9629
10.4109
9.86774
9.31477
8.73655
8.12764
7.49595
6.85659
6.23036
5.62438
5.05382
4.49028
3.97098
3.38295
2.91436
2.13934
1.88598
0.4649
1.21868
18.132
17.391
16.6738
15.9799
15.3086
14.6558
14.0148
13.3797
12.7495
12.1301
11.5307
10.9569
10.4053
9.86268
9.31039
8.73306
8.1252
7.49455
6.85602
6.2302
5.62418
5.05315
4.4889
3.96887
3.3803
2.91147
2.13671
1.88384
0.464211
1.21923
18.8744
18.1107
17.3721
16.6569
15.965
15.2954
14.6441
14.0045
13.3706
12.7415
12.1231
11.5244
10.9512
10.4
9.85781
9.30617
8.72971
8.12289
7.49328
6.85557
6.23016
5.62405
5.05254
4.48758
3.96681
3.37769
2.9086
2.13409
1.88171
0.463525
1.21978
19.6404
18.8514
18.0903
17.3539
16.6408
15.9506
15.2827
14.6329
13.9946
13.3619
12.7339
12.1164
11.5184
10.9457
10.3949
9.85312
9.30209
8.72648
8.12069
7.49214
6.85524
6.23022
5.62402
5.05199
4.4863
3.96477
3.3751
2.90574
2.13147
1.87958
0.462842
1.22036
20.4328
19.6155
18.8294
18.0707
17.3365
16.6253
15.9369
15.2705
14.6221
13.9851
13.3535
12.7266
12.11
11.5127
10.9404
10.39
9.8486
9.29813
8.72336
8.11862
7.49112
6.85503
6.23038
5.62405
5.0515
4.48507
3.96277
3.37253
2.90289
2.12885
1.87745
0.462161
1.22095
21.2543
20.4059
19.5917
18.8082
18.0519
17.3198
16.6104
15.9237
15.2588
14.6118
13.976
13.3456
12.7197
12.1039
11.5073
10.9354
10.3853
9.84423
9.2943
8.72036
8.11666
7.49021
6.85492
6.23063
5.62416
5.05107
4.48387
3.9608
3.36997
2.90005
2.12624
1.87533
0.461482
1.22155
21.2253
20.3803
19.5689
18.7879
18.0338
17.3037
16.5962
15.9111
15.2476
14.6018
13.9672
13.3379
12.713
12.0981
11.5021
10.9306
10.3807
9.83999
9.29059
8.71747
8.11482
7.48942
6.85491
6.23095
5.62433
5.05069
4.48272
3.95885
3.36743
2.89722
2.12362
1.8732
0.460805
1.22217
22.0757
21.1975
20.3555
19.5469
18.7684
18.0165
17.2884
16.5826
15.8991
15.2369
14.5923
13.9588
13.3306
12.7067
12.0926
11.4972
10.926
10.3763
9.83587
9.28698
8.71469
8.11309
7.48872
6.85499
6.23136
5.62457
5.05036
4.48161
3.95693
3.3649
2.89439
2.12101
1.87108
0.460129
1.2228
22.9597
22.0457
21.1708
20.3318
19.5258
18.7496
17.9999
17.2736
16.5695
15.8875
15.2266
14.5832
13.9508
13.3236
12.7006
12.0874
11.4924
10.9216
10.3721
9.83187
9.28348
8.71202
8.11146
7.48813
6.85515
6.23184
5.62488
5.05009
4.48053
3.95504
3.36239
2.89156
2.11839
1.86895
0.459456
1.22344
22.9272
22.0169
21.1452
20.309
19.5056
18.7317
17.9839
17.2595
16.557
15.8764
15.2168
14.5744
13.9431
13.3169
12.6949
12.0823
11.4879
10.9173
10.368
9.82799
9.2801
8.70945
8.10994
7.48762
6.8554
6.23239
5.62524
5.04986
4.47949
3.95316
3.35988
2.88874
2.11578
1.86683
0.458783
1.22408
23.8445
22.8961
21.9893
21.1206
20.2872
19.4862
18.7145
17.9687
17.246
16.545
15.8657
15.2073
14.566
13.9357
13.3105
12.6894
12.0775
11.4836
10.9132
10.364
9.82423
9.27682
8.70699
8.1085
7.4872
6.85572
6.23302
5.62566
5.04968
4.47848
3.95131
3.35739
2.88593
2.11317
1.86471
0.458112
1.22474
24.8004
23.8108
22.8662
21.9627
21.0971
20.2663
19.4676
18.698
17.954
17.233
16.5335
15.8555
15.1982
14.558
13.9286
13.3044
12.6841
12.073
11.4794
10.9092
10.3601
9.82058
9.27365
8.70463
8.10716
7.48686
6.85613
6.23371
5.62615
5.04955
4.47751
3.94948
3.35492
2.88313
2.11056
1.86258
0.457442
1.22541
25.7982
24.764
23.7786
22.8375
21.9373
21.0744
20.2462
19.4498
18.6821
17.94
17.2206
16.5225
15.8457
15.1895
14.5502
13.9219
13.2985
12.6791
12.0686
11.4754
10.9054
10.3564
9.81704
9.27058
8.70236
8.1059
7.4866
6.8566
6.23447
5.62669
5.04946
4.47657
3.94768
3.35246
2.88033
2.10795
1.86046
0.456773
1.22608
26.8413
25.7588
24.7292
23.7476
22.81
21.9128
21.0528
20.2269
19.4327
18.667
17.9266
17.2086
16.5119
15.8363
15.1811
14.5428
13.9154
13.2929
12.6743
12.0644
11.4716
10.9018
10.3528
9.81363
9.26763
8.70018
8.10473
7.48642
6.85715
6.23529
5.62729
5.04943
4.47567
3.9459
3.35001
2.87754
2.10534
1.85834
0.456103
1.22677
27.9334
26.7987
25.7211
24.6957
23.7178
22.7836
21.8894
21.032
20.2085
19.4163
18.6524
17.9137
17.1972
16.5018
15.8273
15.1731
14.5358
13.9092
13.2876
12.6697
12.0605
11.468
10.8983
10.3494
9.81033
9.26477
8.6981
8.10363
7.48632
6.85777
6.23618
5.62795
5.04944
4.47481
3.94415
3.34758
2.87475
2.10273
1.85622
0.455433
1.22746
29.0786
27.8873
26.7579
25.6849
24.6635
23.6893
22.7583
21.8669
21.012
20.1908
19.4006
18.6385
17.9013
17.1863
16.492
15.8186
15.1654
14.529
13.9033
13.2825
12.6654
12.0567
11.4645
10.8949
10.346
9.80714
9.26201
8.69609
8.10262
7.48629
6.85847
6.23714
5.62867
5.0495
4.47398
3.94241
3.34515
2.87196
2.10012
1.8541
0.454762
1.22817
30.2814
29.0287
27.8431
26.7187
25.6501
24.6326
23.6619
22.734
21.8454
20.9929
20.1738
19.3855
18.6251
17.8894
17.1757
16.4827
15.8104
15.1581
14.5225
13.8976
13.2776
12.6612
12.0531
11.4612
10.8917
10.3428
9.80406
9.25934
8.69417
8.10168
7.48633
6.85923
6.23816
5.62945
5.0496
4.47318
3.9407
3.34274
2.86918
2.09751
1.85198
0.454091
1.22888
31.5468
30.2274
28.9809
27.8007
26.6811
25.6167
24.6031
23.6357
22.7108
21.8247
20.9745
20.1575
19.371
18.6123
17.8781
17.1657
16.4738
15.8024
15.151
14.5162
13.8922
13.273
12.6573
12.0496
11.4581
10.8886
10.3398
9.80108
9.25676
8.69233
8.10081
7.48644
6.86006
6.23925
5.63027
5.04975
4.47241
3.939
3.34033
2.8664
2.09489
1.84986
0.45342
1.2296
32.8801
31.4883
30.1756
28.935
27.76
26.645
25.5847
24.5747
23.6105
22.6884
21.8049
20.957
20.1419
19.3572
18.6
17.8672
17.156
16.4652
15.7948
15.1443
14.5103
13.8869
13.2685
12.6535
12.0463
11.4551
10.8857
10.3368
9.7982
9.25426
8.69055
8.1
7.48662
6.86095
6.24039
5.63115
5.04994
4.47167
3.93732
3.33792
2.86362
2.09228
1.84774
0.452749
1.23032
34.2874
32.8167
31.4322
30.1259
28.8909
27.7209
26.6103
25.5541
24.5475
23.5864
22.667
21.7859
20.9401
20.1269
19.3439
18.5882
17.8568
17.1468
16.4571
15.7876
15.1378
14.5046
13.882
13.2642
12.6499
12.0432
11.4522
10.8829
10.334
9.79542
9.25183
8.68885
8.09926
7.48686
6.8619
6.24159
5.63208
5.05016
4.47094
3.93564
3.33552
2.86084
2.08967
1.84563
0.45208
1.23105
35.7753
34.2186
32.7559
31.3783
30.0782
28.8486
27.6835
26.5771
25.5246
24.5214
23.5632
22.6464
21.7677
20.9239
20.1126
19.3312
18.577
17.8468
17.1379
16.4492
15.7806
15.1316
14.4991
13.8772
13.2602
12.6464
12.0403
11.4495
10.8802
10.3312
9.79273
9.24948
8.6872
8.09858
7.48716
6.86292
6.24285
5.63305
5.05041
4.47024
3.93397
3.33311
2.85806
2.08706
1.84352
0.451412
1.23178
37.3515
35.7007
34.1527
32.6975
31.3266
30.0324
28.8081
27.6475
26.5453
25.4964
24.4963
23.541
22.6267
21.7502
20.9084
20.0988
19.319
18.5662
17.8372
17.1295
16.4417
15.7739
15.1257
14.4938
13.8726
13.2563
12.6431
12.0374
11.447
10.8777
10.3286
9.79011
9.24719
8.68561
8.09796
7.48752
6.86399
6.24416
5.63407
5.05068
4.46954
3.9323
3.33071
2.85528
2.08445
1.84142
0.450747
1.23252
39.0245
37.2705
35.6292
34.0893
32.6414
31.277
29.9884
28.7692
27.6131
26.5147
25.4693
24.4723
23.5197
22.6078
21.7334
20.8936
20.0857
19.3073
18.5558
17.828
17.1213
16.4345
15.7675
15.12
14.4888
13.8682
13.2525
12.64
12.0348
11.4445
10.8752
10.326
9.78757
9.24496
8.68407
8.09739
7.48794
6.86513
6.24552
5.63512
5.05098
4.46886
3.93064
3.32832
2.85251
2.08185
1.83931
0.450083
1.23327
40.8039
38.9365
37.1928
35.5604
34.0285
32.5876
31.2294
29.9463
28.7318
27.58
26.4854
25.4433
24.4492
23.4992
22.5897
21.7174
20.8793
20.073
19.2961
18.5459
17.8192
17.1136
16.4276
15.7614
15.1146
14.484
13.864
13.249
12.637
12.0322
11.4422
10.8729
10.3236
9.78509
9.24278
8.68259
8.09687
7.48842
6.86631
6.24692
5.6362
5.0513
4.46819
3.92899
3.32593
2.84975
2.07926
1.83721
0.449418
1.23402
42.7003
40.7082
38.852
37.1182
35.4944
33.9701
32.536
31.1837
29.9058
28.696
27.5482
26.4573
25.4183
24.4271
23.4796
22.5723
21.702
20.8657
20.061
19.2854
18.5364
17.8108
17.1061
16.421
15.7555
15.1093
14.4794
13.86
13.2455
12.6342
12.0298
11.44
10.8707
10.3212
9.78267
9.24066
8.68115
8.09641
7.48895
6.86755
6.24837
5.63731
5.05164
4.46753
3.92735
3.32355
2.84699
2.07667
1.8351
0.448747
1.23474
44.7262
42.5963
40.6164
38.7709
37.0465
35.4311
33.9141
32.4865
31.1399
29.867
28.6616
27.5178
26.4303
25.3944
24.4059
23.4609
22.5557
21.6872
20.8526
20.0494
19.2751
18.5273
17.8027
17.0989
16.4147
15.7499
15.1044
14.475
13.8562
13.2423
12.6315
12.0276
11.4379
10.8685
10.3189
9.78031
9.23858
8.67976
8.096
7.48953
6.86884
6.24986
5.63845
5.05199
4.46689
3.92573
3.32118
2.84425
2.07407
1.83297
0.44807
1.23545
44.6129
42.4964
40.5282
38.693
36.9777
35.3703
33.8604
32.439
31.0978
29.8298
28.6286
27.4886
26.4044
25.3715
24.3856
23.4428
22.5397
21.6731
20.8401
20.0383
19.2653
18.5185
17.795
17.0921
16.4086
15.7446
15.0996
14.4707
13.8525
13.2392
12.6289
12.0255
11.436
10.8665
10.3166
9.778
9.23654
8.67843
8.09565
7.49017
6.87017
6.25139
5.63961
5.05237
4.46626
3.92412
3.31883
2.84149
2.07146
1.83085
0.447392
1.23616
46.7719
44.5041
42.4003
40.4434
38.6182
36.9116
35.3119
33.8089
32.3934
31.0574
29.7941
28.597
27.4605
26.3795
25.3495
24.3661
23.4256
22.5244
21.6595
20.8281
20.0276
19.2558
18.5101
17.7876
17.0855
16.4028
15.7394
15.095
14.4667
13.8489
13.2362
12.6265
12.0234
11.4341
10.8645
10.3144
9.77573
9.23456
8.67715
8.09536
7.49087
6.87155
6.25294
5.6408
5.05276
4.46566
3.92252
3.31647
2.83872
2.06886
1.82874
0.446716
1.23686
46.6533
44.3995
42.3081
40.3621
38.5465
36.8483
35.256
33.7594
32.3496
31.0187
29.7598
28.5666
27.4336
26.3557
25.3284
24.3474
23.409
22.5098
21.6466
20.8166
20.0174
19.2468
18.5021
17.7804
17.0793
16.3973
15.7345
15.0906
14.4628
13.8456
13.2334
12.6242
12.0215
11.4323
10.8626
10.3123
9.77352
9.23263
8.67592
8.09512
7.49161
6.87296
6.25453
5.64202
5.05318
4.46507
3.92093
3.3141
2.83598
2.06628
1.82662
0.446039
1.23756
48.9598
46.5393
44.299
42.2196
40.284
38.4776
36.7875
35.2022
33.7119
32.3076
30.9815
29.7269
28.5375
27.4078
26.3329
25.3081
24.3295
23.3931
22.4957
21.6341
20.8056
20.0076
19.2381
18.4944
17.7736
17.0733
16.392
15.7298
15.0864
14.459
13.8423
13.2307
12.6221
12.0198
11.4307
10.8607
10.3102
9.77136
9.23075
8.67475
8.09493
7.49239
6.87442
6.25614
5.64325
5.05362
4.46449
3.91934
3.31175
2.83325
2.0637
1.8245
0.445359
1.23825
48.8355
46.4298
44.2025
42.1346
40.2091
38.4115
36.7291
35.1507
33.6663
32.2673
30.9458
29.6953
28.5095
27.3831
26.311
25.2887
24.3123
23.3779
22.4823
21.6222
20.795
19.9983
19.2298
18.487
17.7671
17.0675
16.3869
15.7253
15.0824
14.4555
13.8392
13.2281
12.62
12.0181
11.4291
10.859
10.3082
9.76925
9.22893
8.67363
8.09479
7.49322
6.8759
6.25778
5.64451
5.05408
4.46391
3.91775
3.30942
2.83052
2.06111
1.82238
0.444678
1.23893
48.716
46.3246
44.1099
42.053
40.1372
38.348
36.6731
35.1012
33.6225
32.2286
30.9116
29.665
28.4827
27.3593
26.29
25.2701
24.2958
23.3634
22.4694
21.6108
20.7849
19.9893
19.2218
18.48
17.7609
17.062
16.3821
15.721
15.0786
14.452
13.8363
13.2257
12.6181
12.0165
11.4275
10.8573
10.3062
9.7672
9.22717
8.67256
8.09469
7.49408
6.87741
6.25945
5.6458
5.05454
4.46334
3.91617
3.30709
2.82778
2.05851
1.82025
0.444
1.23961
48.6012
46.2236
44.021
41.9747
40.0682
38.2871
36.6193
35.0537
33.5805
32.1914
30.8788
29.6359
28.457
27.3366
26.2698
25.2523
24.2801
23.3494
22.457
21.5998
20.7751
19.9807
19.2142
18.4733
17.755
17.0568
16.3775
15.7169
15.0749
14.4488
13.8335
13.2234
12.6163
12.015
11.4261
10.8556
10.3043
9.76521
9.22545
8.67155
8.09464
7.49496
6.87894
6.26114
5.64708
5.05499
4.46276
3.91459
3.30474
2.82503
2.05591
1.81813
0.443324
1.24029
51.0503
48.4909
46.1266
43.9357
41.8996
40.0019
38.2287
36.5677
35.0081
33.5403
32.1558
30.8473
29.6081
28.4324
27.3148
26.2505
25.2352
24.2649
23.336
22.4451
21.5893
20.7658
19.9724
19.2069
18.4668
17.7493
17.0518
16.373
15.713
15.0714
14.4456
13.8308
13.2212
12.6146
12.0136
11.4247
10.8541
10.3025
9.76327
9.2238
8.67058
8.09461
7.49588
6.8805
6.26283
5.64834
5.05541
4.46216
3.91299
3.30238
2.82227
2.05332
1.81601
0.442652
1.24095
50.93
48.3851
46.0336
43.8538
41.8274
39.9383
38.1726
36.5182
34.9644
33.5016
32.1217
30.8171
29.5813
28.4087
27.2939
26.232
25.2188
24.2504
23.3232
22.4338
21.5792
20.7569
19.9646
19.1999
18.4606
17.7438
17.047
16.3688
15.7092
15.068
14.4426
13.8282
13.2192
12.613
12.0123
11.4234
10.8526
10.3007
9.7614
9.22219
8.66965
8.09462
7.49682
6.88206
6.26447
5.64956
5.05582
4.46155
3.91138
3.30002
2.81951
2.05072
1.81389
0.441982
1.24161
53.5614
50.8145
48.2835
45.9442
43.7752
41.7581
39.8772
38.1187
36.4707
34.9224
33.4645
32.0889
30.7881
29.5557
28.386
27.2738
26.2142
25.2031
24.2365
23.3109
22.4229
21.5696
20.7484
19.957
19.1933
18.4547
17.7386
17.0424
16.3648
15.7056
15.0648
14.4398
13.8258
13.2172
12.6115
12.011
11.4222
10.8511
10.299
9.75957
9.22063
8.66875
8.09465
7.49774
6.88356
6.26606
5.65075
5.0562
4.46092
3.90975
3.29764
2.81674
2.04812
1.81178
0.441313
1.24225
53.435
50.7034
48.1859
45.8584
43.6997
41.6916
39.8186
38.067
36.4251
34.8821
33.4289
32.0574
30.7603
29.5311
28.3643
27.2546
26.1972
25.1881
24.2232
23.2991
22.4124
21.5604
20.7403
19.9498
19.1869
18.4491
17.7336
17.038
16.3609
15.7022
15.0617
14.437
13.8234
13.2153
12.61
12.0099
11.421
10.8497
10.2973
9.7578
9.21911
8.66787
8.09465
7.49861
6.885
6.26762
5.65192
5.05657
4.46027
3.90811
3.29525
2.81397
2.04553
1.80966
0.440642
1.24288
53.3136
50.5967
48.0922
45.7761
43.6272
41.6278
39.7624
38.0174
36.3813
34.8435
33.3948
32.0273
30.7336
29.5076
28.3435
27.2361
26.1809
25.1736
24.2104
23.2878
22.4025
21.5516
20.7325
19.9429
19.1808
18.4437
17.7288
17.0338
16.3572
15.6989
15.0587
14.4344
13.8212
13.2136
12.6087
12.0088
11.4199
10.8484
10.2957
9.75608
9.2176
8.66697
8.0946
7.49942
6.88641
6.26915
5.65307
5.05692
4.45961
3.90645
3.29286
2.8112
2.04293
1.80755
0.439969
1.24349
53.1969
50.4942
48.0023
45.697
43.5577
41.5666
39.7085
37.9699
36.3393
34.8064
33.3621
31.9983
30.7081
29.485
28.3235
27.2185
26.1653
25.1598
24.1982
23.277
22.3929
21.5431
20.725
19.9363
19.1749
18.4385
17.7243
17.0298
16.3537
15.6958
15.0559
14.4319
13.8191
13.2119
12.6074
12.0077
11.4189
10.8472
10.2942
9.75438
9.21607
8.66601
8.09449
7.50019
6.88778
6.27066
5.65419
5.05723
4.45891
3.90478
3.29045
2.80841
2.04033
1.80543
0.439289
1.24408
53.0847
50.3959
47.9159
45.6211
43.4909
41.5078
39.6567
37.9242
36.299
34.7708
33.3307
31.9706
30.6835
29.4633
28.3043
27.2015
26.1503
25.1465
24.1865
23.2666
22.3838
21.535
20.7179
19.93
19.1694
18.4336
17.7199
17.026
16.3503
15.6927
15.0532
14.4296
13.8171
13.2103
12.6062
12.0068
11.418
10.846
10.2927
9.75266
9.2145
8.66501
8.09434
7.50092
6.88913
6.27214
5.65527
5.05752
4.45819
3.90308
3.28803
2.80563
2.03773
1.8033
0.438601
1.24466
52.9771
50.3015
47.8331
45.5483
43.4268
41.4514
39.607
37.8804
36.2604
34.7367
33.3005
31.944
30.66
29.4425
28.286
27.1853
26.1359
25.1338
24.1752
23.2567
22.375
21.5273
20.7111
19.924
19.164
18.4288
17.7157
17.0223
16.347
15.6899
15.0506
14.4273
13.8152
13.2088
12.6051
12.0059
11.4171
10.8448
10.2911
9.75089
9.21289
8.66396
8.09416
7.50162
6.89044
6.27357
5.65632
5.05776
4.45744
3.90136
3.2856
2.80283
2.03512
1.80116
0.437904
1.24521
52.8737
50.2109
47.7535
45.4784
43.3654
41.3973
39.5593
37.8384
36.2233
34.704
33.2716
31.9185
30.6375
29.4226
28.2684
27.1697
26.1222
25.1217
24.1645
23.2472
22.3666
21.5199
20.7045
19.9182
19.1589
18.4243
17.7117
17.0188
16.344
15.6871
15.0482
14.4251
13.8133
13.2073
12.604
12.0051
11.4162
10.8437
10.2896
9.74909
9.21123
8.66287
8.09393
7.50228
6.8917
6.27497
5.65733
5.05797
4.45667
3.89963
3.28315
2.80003
2.0325
1.79901
0.437196
1.24575
52.7745
50.1239
47.6771
45.4113
43.3064
41.3454
39.5136
37.798
36.1877
34.6726
33.2439
31.894
30.6159
29.4035
28.2515
27.1548
26.109
25.11
24.1542
23.2381
22.3586
21.5128
20.6983
19.9126
19.154
18.4199
17.7079
17.0154
16.341
15.6845
15.0458
14.423
13.8116
13.206
12.603
12.0043
11.4153
10.8424
10.2879
9.74725
9.20952
8.66173
8.09365
7.50289
6.89293
6.27632
5.65829
5.05815
4.45586
3.89787
3.28069
2.79721
2.02987
1.79684
0.436478
1.24626
52.6793
50.0404
47.6038
45.3469
43.2497
41.2955
39.4697
37.7594
36.1536
34.6425
33.2174
31.8706
30.5952
29.3852
28.2353
27.1405
26.0964
25.0989
24.1444
23.2294
22.3509
21.5061
20.6923
19.9074
19.1493
18.4158
17.7043
17.0122
16.3382
15.682
15.0436
14.421
13.8099
13.2047
12.6021
12.0035
11.4144
10.8412
10.2863
9.74534
9.20775
8.66054
8.09334
7.50346
6.8941
6.27763
5.65921
5.05828
4.45502
3.89609
3.27822
2.79439
2.02723
1.79467
0.435751
1.24676
52.5878
49.9602
47.5335
45.2851
43.1954
41.2477
39.4276
37.7222
36.1209
34.6137
33.1919
31.8481
30.5753
29.3677
28.2198
27.1268
26.0843
25.0882
24.1349
23.2211
22.3436
21.4996
20.6865
19.9023
19.1448
18.4118
17.7008
17.0092
16.3355
15.6797
15.0415
14.4191
13.8083
13.2034
12.6011
12.0026
11.4134
10.8398
10.2845
9.74338
9.20594
8.6593
8.09298
7.50399
6.89523
6.27888
5.66008
5.05837
4.45416
3.89429
3.27573
2.79155
2.02458
1.79248
0.435016
1.24724
52.5001
49.8832
47.4659
45.2258
43.1433
41.2018
39.3872
37.6867
36.0895
34.586
33.1675
31.8265
30.5563
29.3508
28.2049
27.1137
26.0727
25.078
24.1259
23.2131
22.3365
21.4934
20.6811
19.8974
19.1405
18.4081
17.6975
17.0063
16.333
15.6774
15.0394
14.4173
13.8067
13.2021
12.6001
12.0017
11.4124
10.8384
10.2827
9.74136
9.20407
8.65802
8.09257
7.50446
6.89629
6.28007
5.6609
5.05843
4.45327
3.89247
3.27322
2.78869
2.02192
1.79029
0.434275
1.24769
52.4158
49.8094
47.4012
45.1689
43.0932
41.1578
39.3484
37.6525
36.0594
34.5594
33.1441
31.8058
30.538
29.3347
28.1907
27.1011
26.0616
25.0682
24.1173
23.2055
22.3298
21.4874
20.6758
19.8928
19.1364
18.4045
17.6943
17.0035
16.3306
15.6752
15.0375
14.4156
13.8052
13.2008
12.5989
12.0007
11.4112
10.837
10.2809
9.73928
9.20215
8.65669
8.09211
7.50487
6.8973
6.28121
5.66167
5.05845
4.45234
3.89063
3.2707
2.78583
2.01926
1.78809
0.43353
1.24813
52.3349
49.7385
47.339
45.1143
43.0452
41.1156
39.3113
37.6198
36.0306
34.534
33.1216
31.786
30.5205
29.3193
28.1771
27.0891
26.051
25.0588
24.109
23.1982
22.3234
21.4817
20.6708
19.8884
19.1325
18.401
17.6913
17.0009
16.3282
15.6732
15.0356
14.4138
13.8035
13.1993
12.5977
11.9996
11.41
10.8354
10.2789
9.73714
9.20018
8.65531
8.0916
7.50523
6.89825
6.28229
5.66239
5.05843
4.45139
3.88877
3.26817
2.78295
2.01659
1.78588
0.432782
1.24855
52.2573
49.6705
47.2793
45.0619
42.9992
41.0751
39.2756
37.5884
36.0029
34.5096
33.1001
31.767
30.5037
29.3045
28.164
27.0775
26.0408
25.0498
24.1011
23.1912
22.3172
21.4763
20.666
19.8842
19.1288
18.3977
17.6884
16.9984
16.326
15.6711
15.0336
14.4119
13.8017
13.1978
12.5964
11.9984
11.4088
10.8338
10.2769
9.73494
9.19816
8.65388
8.09103
7.50553
6.89914
6.28332
5.66307
5.05838
4.45042
3.88688
3.26562
2.78006
2.01392
1.78367
0.432032
1.24894
52.1828
49.6052
47.2221
45.0116
42.955
41.0363
39.2414
37.5583
35.9764
34.4862
33.0794
31.7488
30.4877
29.2903
28.1515
27.0665
26.031
25.0412
24.0935
23.1845
22.3113
21.4711
20.6614
19.8801
19.1252
18.3946
17.6856
16.996
16.3239
15.6691
15.0316
14.4099
13.7999
13.1962
12.5951
11.9972
11.4074
10.8322
10.2749
9.73269
9.19608
8.6524
8.0904
7.50576
6.89997
6.28429
5.6637
5.05829
4.44941
3.88498
3.26305
2.77717
2.01124
1.78146
0.431281
1.24931
52.1113
49.5425
47.1671
44.9634
42.9126
40.999
39.2086
37.5294
35.9509
34.4637
33.0596
31.7313
30.4723
29.2767
28.1395
27.0559
26.0217
25.033
24.0862
23.1781
22.3057
21.4661
20.6571
19.8763
19.1218
18.3916
17.683
16.9936
16.3217
15.6669
15.0295
14.4078
13.7979
13.1945
12.5936
11.9958
11.406
10.8304
10.2727
9.73037
9.19395
8.65085
8.08971
7.50593
6.90073
6.28521
5.66429
5.05816
4.44838
3.88305
3.26048
2.77426
2.00857
1.77925
0.430529
1.24966
52.0426
49.4824
47.1144
44.9171
42.872
40.9633
39.1772
37.5017
35.9265
34.4422
33.0407
31.7146
30.4575
29.2637
28.128
27.0458
26.0128
25.0251
24.0793
23.172
22.3003
21.4614
20.6529
19.8726
19.1186
18.3887
17.6805
16.9912
16.3194
15.6647
15.0272
14.4056
13.7959
13.1927
12.5921
11.9944
11.4044
10.8286
10.2706
9.728
9.19177
8.64925
8.08895
7.50603
6.90143
6.28606
5.66482
5.05799
4.44731
3.88111
3.25789
2.77135
2.00589
1.77703
0.429775
1.24998
51.9768
49.4247
47.0638
44.8727
42.833
40.929
39.147
37.4751
35.9031
34.4216
33.0225
31.6985
30.4433
29.2512
28.117
27.0361
26.0042
25.0176
24.0726
23.1661
22.2951
21.4569
20.6489
19.8691
19.1155
18.3859
17.6778
16.9887
16.3169
15.6623
15.0249
14.4033
13.7938
13.1908
12.5905
11.9929
11.4028
10.8267
10.2683
9.72556
9.18952
8.64759
8.08813
7.50606
6.90207
6.28686
5.66531
5.05778
4.44622
3.87914
3.25528
2.76843
2.00321
1.77481
0.429017
1.25028
51.9136
49.3694
47.0153
44.8301
42.7956
40.8961
39.1181
37.4497
35.8807
34.4018
33.005
31.6832
30.4298
29.2393
28.1065
27.0268
25.996
25.0103
24.0662
23.1605
22.2902
21.4526
20.6451
19.8657
19.1125
18.3831
17.6751
16.986
16.3144
15.6598
15.0224
14.4009
13.7915
13.1888
12.5887
11.9913
11.4011
10.8247
10.266
9.72307
9.18721
8.64585
8.08723
7.50603
6.90264
6.2876
5.66574
5.05752
4.44508
3.87714
3.25267
2.7655
2.00053
1.77258
0.428255
1.25056
51.8529
49.3163
46.9687
44.7893
42.7597
40.8646
39.0903
37.4252
35.8591
34.3829
32.9883
31.6684
30.4168
29.2278
28.0964
27.0179
25.9882
25.0034
24.0602
23.1552
22.2855
21.4484
20.6415
19.8625
19.1094
18.3801
17.6722
16.9833
16.3117
15.6572
15.0198
14.3984
13.7892
13.1867
12.5869
11.9896
11.3993
10.8226
10.2636
9.7205
9.18483
8.64404
8.08627
7.50592
6.90314
6.28827
5.66611
5.05722
4.44391
3.87512
3.25003
2.76257
1.99785
1.77034
0.427486
1.2508
51.7947
49.2653
46.9241
44.7501
42.7253
40.8343
39.0637
37.4018
35.8385
34.3647
32.9723
31.6543
30.4044
29.2168
28.0867
27.0094
25.9807
24.9968
24.0543
23.1501
22.281
21.4445
20.638
19.8591
19.1061
18.3769
17.6691
16.9803
16.3089
15.6544
15.0171
14.3958
13.7867
13.1845
12.585
11.9878
11.3975
10.8204
10.2611
9.71786
9.18237
8.64216
8.08522
7.50573
6.90356
6.28887
5.66642
5.05686
4.4427
3.87308
3.24738
2.75962
1.99516
1.76809
0.426709
1.25102
51.7389
49.2164
46.8812
44.7125
42.6923
40.8053
39.0382
37.3794
35.8187
34.3473
32.957
31.6408
30.3925
29.2063
28.0775
27.0012
25.9735
24.9905
24.0488
23.1452
22.2767
21.4406
20.6343
19.8556
19.1027
18.3736
17.666
16.9773
16.306
15.6516
15.0143
14.3931
13.7842
13.1822
12.5829
11.9859
11.3955
10.8182
10.2585
9.71513
9.17984
8.6402
8.0841
7.50547
6.90391
6.2894
5.66667
5.05645
4.44145
3.871
3.24472
2.75666
1.99246
1.76583
0.425923
1.25121
51.6853
49.1695
46.8401
44.6765
42.6607
40.7775
39.0138
37.3578
35.7998
34.3306
32.9423
31.6279
30.381
29.1963
28.0686
26.9934
25.9666
24.9845
24.0435
23.1405
22.2726
21.4367
20.6305
19.852
19.0992
18.3702
17.6626
16.9741
16.3029
15.6486
15.0114
14.3902
13.7815
13.1798
12.5807
11.9839
11.3934
10.8158
10.2558
9.71233
9.17722
8.63816
8.08289
7.50512
6.90417
6.28985
5.66684
5.05597
4.44015
3.86889
3.24203
2.75368
1.98975
1.76355
0.425125
1.25136
51.6339
49.1245
46.8007
44.6419
42.6303
40.7508
38.9903
37.3372
35.7816
34.3146
32.9282
31.6155
30.3701
29.1867
28.0601
26.986
25.9601
24.9787
24.0384
23.136
22.2683
21.4326
20.6266
19.8481
19.0954
18.3666
17.6591
16.9708
16.2996
15.6454
15.0083
14.3872
13.7787
13.1772
12.5785
11.9818
11.3912
10.8134
10.2531
9.70943
9.17451
8.63602
8.0816
7.50467
6.90434
6.29021
5.66693
5.05544
4.43881
3.86674
3.23932
2.75069
1.98703
1.76126
0.424316
1.25148
51.5846
49.0813
46.7629
44.6087
42.6012
40.7252
38.9678
37.3174
35.7642
34.2993
32.9147
31.6036
30.3596
29.1774
28.052
26.9788
25.9538
24.9732
24.0335
23.1313
22.2638
21.4283
20.6224
19.8441
19.0915
18.3628
17.6555
16.9672
16.2963
15.6422
15.0051
14.3841
13.7757
13.1745
12.5761
11.9795
11.3889
10.8108
10.2502
9.70644
9.17172
8.6338
8.08021
7.50414
6.90441
6.29048
5.66695
5.05484
4.43741
3.86456
3.23658
2.74768
1.9843
1.75895
0.423494
1.25157
51.5372
49.0399
46.7266
44.5769
42.5733
40.7007
38.9463
37.2985
35.7476
34.2846
32.9018
31.5922
30.3496
29.1686
28.0442
26.972
25.9478
24.9678
24.0284
23.1264
22.2591
21.4237
20.618
19.8398
19.0874
18.3588
17.6517
16.9636
16.2927
15.6387
15.0017
14.3808
13.7726
13.1717
12.5735
11.9771
11.3865
10.8082
10.2473
9.70335
9.16883
8.63148
8.07872
7.5035
6.90439
6.29066
5.66688
5.05417
4.43597
3.86235
3.23382
2.74465
1.98155
1.75662
0.422659
1.25161
51.4918
49.0002
46.6919
44.5464
42.5465
40.6772
38.9256
37.2803
35.7316
34.2705
32.8894
31.5813
30.34
29.1602
28.0368
26.9655
25.9419
24.9623
24.0231
23.1213
22.2542
21.419
20.6134
19.8354
19.0831
18.3547
17.6477
16.9597
16.289
15.6351
14.9982
14.3774
13.7694
13.1688
12.5708
11.9746
11.3839
10.8054
10.2442
9.70016
9.16584
8.62907
8.07713
7.50275
6.90426
6.29074
5.66673
5.05343
4.43447
3.86009
3.23103
2.74159
1.97878
1.75427
0.421812
1.25162
51.4483
48.9621
46.6585
44.5172
42.5208
40.6547
38.9058
37.2629
35.7162
34.257
32.8775
31.5708
30.3308
29.1521
28.0297
26.9591
25.9359
24.9565
24.0175
23.116
22.249
21.414
20.6086
19.8308
19.0786
18.3503
17.6435
16.9557
16.2852
15.6313
14.9945
14.3738
13.766
13.1657
12.568
11.9719
11.3812
10.8025
10.241
9.69686
9.16274
8.62655
8.07543
7.5019
6.90402
6.29072
5.6665
5.05263
4.43292
3.85779
3.22821
2.73851
1.976
1.7519
0.420953
1.25158
51.4065
48.9256
46.6265
44.4891
42.4962
40.6331
38.8868
37.2462
35.7016
34.2441
32.8661
31.5608
30.322
29.1443
28.0228
26.9526
25.9296
24.9505
24.0117
23.1104
22.2436
21.4088
20.6036
19.8259
19.0739
18.3458
17.6391
16.9515
16.2811
15.6274
14.9907
14.3701
13.7625
13.1624
12.565
11.9692
11.3784
10.7994