/*--------------------------------*- C++ -*----------------------------------*\
  =========                 |
  \\      /  F ield         | OpenFOAM: The Open Source CFD Toolbox
   \\    /   O peration     | Website:  https://openfoam.org
    \\  /    A nd           | Version:  7
     \\/     M anipulation  |
\*---------------------------------------------------------------------------*/
FoamFile
{
    version     2.0;
    format      ascii;
    class       surfaceScalarField;
    location    "1600";
    object      phi;
}
// * * * * * * * * * * * * * * * * * * * * * * * * * * * * * * * * * * * * * //

dimensions      [0 3 -1 0 0 0 0];

internalField   nonuniform List<scalar> 
45693
(
-0.0016446
0.0637815
-0.00164384
0.0618365
-0.00157839
0.0637811
-0.00164326
0.0598771
-0.00157765
0.0618358
-0.00151493
0.0637807
0.0580015
-0.0015771
0.0598765
-0.00151423
0.0618351
-0.00145389
0.0637803
-0.0015765
0.0580009
-0.00151369
0.059876
-0.00145322
0.0618344
-0.00139536
0.06378
-0.00157603
0.0561643
-0.00151312
0.0580003
-0.0014527
0.0598754
-0.00139471
0.0618337
-0.00133924
0.0637796
-0.0015756
0.0543754
-0.00151266
0.0561638
-0.00145215
0.0579998
-0.00139422
0.059875
-0.00133862
0.0618331
-0.00128533
0.0637793
-0.00157525
0.0526529
-0.00151225
0.054375
-0.00145171
0.0561634
-0.00139369
0.0579992
-0.00133815
0.0598745
-0.00128474
0.0618325
-0.00123358
0.063779
-0.00157496
0.0509733
-0.00151191
0.0526526
-0.00145131
0.0543746
-0.00139326
0.056163
-0.00133764
0.0579987
-0.00128428
0.059874
-0.00123302
0.061832
-0.0011839
0.0637787
-0.0015747
0.0493236
-0.00151163
0.0509731
-0.00145099
0.0526523
-0.00139288
0.0543742
-0.00133722
0.0561625
-0.00128379
0.0579982
-0.00123258
0.0598736
-0.00118335
0.0618314
-0.00113627
0.0637785
0.0477301
-0.00151139
0.0493233
-0.00145071
0.0509728
-0.00139257
0.052652
-0.00133685
0.0543739
-0.00128339
0.0561621
-0.0012321
0.0579978
-0.00118293
0.0598732
-0.00113575
0.0618309
-0.00109055
0.0637782
-0.00151115
0.0477299
-0.00145048
0.0493231
-0.0013923
0.0509725
-0.00133655
0.0526517
-0.00128303
0.0543735
-0.00123172
0.0561618
-0.00118247
0.0579973
-0.00113534
0.0598728
-0.00109005
0.0618304
-0.00104664
0.063778
-0.0015109
0.0461701
-0.00145025
0.0477296
-0.00139208
0.0493229
-0.0013363
0.0509723
-0.00128275
0.0526514
-0.00123137
0.0543731
-0.0011821
0.0561614
-0.0011349
0.0579969
-0.00108966
0.0598724
-0.00104616
0.0618299
-0.00100454
0.0637777
-0.00151061
0.0446593
-0.00145001
0.0461698
-0.00139186
0.0477294
-0.00133609
0.0493227
-0.0012825
0.050972
-0.00123109
0.0526511
-0.00118177
0.0543728
-0.00113455
0.056161
-0.00108924
0.0579965
-0.00104578
0.059872
-0.00100408
0.0618294
-0.000964092
0.0637775
-0.00151029
0.0432004
-0.00144974
0.0446591
-0.00139164
0.0461696
-0.00133588
0.0477292
-0.0012823
0.0493225
-0.00123086
0.0509718
-0.0011815
0.0526508
-0.00113422
0.0543725
-0.00108889
0.0561607
-0.00104538
0.057996
-0.00100372
0.0598716
-0.000963652
0.061829
-0.000925256
0.0637773
0.0417828
-0.00144944
0.0432
-0.00139138
0.0446588
-0.00133566
0.0461694
-0.0012821
0.047729
-0.00123066
0.0493223
-0.00118128
0.0509716
-0.00113396
0.0526506
-0.00108858
0.0543722
-0.00104505
0.0561604
-0.00100333
0.0579957
-0.000963307
0.0598713
-0.000924834
0.0618286
-0.000888027
0.0637771
-0.00144911
0.0417825
-0.00139109
0.0431998
-0.00133542
0.0446586
-0.00128189
0.0461692
-0.00123048
0.0477288
-0.00118109
0.0493221
-0.00113375
0.0509714
-0.00108833
0.0526503
-0.00104475
0.0543719
-0.00100301
0.05616
-0.000962932
0.0579953
-0.000924503
0.059871
-0.000887623
0.0618282
-0.000852305
0.0637769
-0.00144878
0.0404262
-0.00139077
0.0417822
-0.00133514
0.0431995
-0.00128166
0.0446583
-0.00123028
0.046169
-0.00118091
0.0477287
-0.00113356
0.0493219
-0.00108812
0.0509711
-0.0010445
0.0526501
-0.00100272
0.0543716
-0.000962623
0.0561597
-0.000924142
0.0579949
-0.000887305
0.0598706
-0.000851918
0.0618278
-0.00081799
0.0637767
0.0390972
-0.00139046
0.0404259
-0.00133484
0.0417819
-0.00128139
0.0431992
-0.00123006
0.0446581
-0.00118072
0.0461688
-0.00113339
0.0477285
-0.00108795
0.0493217
-0.0010443
0.0509709
-0.00100248
0.0526498
-0.000962343
0.0543713
-0.000923844
0.0561594
-0.000886958
0.0579946
-0.000851614
0.0598703
-0.00081762
0.0618274
-0.000785031
0.0637765
-0.00139017
0.0390969
-0.00133454
0.0404256
-0.00128111
0.0417816
-0.0012298
0.043199
-0.00118051
0.0446579
-0.00113322
0.0461686
-0.00108779
0.0477283
-0.00104414
0.0493216
-0.00100229
0.0509708
-0.000962117
0.0526496
-0.000923573
0.054371
-0.000886671
0.0561592
-0.000851279
0.0579942
-0.000817327
0.05987
-0.000784677
0.0618271
-0.000753479
0.0637764
-0.00138992
0.0378174
-0.00133426
0.0390966
-0.00128082
0.0404253
-0.00122953
0.0417813
-0.00118027
0.0431987
-0.00113302
0.0446577
-0.00108762
0.0461685
-0.00104398
0.0477282
-0.00100213
0.0493214
-0.000961929
0.0509706
-0.000923356
0.0526494
-0.000886409
0.0543708
-0.000851003
0.0561589
-0.000817006
0.0579939
-0.000784397
0.0598698
-0.00075314
0.0618267
-0.000723133
0.0637762
-0.0013897
0.0365719
-0.00133402
0.0378171
-0.00128055
0.0390964
-0.00122925
0.0404251
-0.00118001
0.0417811
-0.00113279
0.0431985
-0.00108742
0.0446575
-0.00104382
0.0461683
-0.00100198
0.047728
-0.000961775
0.0493212
-0.000923175
0.0509704
-0.000886199
0.0526492
-0.00085075
0.0543705
-0.000816739
0.0561586
-0.000784087
0.0579936
-0.000752871
0.0598695
-0.000722809
0.0618264
-0.000694042
0.0637761
-0.0013895
0.0353642
-0.00133381
0.0365717
-0.00128032
0.0378169
-0.001229
0.0390961
-0.00117974
0.0404248
-0.00113253
0.0417808
-0.00108721
0.0431983
-0.00104364
0.0446573
-0.00100183
0.0461681
-0.000961633
0.0477279
-0.000923026
0.0493211
-0.000886024
0.0509702
-0.000850547
0.052649
-0.000816495
0.0543703
-0.00078383
0.0561584
-0.000752573
0.0579933
-0.000722551
0.0598692
-0.000693732
0.0618261
-0.000666057
0.0637759
0.0341896
-0.00133362
0.035364
-0.00128012
0.0365715
-0.00122877
0.0378166
-0.00117949
0.0390958
-0.00113228
0.0404245
-0.00108696
0.0417806
-0.00104343
0.0431981
-0.00100165
0.0446571
-0.000961488
0.046168
-0.000922891
0.0477278
-0.000885881
0.049321
-0.000850378
0.05097
-0.000816299
0.0526488
-0.000783595
0.05437
-0.000752326
0.0561581
-0.000722264
0.057993
-0.000693485
0.059869
-0.000665761
0.0618258
-0.000639328
0.0637758
-0.00133344
0.0341894
-0.00127994
0.0353638
-0.00122858
0.0365713
-0.00117928
0.0378164
-0.00113204
0.0390956
-0.00108672
0.0404243
-0.0010432
0.0417803
-0.00100145
0.0431979
-0.000961323
0.044657
-0.000922752
0.0461679
-0.000885752
0.0477276
-0.00085024
0.0493208
-0.000816136
0.0509699
-0.000783404
0.0526486
-0.000752098
0.0543698
-0.000722026
0.0561579
-0.000693209
0.0579927
-0.000665523
0.0598688
-0.000639045
0.0618255
-0.000613503
0.0637757
-0.00133326
0.0330489
-0.00127977
0.0341893
-0.00122841
0.0353637
-0.00117909
0.0365711
-0.00113183
0.0378162
-0.00108649
0.0390954
-0.00104296
0.0404241
-0.00100123
0.0417801
-0.000961133
0.0431977
-0.000922595
0.0446568
-0.00088562
0.0461677
-0.000850116
0.0477275
-0.000816003
0.0493207
-0.000783247
0.0509697
-0.000751915
0.0526484
-0.000721806
0.0543696
-0.00069298
0.0561576
-0.000665259
0.0579925
-0.000638817
0.0598685
-0.000613232
0.0618252
-0.000588884
0.0637755
0.0319448
-0.00127959
0.0330487
-0.00122824
0.0341891
-0.00117893
0.0353635
-0.00113165
0.0365709
-0.00108629
0.037816
-0.00104274
0.0390952
-0.00100101
0.0404238
-0.000960923
0.0417799
-0.000922414
0.0431975
-0.000885471
0.0446567
-0.000849991
0.0461676
-0.000815885
0.0477274
-0.000783119
0.0493206
-0.000751762
0.0509696
-0.000721628
0.0526482
-0.000692767
0.0543694
-0.000665037
0.0561574
-0.000638562
0.0579922
-0.000613014
0.0598683
-0.000588625
0.061825
-0.000565119
0.0637754
-0.00127941
0.0319446
-0.00122808
0.0330486
-0.00117877
0.034189
-0.0011315
0.0353634
-0.00108612
0.0365707
-0.00104255
0.0378158
-0.0010008
0.0390949
-0.000960707
0.0404236
-0.000922214
0.0417797
-0.000885298
0.0431973
-0.000849849
0.0446565
-0.000815765
0.0461675
-0.000783006
0.0477273
-0.00075164
0.0493204
-0.000721481
0.0509694
-0.000692596
0.0526481
-0.000664832
0.0543692
-0.000638349
0.0561572
-0.000612769
0.057992
-0.000588416
0.0598681
-0.000564872
0.0618247
-0.000542409
0.0637753
-0.00127922
0.0308729
-0.0012279
0.0319445
-0.00117861
0.0330484
-0.00113135
0.0341888
-0.00108597
0.0353632
-0.00104239
0.0365706
-0.00100061
0.0378156
-0.000960504
0.0390947
-0.000922007
0.0404234
-0.000885107
0.0417795
-0.000849685
0.0431971
-0.000815631
0.0446564
-0.000782892
0.0461674
-0.000751531
0.0477272
-0.000721363
0.0493203
-0.000692453
0.0509693
-0.000664666
0.0526479
-0.000638151
0.054369
-0.000612564
0.056157
-0.000588181
0.0579917
-0.000564671
0.0598679
-0.000542172
0.0618245
-0.000520603
0.0637752
0.0298348
-0.00122772
0.0308727
-0.00117844
0.0319443
-0.0011312
0.0330483
-0.00108583
0.0341887
-0.00104224
0.0353631
-0.00100045
0.0365704
-0.000960325
0.0378155
-0.000921812
0.0390945
-0.000884909
0.0404232
-0.000849502
0.0417793
-0.000815474
0.043197
-0.000782764
0.0446563
-0.000751423
0.0461673
-0.000721259
0.0477271
-0.000692339
0.0493202
-0.000664529
0.0509691
-0.000637991
0.0526477
-0.000612373
0.0543688
-0.000587983
0.0561568
-0.000564445
0.0579915
-0.00054198
0.0598677
-0.000520377
0.0618243
-0.000499601
0.0637751
-0.00122755
0.0298347
-0.00117827
0.0308726
-0.00113104
0.0319441
-0.00108568
0.0330481
-0.00104211
0.0341885
-0.00100032
0.0353629
-0.000960173
0.0365703
-0.000921639
0.0378153
-0.000884721
0.0390944
-0.000849312
0.040423
-0.000815299
0.0417792
-0.000782616
0.0431968
-0.000751301
0.0446561
-0.000721155
0.0461672
-0.000692239
0.047727
-0.000664419
0.0493201
-0.000637858
0.050969
-0.000612218
0.0526476
-0.000587798
0.0543686
-0.000564254
0.0561566
-0.000541763
0.0579913
-0.000520193
0.0598675
-0.000499386
0.0618241
-0.000479504
0.063775
-0.00122738
0.0288273
-0.00117811
0.0298345
-0.00113087
0.0308724
-0.00108553
0.031944
-0.00104197
0.033048
-0.00100019
0.0341884
-0.00096004
0.0353628
-0.000921493
0.0365701
-0.000884555
0.0378151
-0.000849132
0.0390942
-0.000815118
0.0404229
-0.000782449
0.041779
-0.000751159
0.0431967
-0.00072104
0.044656
-0.000692141
0.0461671
-0.000664323
0.0477269
-0.000637751
0.04932
-0.000612089
0.0509689
-0.000587648
0.0526474
-0.000564076
0.0543684
-0.000541579
0.0561564
-0.000519985
0.0579911
-0.000499209
0.0598673
-0.000479298
0.0618238
-0.00046021
0.0637749
0.0278527
-0.00117794
0.0288272
-0.00113071
0.0298343
-0.00108537
0.0308723
-0.00104182
0.0319438
-0.00100005
0.0330478
-0.000959916
0.0341883
-0.000921366
0.0353627
-0.000884414
0.03657
-0.000848972
0.037815
-0.000814944
0.039094
-0.000782274
0.0404227
-0.000751
0.0417788
-0.000720905
0.0431966
-0.000692031
0.0446559
-0.000664229
0.046167
-0.000637659
0.0477268
-0.000611986
0.0493199
-0.000587524
0.0509688
-0.000563931
0.0526473
-0.000541408
0.0543683
-0.000519808
0.0561562
-0.000499009
0.0579909
-0.000479129
0.0598672
-0.000460013
0.0618236
-0.00044167
0.0637748
-0.00117779
0.0278525
-0.00113056
0.028827
-0.00108522
0.0298342
-0.00104167
0.0308721
-0.000999914
0.0319437
-0.000959789
0.0330477
-0.000921247
0.0341882
-0.000884292
0.0353625
-0.000848836
0.0365698
-0.00081479
0.0378148
-0.000782108
0.0390938
-0.000750833
0.0404225
-0.000720753
0.0417787
-0.000691903
0.0431964
-0.000664125
0.0446558
-0.00063757
0.0461669
-0.000611898
0.0477267
-0.000587425
0.0493198
-0.000563811
0.0509686
-0.000541267
0.0526471
-0.000519642
0.0543681
-0.000498838
0.0561561
-0.000478936
0.0579907
-0.000459851
0.059867
-0.000441482
0.0618235
-0.000423933
0.0637748
-0.00117764
0.0269042
-0.00113041
0.0278524
-0.00108507
0.0288269
-0.00104152
0.029834
-0.000999771
0.030872
-0.000959656
0.0319436
-0.000921125
0.0330476
-0.000884178
0.034188
-0.000848719
0.0353624
-0.00081466
0.0365697
-0.000781959
0.0378147
-0.000750673
0.0390937
-0.000720593
0.0404224
-0.000691758
0.0417785
-0.000664003
0.0431963
-0.000637471
0.0446557
-0.000611813
0.0461668
-0.00058734
0.0477266
-0.000563715
0.0493197
-0.000541151
0.0509685
-0.000519506
0.052647
-0.000498678
0.0543679
-0.000478772
0.0561559
-0.000459667
0.0579905
-0.000441327
0.0598669
-0.000423754
0.0618233
-0.0004068
0.0637747
0.025987
-0.00113027
0.026904
-0.00108493
0.0278522
-0.00104138
0.0288267
-0.000999629
0.0298339
-0.000959519
0.0308718
-0.000920998
0.0319434
-0.000884062
0.0330475
-0.00084861
0.0341879
-0.000814547
0.0353623
-0.000781834
0.0365696
-0.00075053
0.0378145
-0.000720439
0.0390935
-0.000691605
0.0404222
-0.000663865
0.0417784
-0.000637355
0.0431962
-0.000611719
0.0446556
-0.000587259
0.0461667
-0.000563634
0.0477265
-0.000541058
0.0493196
-0.000519393
0.0509684
-0.000498547
0.0526469
-0.000478618
0.0543678
-0.000459509
0.0561558
-0.000441149
0.0579903
-0.000423606
0.0598667
-0.000406629
0.0618231
-0.00039047
0.0637746
-0.00113013
0.0259868
-0.00108479
0.0269039
-0.00104125
0.0278521
-0.000999494
0.0288266
-0.000959384
0.0298338
-0.000920867
0.0308717
-0.000883941
0.0319433
-0.000848499
0.0330474
-0.000814443
0.0341878
-0.000781726
0.0353622
-0.000750409
0.0365695
-0.000720302
0.0378144
-0.000691457
0.0390934
-0.000663718
0.0404221
-0.000637223
0.0417783
-0.000611609
0.0431961
-0.000587169
0.0446555
-0.000563556
0.0461666
-0.00054098
0.0477264
-0.000519304
0.0493195
-0.000498438
0.0509683
-0.00047849
0.0526467
-0.000459359
0.0543676
-0.000440997
0.0561556
-0.000423435
0.0579902
-0.000406487
0.0598666
-0.000390307
0.0618229
-0.000374743
0.0637745
-0.00112998
0.0250949
-0.00108466
0.0259867
-0.00104112
0.0269038
-0.000999365
0.0278519
-0.000959254
0.0288265
-0.000920738
0.0298336
-0.000883816
0.0308716
-0.000848383
0.0319432
-0.000814337
0.0330473
-0.000781626
0.0341877
-0.000750305
0.0353621
-0.000720185
0.0365693
-0.000691325
0.0378143
-0.000663576
0.0390932
-0.000637083
0.0404219
-0.000611483
0.0417781
-0.000587065
0.043196
-0.000563471
0.0446554
-0.000540906
0.0461666
-0.000519228
0.0477264
-0.000498351
0.0493194
-0.000478385
0.0509682
-0.000459236
0.0526466
-0.000440854
0.0543675
-0.000423289
0.0561555
-0.000406323
0.05799
-0.000390171
0.0598664
-0.000374588
0.0618228
-0.00035968
0.0637745
-0.00112984
0.0242306
-0.00108452
0.0250947
-0.00104099
0.0259865
-0.00099924
0.0269036
-0.000959131
0.0278518
-0.000920614
0.0288264
-0.000883692
0.0298335
-0.000848264
0.0308715
-0.000814226
0.0319431
-0.000781525
0.0330472
-0.00075021
0.0341876
-0.000720086
0.035362
-0.000691212
0.0365692
-0.000663449
0.0378141
-0.000636946
0.0390931
-0.000611349
0.0404218
-0.000586944
0.041778
-0.000563372
0.0431959
-0.000540825
0.0446554
-0.000519158
0.0461665
-0.000498279
0.0477263
-0.000478301
0.0493193
-0.000459134
0.0509681
-0.000440735
0.0526465
-0.00042315
0.0543673
-0.000406182
0.0561553
-0.000390014
0.0579898
-0.000374458
0.0598663
-0.000359531
0.0618226
-0.000345184
0.0637744
-0.0011297
0.0233928
-0.00108439
0.0242305
-0.00104086
0.0250946
-0.000999116
0.0259864
-0.000959011
0.0269035
-0.000920496
0.0278517
-0.000883573
0.0288262
-0.000848145
0.0298334
-0.000814112
0.0308713
-0.000781419
0.031943
-0.000750113
0.0330471
-0.000719994
0.0341875
-0.000691117
0.0353619
-0.00066334
0.0365691
-0.000636824
0.037814
-0.000611217
0.039093
-0.000586816
0.0404216
-0.000563257
0.0417779
-0.000540731
0.0431958
-0.000519081
0.0446553
-0.000498212
0.0461664
-0.000478232
0.0477262
-0.000459053
0.0493193
-0.000440635
0.050968
-0.000423035
0.0526464
-0.000406049
0.0543672
-0.000389879
0.0561552
-0.000374307
0.0579897
-0.000359407
0.0598662
-0.000345042
0.0618225
-0.000331291
0.0637744
-0.00112956
0.0225789
-0.00108425
0.0233927
-0.00104073
0.0242304
-0.000998992
0.0250945
-0.000958893
0.0259863
-0.000920381
0.0269034
-0.00088346
0.0278516
-0.000848031
0.0288261
-0.000813998
0.0298333
-0.000781309
0.0308712
-0.000750012
0.0319429
-0.000719902
0.033047
-0.000691029
0.0341874
-0.000663248
0.0353618
-0.000636719
0.036569
-0.000611099
0.0378139
-0.00058669
0.0390928
-0.000563134
0.0404215
-0.000540622
0.0417778
-0.000518991
0.0431957
-0.000498139
0.0446552
-0.000478167
0.0461664
-0.000458986
0.0477261
-0.000440557
0.0493192
-0.000422939
0.0509679
-0.000405937
0.0526463
-0.000389749
0.0543671
-0.000374177
0.056155
-0.000359262
0.0579896
-0.000344923
0.0598661
-0.000331156
0.0618224
-0.000317956
0.0637743
-0.00112942
0.02179
-0.00108412
0.0225788
-0.0010406
0.0233925
-0.000998869
0.0242302
-0.000958775
0.0250944
-0.000920268
0.0259862
-0.00088335
0.0269033
-0.000847923
0.0278515
-0.000813889
0.028826
-0.0007812
0.0298332
-0.000749907
0.0308711
-0.000719805
0.0319428
-0.000690941
0.0330469
-0.000663164
0.0341874
-0.000636631
0.0353617
-0.000610999
0.0365689
-0.000586576
0.0378138
-0.000563013
0.0390927
-0.000540504
0.0404214
-0.000518887
0.0417777
-0.000498053
0.0431956
-0.000478098
0.0446551
-0.000458925
0.0461663
-0.000440493
0.0477261
-0.000422863
0.0493191
-0.000405844
0.0509678
-0.000389642
0.0526462
-0.000374052
0.054367
-0.000359137
0.0561549
-0.000344785
0.0579894
-0.000331042
0.059866
-0.000317827
0.0618222
-0.000305158
0.0637743
0.0210237
-0.00108398
0.0217899
-0.00104047
0.0225786
-0.000998747
0.0233924
-0.000958657
0.0242301
-0.000920155
0.0250943
-0.000883242
0.0259861
-0.000847818
0.0269032
-0.000813785
0.0278514
-0.000781096
0.0288259
-0.000749803
0.0298331
-0.000719705
0.030871
-0.000690848
0.0319427
-0.00066308
0.0330468
-0.00063655
0.0341873
-0.000610914
0.0353616
-0.000586479
0.0365688
-0.000562904
0.0378137
-0.000540388
0.0390926
-0.000518775
0.0404213
-0.000497954
0.0417776
-0.000478017
0.0431955
-0.000458859
0.0446551
-0.000440434
0.0461662
-0.000422801
0.047726
-0.000405771
0.049319
-0.000389552
0.0509677
-0.000373948
0.0526461
-0.000359017
0.0543668
-0.000344664
0.0561548
-0.000330909
0.0579893
-0.000317718
0.0598658
-0.000305035
0.0618221
-0.000292873
0.0637742
-0.00108385
0.0210235
-0.00104034
0.0217897
-0.000998624
0.0225785
-0.00095854
0.0233923
-0.000920043
0.02423
-0.000883134
0.0250941
-0.000847715
0.025986
-0.000813685
0.0269031
-0.000780997
0.0278513
-0.000749703
0.0288258
-0.000719605
0.029833
-0.000690752
0.0308709
-0.000662991
0.0319426
-0.000636469
0.0330467
-0.000610836
0.0341872
-0.000586397
0.0353616
-0.00056281
0.0365687
-0.000540282
0.0378136
-0.000518663
0.0390925
-0.000497847
0.0404212
-0.000477923
0.0417775
-0.000458782
0.0431955
-0.000440371
0.044655
-0.000422745
0.0461662
-0.000405711
0.047726
-0.000389481
0.049319
-0.000373861
0.0509676
-0.000358916
0.052646
-0.000344548
0.0543667
-0.000330793
0.0561547
-0.000317591
0.0579892
-0.000304931
0.0598657
-0.000292756
0.061822
-0.000281085
0.0637742
-0.00108371
0.0202797
-0.00104021
0.0210234
-0.000998502
0.0217896
-0.000958424
0.0225784
-0.000919931
0.0233922
-0.000883027
0.0242299
-0.000847612
0.025094
-0.000813586
0.0259859
-0.000780901
0.026903
-0.000749607
0.0278512
-0.000719509
0.0288257
-0.000690656
0.0298329
-0.0006629
0.0308708
-0.000636385
0.0319425
-0.000610759
0.0330466
-0.000586323
0.0341871
-0.000562731
0.0353615
-0.000540192
0.0365686
-0.000518562
0.0378135
-0.00049774
0.0390924
-0.00047782
0.0404211
-0.000458692
0.0417774
-0.000440298
0.0431954
-0.000422685
0.044655
-0.000405657
0.0461661
-0.000389423
0.0477259
-0.000373792
0.0493189
-0.000358832
0.0509675
-0.000344451
0.0526459
-0.000330681
0.0543666
-0.000317479
0.0561546
-0.000304809
0.057989
-0.000292656
0.0598656
-0.000280973
0.0618219
-0.000269774
0.0637741
0.0195595
-0.00104008
0.0202796
-0.000998377
0.0210233
-0.000958306
0.0217895
-0.00091982
0.0225783
-0.00088292
0.0233921
-0.000847509
0.0242298
-0.000813488
0.0250939
-0.000780806
0.0259858
-0.000749516
0.0269029
-0.000719418
0.0278511
-0.000690565
0.0288256
-0.000662808
0.0298328
-0.000636297
0.0308707
-0.000610679
0.0319424
-0.000586249
0.0330466
-0.00056266
0.0341871
-0.000540116
0.0353614
-0.000518475
0.0365686
-0.000497642
0.0378134
-0.000477717
0.0390923
-0.000458594
0.040421
-0.000440213
0.0417773
-0.000422616
0.0431953
-0.000405601
0.0446549
-0.000389371
0.0461661
-0.000373736
0.0477258
-0.000358765
0.0493188
-0.000344369
0.0509675
-0.000330587
0.0526458
-0.000317371
0.0543665
-0.000304702
0.0561545
-0.000292539
0.0579889
-0.000280879
0.0598655
-0.000269668
0.0618218
-0.000258911
0.0637741
-0.00103994
0.0195594
-0.00099825
0.0202795
-0.000958188
0.0210232
-0.000919708
0.0217894
-0.000882814
0.0225782
-0.000847407
0.023392
-0.00081339
0.0242297
-0.000780712
0.0250939
-0.000749425
0.0259857
-0.00071933
0.0269028
-0.000690477
0.027851
-0.00066272
0.0288255
-0.000636209
0.0298327
-0.000610595
0.0308707
-0.000586172
0.0319424
-0.00056259
0.0330465
-0.000540048
0.034187
-0.000518402
0.0353613
-0.000497558
0.0365685
-0.000477623
0.0378133
-0.000458495
0.0390922
-0.000440119
0.0404209
-0.000422535
0.0417772
-0.000405535
0.0431953
-0.000389317
0.0446548
-0.000373687
0.046166
-0.000358711
0.0477258
-0.000344305
0.0493188
-0.000330508
0.0509674
-0.00031728
0.0526457
-0.000304598
0.0543664
-0.000292436
0.0561544
-0.000280766
0.0579888
-0.000269577
0.0598655
-0.00025881
0.0618217
-0.00024849
0.063774
-0.0010398
0.0188592
-0.000998121
0.0195593
-0.000958067
0.0202794
-0.000919595
0.0210231
-0.000882707
0.0217893
-0.000847306
0.0225781
-0.000813292
0.0233919
-0.000780618
0.0242296
-0.000749335
0.0250938
-0.000719243
0.0259856
-0.000690393
0.0269027
-0.000662636
0.0278509
-0.000636125
0.0288254
-0.000610511
0.0298326
-0.000586092
0.0308706
-0.000562516
0.0319423
-0.000539981
0.0330464
-0.000518336
0.0341869
-0.000497488
0.0353613
-0.000477542
0.0365684
-0.000458405
0.0378132
-0.000440024
0.0390921
-0.000422445
0.0404208
-0.000405457
0.0417772
-0.000389255
0.0431952
-0.000373636
0.0446548
-0.000358664
0.046166
-0.000344252
0.0477257
-0.000330446
0.0493187
-0.000317204
0.0509673
-0.00030451
0.0526456
-0.000292336
0.0543663
-0.000280667
0.0561543
-0.00026947
0.0579887
-0.000258723
0.0598654
-0.000248393
0.0618216
-0.000238485
0.063774
-0.00103966
0.018179
-0.000997987
0.0188591
-0.000957943
0.0195591
-0.00091948
0.0202793
-0.0008826
0.021023
-0.000847204
0.0217892
-0.000813195
0.022578
-0.000780525
0.0233918
-0.000749246
0.0242295
-0.000719157
0.0250937
-0.00069031
0.0259855
-0.000662556
0.0269027
-0.000636045
0.0278508
-0.00061043
0.0288254
-0.000586012
0.0298325
-0.000562439
0.0308705
-0.00053991
0.0319422
-0.000518272
0.0330464
-0.000497425
0.0341869
-0.000477474
0.0353612
-0.000458327
0.0365683
-0.000439937
0.0378131
-0.000422354
0.039092
-0.000405372
0.0404207
-0.000389181
0.0417771
-0.000373576
0.0431951
-0.000358615
0.0446547
-0.000344207
0.0461659
-0.000330395
0.0477257
-0.000317143
0.0493186
-0.000304436
0.0509672
-0.000292251
0.0526455
-0.00028057
0.0543662
-0.000269374
0.0561542
-0.00025862
0.0579886
-0.000248311
0.0598653
-0.000238393
0.0618215
-0.000228888
0.063774
-0.00103951
0.0175198
-0.000997849
0.0181789
-0.000957816
0.018859
-0.000919362
0.019559
-0.00088249
0.0202791
-0.000847101
0.0210228
-0.000813098
0.0217891
-0.000780433
0.0225779
-0.000749157
0.0233917
-0.000719072
0.0242294
-0.000690228
0.0250936
-0.000662477
0.0259855
-0.000635968
0.0269026
-0.000610353
0.0278508
-0.000585934
0.0288253
-0.000562362
0.0298324
-0.000539837
0.0308704
-0.000518205
0.0319422
-0.000497363
0.0330463
-0.000477414
0.0341868
-0.000458261
0.0353611
-0.000439862
0.0365682
-0.00042227
0.037813
-0.000405285
0.0390919
-0.0003891
0.0404206
-0.000373506
0.041777
-0.000358559
0.0431951
-0.000344161
0.0446547
-0.000330352
0.0461659
-0.000317094
0.0477256
-0.000304377
0.0493186
-0.000292179
0.0509672
-0.000280488
0.0526454
-0.000269281
0.0543661
-0.000258528
0.0561541
-0.000248211
0.0579885
-0.000238315
0.0598652
-0.000228801
0.0618214
-0.000219673
0.0637739
-0.00103935
0.0168791
-0.000997706
0.0175196
-0.000957685
0.0181787
-0.000919241
0.0188588
-0.000882378
0.0195589
-0.000846996
0.020279
-0.000813
0.0210227
-0.00078034
0.021789
-0.000749068
0.0225778
-0.000718987
0.0233916
-0.000690146
0.0242294
-0.000662398
0.0250935
-0.000635892
0.0259854
-0.000610279
0.0269025
-0.00058586
0.0278507
-0.000562288
0.0288252
-0.000539763
0.0298324
-0.000518134
0.0308704
-0.000497299
0.0319421
-0.000477355
0.0330462
-0.000458204
0.0341867
-0.000439799
0.0353611
-0.000422198
0.0365682
-0.000405204
0.0378129
-0.000389016
0.0390918
-0.000373428
0.0404206
-0.000358492
0.0417769
-0.000344107
0.043195
-0.000330307
0.0446547
-0.000317052
0.0461658
-0.00030433
0.0477256
-0.000292122
0.0493185
-0.000280419
0.0509671
-0.000269202
0.0526453
-0.000258439
0.054366
-0.000248124
0.056154
-0.00023822
0.0579884
-0.000228725
0.0598651
-0.000219589
0.0618213
-0.000210834
0.0637739
-0.00103919
0.0162569
-0.000997557
0.0168789
-0.000957549
0.0175195
-0.000919117
0.0181786
-0.000882262
0.0188587
-0.00084689
0.0195588
-0.0008129
0.0202789
-0.000780246
0.0210227
-0.00074898
0.0217889
-0.000718902
0.0225777
-0.000690065
0.0233915
-0.00066232
0.0242293
-0.000635817
0.0250934
-0.000610206
0.0259853
-0.00058579
0.0269024
-0.000562217
0.0278506
-0.000539692
0.0288251
-0.000518064
0.0298323
-0.000497232
0.0308703
-0.000477294
0.031942
-0.000458147
0.0330462
-0.000439743
0.0341867
-0.000422137
0.035361
-0.000405134
0.0365681
-0.000388938
0.0378128
-0.000373348
0.0390917
-0.000358418
0.0404205
-0.000344044
0.0417769
-0.000330257
0.043195
-0.00031701
0.0446546
-0.00030429
0.0461658
-0.000292076
0.0477255
-0.000280363
0.0493185
-0.000269135
0.050967
-0.000258362
0.0526453
-0.000248037
0.0543659
-0.000238135
0.0561539
-0.000228634
0.0579883
-0.000219518
0.0598651
-0.000210755
0.0618212
-0.000202342
0.0637739
-0.00103901
0.0156519
-0.000997401
0.0162567
-0.000957407
0.0168788
-0.000918987
0.0175194
-0.000882144
0.0181785
-0.00084678
0.0188586
-0.000812798
0.0195587
-0.000780151
0.0202788
-0.00074889
0.0210226
-0.000718818
0.0217888
-0.000689984
0.0225776
-0.000662242
0.0233914
-0.000635742
0.0242292
-0.000610134
0.0250934
-0.00058572
0.0259852
-0.00056215
0.0269024
-0.000539624
0.0278506
-0.000517995
0.0288251
-0.000497164
0.0298322
-0.000477229
0.0308702
-0.000458088
0.031942
-0.000439689
0.0330461
-0.000422084
0.0341866
-0.000405076
0.0353609
-0.000388871
0.036568
-0.000373273
0.0378128
-0.000358341
0.0390917
-0.000343973
0.0404204
-0.000330197
0.0417768
-0.000316962
0.0431949
-0.000304249
0.0446546
-0.000292038
0.0461658
-0.000280319
0.0477255
-0.000269081
0.0493184
-0.000258297
0.050967
-0.000247963
0.0526452
-0.000238052
0.0543658
-0.000228553
0.0561538
-0.00021943
0.0579882
-0.000210686
0.059865
-0.000202267
0.0618212
-0.000194202
0.0637738
-0.00103883
0.0150652
-0.000997236
0.0156518
-0.000957259
0.0162566
-0.000918852
0.0168787
-0.00088202
0.0175192
-0.000846667
0.0181784
-0.000812694
0.0188585
-0.000780054
0.0195586
-0.0007488
0.0202788
-0.000718732
0.0210225
-0.000689903
0.0217887
-0.000662165
0.0225776
-0.000635667
0.0233914
-0.000610063
0.0242291
-0.000585651
0.0250933
-0.000562083
0.0259852
-0.000539559
0.0269023
-0.00051793
0.0278505
-0.000497099
0.028825
-0.000477165
0.0298322
-0.000458027
0.0308702
-0.000439633
0.0319419
-0.000422032
0.0330461
-0.000405024
0.0341866
-0.000388815
0.0353609
-0.000373209
0.036568
-0.000358269
0.0378127
-0.000343899
0.0390916
-0.000330129
0.0404203
-0.000316905
0.0417768
-0.000304204
0.0431949
-0.000292
0.0446545
-0.000280282
0.0461657
-0.000269038
0.0477255
-0.000258245
0.0493184
-0.0002479
0.0509669
-0.000237981
0.0526451
-0.000228473
0.0543658
-0.000219353
0.0561537
-0.000210603
0.0579881
-0.000202201
0.0598649
-0.00019413
0.0618211
-0.000186383
0.0637738
-0.00103864
0.0144954
-0.000997062
0.015065
-0.000957102
0.0156516
-0.000918711
0.0162565
-0.000881892
0.0168785
-0.000846549
0.0175191
-0.000812586
0.0181783
-0.000779954
0.0188584
-0.000748707
0.0195585
-0.000718646
0.0202787
-0.000689822
0.0210224
-0.000662087
0.0217887
-0.000635593
0.0225775
-0.000609992
0.0233913
-0.000585583
0.0242291
-0.000562017
0.0250932
-0.000539496
0.0259851
-0.000517868
0.0269022
-0.000497036
0.0278504
-0.000477102
0.0288249
-0.000457965
0.0298321
-0.000439575
0.0308701
-0.000421978
0.0319419
-0.000404975
0.033046
-0.000388765
0.0341865
-0.000373154
0.0353608
-0.000358207
0.0365679
-0.00034383
0.0378126
-0.000330058
0.0390915
-0.000316841
0.0404203
-0.00030415
0.0417767
-0.000291956
0.0431948
-0.000280246
0.0446545
-0.000269003
0.0461657
-0.000258203
0.0477254
-0.00024785
0.0493183
-0.000237919
0.0509668
-0.000228404
0.0526451
-0.000219276
0.0543657
-0.000210528
0.0561537
-0.000202121
0.0579881
-0.000194068
0.0598649
-0.000186315
0.061821
-0.000178876
0.0637738
-0.00103843
0.0139402
-0.000996877
0.0144952
-0.000956937
0.0150648
-0.000918562
0.0156515
-0.000881758
0.0162563
-0.000846427
0.0168784
-0.000812474
0.017519
-0.000779852
0.0181782
-0.000748612
0.0188583
-0.000718557
0.0195584
-0.000689739
0.0202786
-0.00066201
0.0210223
-0.00063552
0.0217886
-0.000609921
0.0225774
-0.000585515
0.0233912
-0.000561952
0.024229
-0.000539432
0.0250932
-0.000517807
0.025985
-0.000496977
0.0269022
-0.000477042
0.0278504
-0.000457905
0.0288249
-0.000439515
0.029832
-0.000421922
0.0308701
-0.000404924
0.0319418
-0.000388718
0.033046
-0.000373107
0.0341865
-0.000358154
0.0353608
-0.00034377
0.0365678
-0.000329992
0.0378126
-0.000316773
0.0390915
-0.000304088
0.0404202
-0.000291905
0.0417767
-0.000280205
0.0431948
-0.000268968
0.0446545
-0.000258169
0.0461657
-0.00024781
0.0477254
-0.000237871
0.0493183
-0.000228345
0.0509668
-0.000219209
0.052645
-0.000210454
0.0543656
-0.00020205
0.0561536
-0.000193991
0.057988
-0.000186255
0.0598648
-0.000178811
0.061821
-0.00017168
0.0637738
-0.0010382
0.0134006
-0.000996679
0.01394
-0.000956761
0.014495
-0.000918405
0.0150647
-0.000881616
0.0156513
-0.000846299
0.0162562
-0.000812358
0.0168783
-0.000779745
0.0175189
-0.000748514
0.0181781
-0.000718466
0.0188582
-0.000689655
0.0195583
-0.000661931
0.0202785
-0.000635445
0.0210222
-0.000609851
0.0217885
-0.000585447
0.0225774
-0.000561886
0.0233912
-0.00053937
0.0242289
-0.000517747
0.0250931
-0.000496919
0.025985
-0.000476985
0.0269021
-0.000457847
0.0278503
-0.000439457
0.0288248
-0.000421865
0.029832
-0.00040487
0.03087
-0.000388669
0.0319418
-0.000373061
0.0330459
-0.000358108
0.0341864
-0.000343719
0.0353607
-0.000329934
0.0365678
-0.000316709
0.0378125
-0.000304023
0.0390914
-0.000291846
0.0404202
-0.000280156
0.0417766
-0.000268929
0.0431948
-0.000258136
0.0446544
-0.000247777
0.0461656
-0.000237832