/*--------------------------------*- C++ -*----------------------------------*\
  =========                 |
  \\      /  F ield         | OpenFOAM: The Open Source CFD Toolbox
   \\    /   O peration     | Website:  https://openfoam.org
    \\  /    A nd           | Version:  7
     \\/     M anipulation  |
\*---------------------------------------------------------------------------*/
FoamFile
{
    version     2.0;
    format      ascii;
    class       volVectorField;
    location    "1600";
    object      U;
}
// * * * * * * * * * * * * * * * * * * * * * * * * * * * * * * * * * * * * * //

dimensions      [0 1 -1 0 0 0 0];

internalField   nonuniform List<vector> 
23023
(
(50.2628 12.368 0)
(50.2245 12.3748 0)
(50.2629 12.3679 0)
(50.2143 12.3662 0)
(50.2247 12.3746 0)
(50.263 12.3678 0)
(50.1902 12.3618 0)
(50.2144 12.3661 0)
(50.2248 12.3745 0)
(50.263 12.3677 0)
(50.1903 12.3617 0)
(50.2145 12.366 0)
(50.225 12.3744 0)
(50.263 12.3677 0)
(50.1761 12.3547 0)
(50.1904 12.3616 0)
(50.2146 12.3659 0)
(50.2252 12.3742 0)
(50.2631 12.3676 0)
(50.1601 12.3469 0)
(50.1761 12.3546 0)
(50.1904 12.3615 0)
(50.2148 12.3658 0)
(50.2253 12.3741 0)
(50.2631 12.3675 0)
(50.1486 12.3367 0)
(50.16 12.3468 0)
(50.1761 12.3545 0)
(50.1905 12.3614 0)
(50.2149 12.3657 0)
(50.2255 12.374 0)
(50.2632 12.3675 0)
(50.1381 12.3243 0)
(50.1484 12.3366 0)
(50.1599 12.3467 0)
(50.1761 12.3544 0)
(50.1906 12.3612 0)
(50.215 12.3656 0)
(50.2257 12.3739 0)
(50.2632 12.3674 0)
(50.1298 12.3094 0)
(50.1379 12.3243 0)
(50.1483 12.3366 0)
(50.1599 12.3466 0)
(50.1761 12.3543 0)
(50.1907 12.3611 0)
(50.2152 12.3655 0)
(50.2258 12.3737 0)
(50.2633 12.3674 0)
(50.1219 12.2921 0)
(50.1296 12.3093 0)
(50.1378 12.3242 0)
(50.1481 12.3365 0)
(50.1598 12.3465 0)
(50.1762 12.3542 0)
(50.1908 12.361 0)
(50.2153 12.3654 0)
(50.226 12.3736 0)
(50.2633 12.3673 0)
(50.1217 12.2921 0)
(50.1294 12.3093 0)
(50.1376 12.3242 0)
(50.148 12.3364 0)
(50.1598 12.3464 0)
(50.1762 12.3542 0)
(50.1909 12.3609 0)
(50.2155 12.3653 0)
(50.2262 12.3735 0)
(50.2634 12.3673 0)
(50.1139 12.2728 0)
(50.1216 12.292 0)
(50.1292 12.3092 0)
(50.1374 12.3241 0)
(50.1479 12.3364 0)
(50.1597 12.3464 0)
(50.1763 12.3541 0)
(50.1911 12.3608 0)
(50.2157 12.3652 0)
(50.2264 12.3734 0)
(50.2634 12.3672 0)
(50.105 12.2523 0)
(50.1138 12.2727 0)
(50.1214 12.2919 0)
(50.129 12.3092 0)
(50.1373 12.324 0)
(50.1478 12.3363 0)
(50.1597 12.3463 0)
(50.1763 12.354 0)
(50.1912 12.3608 0)
(50.2158 12.3652 0)
(50.2266 12.3733 0)
(50.2635 12.3672 0)
(50.0949 12.2312 0)
(50.105 12.2522 0)
(50.1137 12.2727 0)
(50.1213 12.2919 0)
(50.1289 12.3091 0)
(50.1371 12.324 0)
(50.1477 12.3362 0)
(50.1597 12.3462 0)
(50.1764 12.3539 0)
(50.1913 12.3607 0)
(50.216 12.3651 0)
(50.2268 12.3732 0)
(50.2635 12.3671 0)
(50.0838 12.2101 0)
(50.095 12.2311 0)
(50.105 12.2521 0)
(50.1136 12.2726 0)
(50.1212 12.2918 0)
(50.1287 12.3091 0)
(50.1369 12.3239 0)
(50.1476 12.3362 0)
(50.1597 12.3461 0)
(50.1765 12.3538 0)
(50.1915 12.3606 0)
(50.2162 12.365 0)
(50.2269 12.3732 0)
(50.2636 12.3671 0)
(50.0839 12.21 0)
(50.0951 12.231 0)
(50.1051 12.252 0)
(50.1136 12.2725 0)
(50.121 12.2918 0)
(50.1285 12.309 0)
(50.1368 12.3239 0)
(50.1475 12.3361 0)
(50.1597 12.3461 0)
(50.1765 12.3538 0)
(50.1916 12.3605 0)
(50.2164 12.3649 0)
(50.2271 12.3731 0)
(50.2636 12.367 0)
(50.0724 12.1891 0)
(50.084 12.2099 0)
(50.0952 12.2309 0)
(50.1051 12.252 0)
(50.1135 12.2725 0)
(50.1209 12.2917 0)
(50.1283 12.309 0)
(50.1366 12.3238 0)
(50.1474 12.3361 0)
(50.1597 12.346 0)
(50.1766 12.3537 0)
(50.1918 12.3604 0)
(50.2166 12.3649 0)
(50.2273 12.373 0)
(50.2637 12.367 0)
(50.0614 12.1681 0)
(50.0725 12.189 0)
(50.0842 12.2098 0)
(50.0953 12.2308 0)
(50.1051 12.2519 0)
(50.1134 12.2724 0)
(50.1207 12.2917 0)
(50.1282 12.3089 0)
(50.1365 12.3238 0)
(50.1473 12.336 0)
(50.1597 12.3459 0)
(50.1767 12.3536 0)
(50.192 12.3603 0)
(50.2168 12.3648 0)
(50.2275 12.3729 0)
(50.2637 12.367 0)
(50.0615 12.168 0)
(50.0727 12.1889 0)
(50.0843 12.2097 0)
(50.0953 12.2308 0)
(50.105 12.2518 0)
(50.1133 12.2724 0)
(50.1205 12.2916 0)
(50.128 12.3089 0)
(50.1363 12.3237 0)
(50.1472 12.3359 0)
(50.1597 12.3459 0)
(50.1768 12.3536 0)
(50.1921 12.3603 0)
(50.217 12.3648 0)
(50.2277 12.3728 0)
(50.2637 12.3669 0)
(50.0517 12.1463 0)
(50.0616 12.1679 0)
(50.0728 12.1888 0)
(50.0844 12.2097 0)
(50.0954 12.2307 0)
(50.105 12.2518 0)
(50.1132 12.2723 0)
(50.1204 12.2916 0)
(50.1278 12.3089 0)
(50.1362 12.3237 0)
(50.1471 12.3359 0)
(50.1597 12.3458 0)
(50.177 12.3535 0)
(50.1923 12.3602 0)
(50.2172 12.3647 0)
(50.2279 12.3728 0)
(50.2638 12.3669 0)
(50.0432 12.1232 0)
(50.0518 12.1462 0)
(50.0618 12.1678 0)
(50.073 12.1887 0)
(50.0846 12.2096 0)
(50.0955 12.2306 0)
(50.105 12.2517 0)
(50.1131 12.2723 0)
(50.1202 12.2916 0)
(50.1276 12.3088 0)
(50.136 12.3236 0)
(50.1471 12.3358 0)
(50.1597 12.3458 0)
(50.1771 12.3535 0)
(50.1925 12.3601 0)
(50.2174 12.3646 0)
(50.2281 12.3727 0)
(50.2638 12.3669 0)
(50.036 12.0982 0)
(50.0433 12.1231 0)
(50.0519 12.1461 0)
(50.0619 12.1678 0)
(50.0731 12.1887 0)
(50.0847 12.2095 0)
(50.0955 12.2306 0)
(50.105 12.2517 0)
(50.113 12.2723 0)
(50.12 12.2915 0)
(50.1274 12.3088 0)
(50.1359 12.3236 0)
(50.147 12.3358 0)
(50.1598 12.3457 0)
(50.1772 12.3534 0)
(50.1927 12.3601 0)
(50.2176 12.3646 0)
(50.2283 12.3727 0)
(50.2639 12.3669 0)
(50.0292 12.0714 0)
(50.0361 12.0982 0)
(50.0434 12.123 0)
(50.052 12.1461 0)
(50.062 12.1677 0)
(50.0733 12.1886 0)
(50.0848 12.2094 0)
(50.0956 12.2305 0)
(50.1049 12.2516 0)
(50.1128 12.2722 0)
(50.1199 12.2915 0)
(50.1272 12.3087 0)
(50.1357 12.3236 0)
(50.147 12.3358 0)
(50.1598 12.3457 0)
(50.1773 12.3533 0)
(50.1929 12.36 0)
(50.2179 12.3645 0)
(50.2285 12.3726 0)
(50.2639 12.3668 0)
(50.0294 12.0713 0)
(50.0362 12.0981 0)
(50.0435 12.123 0)
(50.0521 12.146 0)
(50.0622 12.1676 0)
(50.0734 12.1885 0)
(50.0849 12.2093 0)
(50.0956 12.2304 0)
(50.1049 12.2516 0)
(50.1127 12.2722 0)
(50.1197 12.2915 0)
(50.1271 12.3087 0)
(50.1356 12.3235 0)
(50.1469 12.3357 0)
(50.1598 12.3456 0)
(50.1775 12.3533 0)
(50.1931 12.36 0)
(50.2181 12.3645 0)
(50.2287 12.3725 0)
(50.2639 12.3668 0)
(50.0227 12.0428 0)
(50.0295 12.0712 0)
(50.0362 12.098 0)
(50.0436 12.1229 0)
(50.0522 12.1459 0)
(50.0623 12.1675 0)
(50.0735 12.1884 0)
(50.085 12.2093 0)
(50.0957 12.2304 0)
(50.1048 12.2515 0)
(50.1126 12.2721 0)
(50.1195 12.2914 0)
(50.1269 12.3087 0)
(50.1355 12.3235 0)
(50.1469 12.3357 0)
(50.1599 12.3456 0)
(50.1776 12.3532 0)
(50.1933 12.3599 0)
(50.2183 12.3644 0)
(50.2289 12.3725 0)
(50.2639 12.3668 0)
(50.0156 12.013 0)
(50.0228 12.0427 0)
(50.0296 12.0712 0)
(50.0363 12.098 0)
(50.0437 12.1229 0)
(50.0523 12.1459 0)
(50.0624 12.1675 0)
(50.0737 12.1884 0)
(50.0851 12.2092 0)
(50.0957 12.2303 0)
(50.1048 12.2515 0)
(50.1124 12.2721 0)
(50.1193 12.2914 0)
(50.1267 12.3086 0)
(50.1353 12.3235 0)
(50.1468 12.3356 0)
(50.16 12.3455 0)
(50.1778 12.3532 0)
(50.1936 12.3598 0)
(50.2186 12.3644 0)
(50.2291 12.3724 0)
(50.2639 12.3668 0)
(50.0158 12.0129 0)
(50.023 12.0427 0)
(50.0297 12.0711 0)
(50.0364 12.0979 0)
(50.0437 12.1228 0)
(50.0524 12.1458 0)
(50.0625 12.1674 0)
(50.0738 12.1883 0)
(50.0852 12.2092 0)
(50.0957 12.2303 0)
(50.1047 12.2515 0)
(50.1123 12.2721 0)
(50.1191 12.2914 0)
(50.1265 12.3086 0)
(50.1352 12.3234 0)
(50.1468 12.3356 0)
(50.1601 12.3455 0)
(50.178 12.3531 0)
(50.1938 12.3598 0)
(50.2188 12.3643 0)
(50.2293 12.3724 0)
(50.264 12.3667 0)
(50.0085 11.9821 0)
(50.016 12.0128 0)
(50.0231 12.0426 0)
(50.0298 12.0711 0)
(50.0365 12.0979 0)
(50.0438 12.1227 0)
(50.0525 12.1457 0)
(50.0627 12.1673 0)
(50.0739 12.1882 0)
(50.0853 12.2091 0)
(50.0958 12.2302 0)
(50.1047 12.2514 0)
(50.1122 12.2721 0)
(50.1189 12.2913 0)
(50.1263 12.3086 0)
(50.1351 12.3234 0)
(50.1468 12.3355 0)
(50.1601 12.3454 0)
(50.1781 12.3531 0)
(50.194 12.3597 0)
(50.219 12.3643 0)
(50.2295 12.3723 0)
(50.264 12.3667 0)
(50.0012 11.9502 0)
(50.0087 11.982 0)
(50.0162 12.0128 0)
(50.0232 12.0425 0)
(50.0299 12.071 0)
(50.0366 12.0978 0)
(50.0439 12.1227 0)
(50.0526 12.1457 0)
(50.0628 12.1673 0)
(50.0741 12.1882 0)
(50.0854 12.209 0)
(50.0958 12.2302 0)
(50.1046 12.2514 0)
(50.112 12.272 0)
(50.1187 12.2913 0)
(50.1262 12.3086 0)
(50.135 12.3233 0)
(50.1468 12.3355 0)
(50.1602 12.3454 0)
(50.1783 12.353 0)
(50.1942 12.3597 0)
(50.2193 12.3643 0)
(50.2297 12.3723 0)
(50.264 12.3667 0)
(50.0014 11.9502 0)
(50.0089 11.9819 0)
(50.0163 12.0127 0)
(50.0234 12.0425 0)
(50.03 12.071 0)
(50.0366 12.0978 0)
(50.044 12.1226 0)
(50.0527 12.1456 0)
(50.0629 12.1672 0)
(50.0742 12.1881 0)
(50.0855 12.209 0)
(50.0958 12.2301 0)
(50.1045 12.2514 0)
(50.1118 12.272 0)
(50.1185 12.2913 0)
(50.126 12.3085 0)
(50.1349 12.3233 0)
(50.1468 12.3355 0)
(50.1603 12.3453 0)
(50.1785 12.353 0)
(50.1945 12.3596 0)
(50.2195 12.3642 0)
(50.2299 12.3722 0)
(50.264 12.3667 0)
(49.9944 11.9171 0)
(50.0017 11.9501 0)
(50.0091 11.9819 0)
(50.0165 12.0127 0)
(50.0235 12.0424 0)
(50.0301 12.0709 0)
(50.0367 12.0977 0)
(50.044 12.1226 0)
(50.0528 12.1456 0)
(50.063 12.1671 0)
(50.0743 12.1881 0)
(50.0856 12.2089 0)
(50.0958 12.2301 0)
(50.1044 12.2513 0)
(50.1117 12.272 0)
(50.1184 12.2913 0)
(50.1258 12.3085 0)
(50.1348 12.3233 0)
(50.1468 12.3354 0)
(50.1604 12.3453 0)
(50.1787 12.353 0)
(50.1947 12.3596 0)
(50.2197 12.3642 0)
(50.2301 12.3722 0)
(50.264 12.3667 0)
(49.9877 11.8826 0)
(49.9947 11.917 0)
(50.0019 11.95 0)
(50.0093 11.9818 0)
(50.0167 12.0126 0)
(50.0236 12.0424 0)
(50.0302 12.0709 0)
(50.0367 12.0977 0)
(50.0441 12.1225 0)
(50.0529 12.1455 0)
(50.0632 12.1671 0)
(50.0744 12.188 0)
(50.0857 12.2089 0)
(50.0958 12.2301 0)
(50.1043 12.2513 0)
(50.1115 12.2719 0)
(50.1182 12.2912 0)
(50.1256 12.3085 0)
(50.1347 12.3232 0)
(50.1468 12.3354 0)
(50.1605 12.3452 0)
(50.1789 12.3529 0)
(50.195 12.3595 0)
(50.22 12.3641 0)
(50.2303 12.3721 0)
(50.264 12.3666 0)
(49.988 11.8825 0)
(49.9949 11.917 0)
(50.0021 11.95 0)
(50.0095 11.9818 0)
(50.0168 12.0125 0)
(50.0237 12.0423 0)
(50.0302 12.0708 0)
(50.0368 12.0976 0)
(50.0442 12.1225 0)
(50.053 12.1455 0)
(50.0633 12.167 0)
(50.0746 12.1879 0)
(50.0857 12.2089 0)
(50.0958 12.23 0)
(50.1042 12.2513 0)
(50.1113 12.2719 0)
(50.118 12.2912 0)
(50.1255 12.3084 0)
(50.1346 12.3232 0)
(50.1468 12.3354 0)
(50.1607 12.3452 0)
(50.1791 12.3529 0)
(50.1952 12.3595 0)
(50.2202 12.3641 0)
(50.2305 12.3721 0)
(50.264 12.3666 0)
(49.9816 11.8464 0)
(49.9882 11.8824 0)
(49.9951 11.9169 0)
(50.0023 11.9499 0)
(50.0097 11.9817 0)
(50.0169 12.0125 0)
(50.0238 12.0423 0)
(50.0303 12.0708 0)
(50.0369 12.0976 0)
(50.0442 12.1225 0)
(50.0531 12.1454 0)
(50.0634 12.167 0)
(50.0747 12.1879 0)
(50.0858 12.2088 0)
(50.0958 12.23 0)
(50.1041 12.2512 0)
(50.1112 12.2719 0)
(50.1178 12.2912 0)
(50.1253 12.3084 0)
(50.1345 12.3232 0)
(50.1468 12.3353 0)
(50.1608 12.3452 0)
(50.1793 12.3528 0)
(50.1955 12.3595 0)
(50.2205 12.3641 0)
(50.2306 12.3721 0)
(50.264 12.3666 0)
(49.9752 11.8085 0)
(49.9818 11.8463 0)
(49.9885 11.8824 0)
(49.9953 11.9168 0)
(50.0025 11.9498 0)
(50.0098 11.9816 0)
(50.0171 12.0124 0)
(50.0239 12.0422 0)
(50.0303 12.0708 0)
(50.0369 12.0976 0)
(50.0443 12.1224 0)
(50.0532 12.1454 0)
(50.0635 12.1669 0)
(50.0748 12.1879 0)
(50.0859 12.2088 0)
(50.0958 12.23 0)
(50.104 12.2512 0)
(50.111 12.2719 0)
(50.1175 12.2912 0)
(50.1251 12.3084 0)
(50.1344 12.3232 0)
(50.1468 12.3353 0)
(50.1609 12.3451 0)
(50.1796 12.3528 0)
(50.1957 12.3594 0)
(50.2207 12.364 0)
(50.2308 12.372 0)
(50.2639 12.3666 0)
(49.9756 11.8085 0)
(49.9821 11.8462 0)
(49.9887 11.8823 0)
(49.9956 11.9168 0)
(50.0027 11.9498 0)
(50.01 11.9816 0)
(50.0172 12.0124 0)
(50.024 12.0422 0)
(50.0304 12.0707 0)
(50.0369 12.0975 0)
(50.0444 12.1224 0)
(50.0533 12.1453 0)
(50.0637 12.1669 0)
(50.0749 12.1878 0)
(50.086 12.2087 0)
(50.0958 12.2299 0)
(50.1039 12.2512 0)
(50.1108 12.2719 0)
(50.1173 12.2912 0)
(50.125 12.3084 0)
(50.1343 12.3231 0)
(50.1469 12.3353 0)
(50.1611 12.3451 0)
(50.1798 12.3528 0)
(50.196 12.3594 0)
(50.2209 12.364 0)
(50.231 12.372 0)
(50.2639 12.3666 0)
(49.9693 11.769 0)
(49.9759 11.8084 0)
(49.9824 11.8462 0)
(49.989 11.8823 0)
(49.9958 11.9167 0)
(50.0029 11.9497 0)
(50.0102 11.9815 0)
(50.0173 12.0124 0)
(50.0241 12.0422 0)
(50.0305 12.0707 0)
(50.037 12.0975 0)
(50.0444 12.1223 0)
(50.0534 12.1453 0)
(50.0638 12.1668 0)
(50.075 12.1878 0)
(50.086 12.2087 0)
(50.0957 12.2299 0)
(50.1038 12.2512 0)
(50.1106 12.2718 0)
(50.1171 12.2911 0)
(50.1248 12.3084 0)
(50.1343 12.3231 0)
(50.1469 12.3352 0)
(50.1612 12.3451 0)
(50.18 12.3527 0)
(50.1963 12.3594 0)
(50.2212 12.364 0)
(50.2312 12.372 0)
(50.2639 12.3666 0)
(49.963 11.7277 0)
(49.9696 11.7689 0)
(49.9762 11.8083 0)
(49.9826 11.8461 0)
(49.9892 11.8822 0)
(49.9959 11.9167 0)
(50.003 11.9497 0)
(50.0103 11.9815 0)
(50.0174 12.0123 0)
(50.0241 12.0421 0)
(50.0305 12.0706 0)
(50.037 12.0975 0)
(50.0445 12.1223 0)
(50.0535 12.1452 0)
(50.0639 12.1668 0)
(50.0752 12.1877 0)
(50.0861 12.2087 0)
(50.0957 12.2299 0)
(50.1037 12.2511 0)
(50.1104 12.2718 0)
(50.1169 12.2911 0)
(50.1247 12.3083 0)
(50.1342 12.3231 0)
(50.147 12.3352 0)
(50.1614 12.345 0)
(50.1803 12.3527 0)
(50.1965 12.3593 0)
(50.2214 12.364 0)
(50.2313 12.3719 0)
(50.2638 12.3666 0)
(49.9568 11.6847 0)
(49.9634 11.7277 0)
(49.9699 11.7688 0)
(49.9764 11.8083 0)
(49.9829 11.8461 0)
(49.9894 11.8822 0)
(49.9961 11.9166 0)
(50.0032 11.9496 0)
(50.0105 11.9814 0)
(50.0175 12.0123 0)
(50.0242 12.0421 0)
(50.0305 12.0706 0)
(50.0371 12.0974 0)
(50.0445 12.1223 0)
(50.0535 12.1452 0)
(50.064 12.1668 0)
(50.0753 12.1877 0)
(50.0861 12.2086 0)
(50.0957 12.2298 0)
(50.1035 12.2511 0)
(50.1102 12.2718 0)
(50.1167 12.2911 0)
(50.1245 12.3083 0)
(50.1342 12.3231 0)
(50.147 12.3352 0)
(50.1616 12.345 0)
(50.1805 12.3527 0)
(50.1968 12.3593 0)
(50.2217 12.3639 0)
(50.2315 12.3719 0)
(50.2638 12.3665 0)
(49.9506 11.6398 0)
(49.9572 11.6847 0)
(49.9637 11.7276 0)
(49.9702 11.7688 0)
(49.9767 11.8082 0)
(49.9831 11.846 0)
(49.9896 11.8821 0)
(49.9963 11.9166 0)
(50.0034 11.9496 0)
(50.0106 11.9814 0)
(50.0176 12.0122 0)
(50.0243 12.0421 0)
(50.0306 12.0706 0)
(50.0371 12.0974 0)
(50.0446 12.1222 0)
(50.0536 12.1452 0)
(50.0642 12.1667 0)
(50.0754 12.1876 0)
(50.0862 12.2086 0)
(50.0956 12.2298 0)
(50.1034 12.2511 0)
(50.11 12.2718 0)
(50.1165 12.2911 0)
(50.1244 12.3083 0)
(50.1341 12.323 0)
(50.1471 12.3352 0)
(50.1617 12.345 0)
(50.1807 12.3527 0)
(50.1971 12.3593 0)
(50.2219 12.3639 0)
(50.2316 12.3719 0)
(50.2638 12.3665 0)
(49.9443 11.5929 0)
(49.951 11.6398 0)
(49.9576 11.6846 0)
(49.9641 11.7276 0)
(49.9705 11.7687 0)
(49.9769 11.8082 0)
(49.9833 11.846 0)
(49.9898 11.8821 0)
(49.9965 11.9165 0)
(50.0035 11.9495 0)
(50.0107 11.9814 0)
(50.0177 12.0122 0)
(50.0243 12.042 0)
(50.0306 12.0706 0)
(50.0371 12.0974 0)
(50.0447 12.1222 0)
(50.0537 12.1451 0)
(50.0643 12.1667 0)
(50.0755 12.1876 0)
(50.0862 12.2086 0)
(50.0956 12.2298 0)
(50.1033 12.2511 0)
(50.1098 12.2718 0)
(50.1163 12.2911 0)
(50.1242 12.3083 0)
(50.1341 12.323 0)
(50.1472 12.3351 0)
(50.1619 12.3449 0)
(50.181 12.3526 0)
(50.1973 12.3592 0)
(50.2221 12.3639 0)
(50.2318 12.3719 0)
(50.2637 12.3665 0)
(49.938 11.5439 0)
(49.9448 11.5929 0)
(49.9514 11.6397 0)
(49.9579 11.6846 0)
(49.9644 11.7275 0)
(49.9708 11.7687 0)
(49.9772 11.8081 0)
(49.9835 11.8459 0)
(49.99 11.882 0)
(49.9966 11.9165 0)
(50.0037 11.9495 0)
(50.0108 11.9813 0)
(50.0178 12.0122 0)
(50.0244 12.042 0)
(50.0306 12.0705 0)
(50.0372 12.0973 0)
(50.0447 12.1222 0)
(50.0538 12.1451 0)
(50.0644 12.1666 0)
(50.0756 12.1876 0)
(50.0863 12.2085 0)
(50.0955 12.2298 0)
(50.1031 12.2511 0)
(50.1096 12.2717 0)
(50.1161 12.291 0)
(50.1241 12.3083 0)
(50.134 12.323 0)
(50.1472 12.3351 0)
(50.1621 12.3449 0)
(50.1813 12.3526 0)
(50.1976 12.3592 0)
(50.2224 12.3639 0)
(50.2319 12.3718 0)
(50.2637 12.3665 0)
(49.9385 11.5438 0)
(49.9453 11.5928 0)
(49.9518 11.6396 0)
(49.9583 11.6845 0)
(49.9647 11.7274 0)
(49.9711 11.7686 0)
(49.9774 11.8081 0)
(49.9837 11.8459 0)
(49.9901 11.882 0)
(49.9968 11.9164 0)
(50.0038 11.9494 0)
(50.011 11.9813 0)
(50.0179 12.0121 0)
(50.0244 12.042 0)
(50.0307 12.0705 0)
(50.0372 12.0973 0)
(50.0448 12.1221 0)
(50.0539 12.145 0)
(50.0645 12.1666 0)
(50.0757 12.1875 0)
(50.0863 12.2085 0)
(50.0955 12.2297 0)
(50.1029 12.251 0)
(50.1094 12.2717 0)
(50.1159 12.291 0)
(50.1239 12.3082 0)
(50.134 12.323 0)
(50.1473 12.3351 0)
(50.1623 12.3449 0)
(50.1815 12.3526 0)
(50.1979 12.3592 0)
(50.2226 12.3638 0)
(50.2321 12.3718 0)
(50.2636 12.3665 0)
(49.9322 11.4926 0)
(49.939 11.5438 0)
(49.9457 11.5927 0)
(49.9522 11.6396 0)
(49.9586 11.6844 0)
(49.965 11.7274 0)
(49.9713 11.7686 0)
(49.9776 11.808 0)
(49.9839 11.8458 0)
(49.9903 11.8819 0)
(49.997 11.9164 0)
(50.0039 11.9494 0)
(50.0111 11.9812 0)
(50.018 12.0121 0)
(50.0245 12.0419 0)
(50.0307 12.0705 0)
(50.0372 12.0973 0)
(50.0448 12.1221 0)
(50.054 12.145 0)
(50.0646 12.1666 0)
(50.0758 12.1875 0)
(50.0863 12.2085 0)
(50.0954 12.2297 0)
(50.1028 12.251 0)
(50.1092 12.2717 0)
(50.1157 12.291 0)
(50.1238 12.3082 0)
(50.134 12.3229 0)
(50.1474 12.3351 0)
(50.1625 12.3449 0)
(50.1818 12.3525 0)
(50.1982 12.3591 0)
(50.2229 12.3638 0)
(50.2322 12.3718 0)
(50.2635 12.3665 0)
(49.9257 11.439 0)
(49.9327 11.4925 0)
(49.9395 11.5437 0)
(49.9461 11.5927 0)
(49.9526 11.6395 0)
(49.9589 11.6844 0)
(49.9653 11.7273 0)
(49.9716 11.7685 0)
(49.9779 11.808 0)
(49.9841 11.8458 0)
(49.9905 11.8819 0)
(49.9971 11.9164 0)
(50.0041 11.9494 0)
(50.0112 11.9812 0)
(50.0181 12.0121 0)
(50.0245 12.0419 0)
(50.0307 12.0704 0)
(50.0372 12.0972 0)
(50.0449 12.1221 0)
(50.0541 12.145 0)
(50.0648 12.1665 0)
(50.0759 12.1875 0)
(50.0864 12.2084 0)
(50.0953 12.2297 0)
(50.1026 12.251 0)
(50.109 12.2717 0)
(50.1155 12.291 0)
(50.1237 12.3082 0)
(50.134 12.3229 0)
(50.1475 12.335 0)
(50.1627 12.3448 0)
(50.1821 12.3525 0)
(50.1984 12.3591 0)
(50.2231 12.3638 0)
(50.2323 12.3718 0)
(50.2635 12.3665 0)
(49.9263 11.439 0)
(49.9333 11.4924 0)
(49.94 11.5436 0)
(49.9465 11.5926 0)
(49.9529 11.6395 0)
(49.9592 11.6843 0)
(49.9656 11.7273 0)
(49.9718 11.7685 0)
(49.9781 11.8079 0)
(49.9843 11.8457 0)
(49.9906 11.8818 0)
(49.9972 11.9163 0)
(50.0042 11.9493 0)
(50.0113 11.9812 0)
(50.0181 12.012 0)
(50.0246 12.0419 0)
(50.0307 12.0704 0)
(50.0373 12.0972 0)
(50.045 12.122 0)
(50.0543 12.145 0)
(50.0649 12.1665 0)
(50.076 12.1874 0)
(50.0864 12.2084 0)
(50.0952 12.2297 0)
(50.1025 12.251 0)
(50.1088 12.2717 0)
(50.1153 12.291 0)
(50.1236 12.3082 0)
(50.134 12.3229 0)
(50.1477 12.335 0)
(50.1629 12.3448 0)
(50.1823 12.3525 0)
(50.1987 12.3591 0)
(50.2233 12.3638 0)
(50.2324 12.3717 0)
(50.2634 12.3665 0)
(49.9196 11.383 0)
(49.9268 11.4389 0)
(49.9338 11.4924 0)
(49.9404 11.5436 0)
(49.9469 11.5925 0)
(49.9533 11.6394 0)
(49.9595 11.6843 0)
(49.9658 11.7272 0)
(49.9721 11.7684 0)
(49.9783 11.8079 0)
(49.9845 11.8457 0)
(49.9908 11.8818 0)
(49.9974 11.9163 0)
(50.0043 11.9493 0)
(50.0114 11.9811 0)
(50.0182 12.012 0)
(50.0246 12.0419 0)
(50.0307 12.0704 0)
(50.0373 12.0972 0)
(50.045 12.122 0)
(50.0544 12.1449 0)
(50.065 12.1665 0)
(50.0761 12.1874 0)
(50.0864 12.2084 0)
(50.0952 12.2297 0)
(50.1023 12.251 0)
(50.1086 12.2717 0)
(50.1152 12.291 0)
(50.1235 12.3082 0)
(50.134 12.3229 0)
(50.1478 12.335 0)
(50.1632 12.3448 0)
(50.1826 12.3525 0)
(50.199 12.3591 0)
(50.2235 12.3638 0)
(50.2325 12.3717 0)
(50.2633 12.3665 0)
(49.9128 11.3244 0)
(49.9203 11.3829 0)
(49.9274 11.4388 0)
(49.9342 11.4923 0)
(49.9409 11.5435 0)
(49.9473 11.5925 0)
(49.9536 11.6394 0)
(49.9598 11.6842 0)
(49.9661 11.7272 0)
(49.9723 11.7684 0)
(49.9784 11.8079 0)
(49.9846 11.8457 0)
(49.9909 11.8818 0)
(49.9975 11.9162 0)
(50.0044 11.9493 0)
(50.0115 11.9811 0)
(50.0183 12.012 0)
(50.0246 12.0418 0)
(50.0308 12.0704 0)
(50.0373 12.0972 0)
(50.0451 12.122 0)
(50.0545 12.1449 0)
(50.0651 12.1665 0)
(50.0762 12.1874 0)
(50.0864 12.2084 0)
(50.0951 12.2296 0)
(50.1021 12.251 0)
(50.1084 12.2717 0)
(50.115 12.291 0)
(50.1233 12.3082 0)
(50.134 12.3229 0)
(50.1479 12.335 0)
(50.1634 12.3448 0)
(50.1829 12.3525 0)
(50.1993 12.359 0)
(50.2237 12.3637 0)
(50.2326 12.3717 0)
(50.2632 12.3665 0)
(49.9057 11.2632 0)
(49.9135 11.3243 0)
(49.9209 11.3828 0)
(49.9279 11.4387 0)
(49.9347 11.4922 0)
(49.9413 11.5434 0)
(49.9476 11.5924 0)
(49.9539 11.6393 0)
(49.9601 11.6842 0)
(49.9663 11.7272 0)
(49.9725 11.7683 0)
(49.9786 11.8078 0)
(49.9848 11.8456 0)
(49.9911 11.8817 0)
(49.9976 11.9162 0)
(50.0045 11.9492 0)
(50.0116 11.9811 0)
(50.0183 12.012 0)
(50.0246 12.0418 0)
(50.0308 12.0703 0)
(50.0373 12.0972 0)
(50.0452 12.122 0)
(50.0546 12.1449 0)
(50.0652 12.1664 0)
(50.0763 12.1874 0)
(50.0864 12.2084 0)
(50.095 12.2296 0)
(50.1019 12.2509 0)
(50.1081 12.2716 0)
(50.1148 12.2909 0)
(50.1232 12.3081 0)
(50.134 12.3229 0)
(50.1481 12.335 0)
(50.1636 12.3447 0)
(50.1832 12.3524 0)
(50.1995 12.359 0)
(50.224 12.3637 0)
(50.2327 12.3717 0)
(50.2631 12.3665 0)
(49.8984 11.199 0)
(49.9065 11.2631 0)
(49.9142 11.3242 0)
(49.9215 11.3827 0)
(49.9284 11.4387 0)
(49.9352 11.4922 0)
(49.9417 11.5434 0)
(49.948 11.5924 0)
(49.9542 11.6393 0)
(49.9604 11.6841 0)
(49.9665 11.7271 0)
(49.9727 11.7683 0)
(49.9788 11.8078 0)
(49.9849 11.8456 0)
(49.9912 11.8817 0)
(49.9978 11.9162 0)
(50.0047 11.9492 0)
(50.0116 11.9811 0)
(50.0184 12.0119 0)
(50.0247 12.0418 0)
(50.0308 12.0703 0)
(50.0374 12.0971 0)
(50.0452 12.1219 0)
(50.0547 12.1448 0)
(50.0654 12.1664 0)
(50.0763 12.1873 0)
(50.0864 12.2083 0)
(50.0949 12.2296 0)
(50.1017 12.2509 0)
(50.1079 12.2716 0)
(50.1146 12.2909 0)
(50.1231 12.3081 0)
(50.134 12.3228 0)
(50.1482 12.3349 0)
(50.1639 12.3447 0)
(50.1835 12.3524 0)
(50.1998 12.359 0)
(50.2242 12.3637 0)
(50.2328 12.3717 0)
(50.263 12.3664 0)
(49.8907 11.1319 0)
(49.8992 11.1989 0)
(49.9072 11.263 0)
(49.9148 11.3242 0)
(49.922 11.3827 0)
(49.9289 11.4386 0)
(49.9356 11.4921 0)
(49.942 11.5433 0)
(49.9483 11.5923 0)
(49.9545 11.6392 0)
(49.9606 11.6841 0)
(49.9667 11.7271 0)
(49.9729 11.7683 0)
(49.979 11.8078 0)
(49.9851 11.8456 0)
(49.9913 11.8817 0)
(49.9979 11.9162 0)
(50.0048 11.9492 0)
(50.0117 11.981 0)
(50.0184 12.0119 0)
(50.0247 12.0418 0)
(50.0308 12.0703 0)
(50.0374 12.0971 0)
(50.0453 12.1219 0)
(50.0548 12.1448 0)
(50.0655 12.1664 0)
(50.0764 12.1873 0)
(50.0864 12.2083 0)
(50.0948 12.2296 0)
(50.1016 12.2509 0)
(50.1077 12.2716 0)
(50.1144 12.2909 0)
(50.1231 12.3081 0)
(50.134 12.3228 0)
(50.1484 12.3349 0)
(50.1641 12.3447 0)
(50.1838 12.3524 0)
(50.2001 12.359 0)
(50.2244 12.3637 0)
(50.2329 12.3717 0)
(50.2629 12.3664 0)
(49.8826 11.0615 0)
(49.8916 11.1318 0)
(49.9 11.1988 0)
(49.9079 11.2629 0)
(49.9154 11.3241 0)
(49.9226 11.3826 0)
(49.9294 11.4385 0)
(49.936 11.4921 0)
(49.9424 11.5433 0)
(49.9486 11.5923 0)
(49.9548 11.6392 0)
(49.9609 11.6841 0)
(49.967 11.727 0)
(49.9731 11.7682 0)
(49.9791 11.8077 0)
(49.9852 11.8455 0)
(49.9914 11.8817 0)
(49.998 11.9161 0)
(50.0049 11.9492 0)
(50.0118 11.981 0)
(50.0185 12.0119 0)
(50.0247 12.0417 0)
(50.0308 12.0703 0)
(50.0374 12.0971 0)
(50.0453 12.1219 0)
(50.0549 12.1448 0)
(50.0656 12.1663 0)
(50.0765 12.1873 0)
(50.0864 12.2083 0)
(50.0946 12.2296 0)
(50.1014 12.2509 0)
(50.1075 12.2716 0)
(50.1142 12.2909 0)
(50.123 12.3081 0)
(50.1341 12.3228 0)
(50.1485 12.3349 0)
(50.1644 12.3447 0)
(50.1841 12.3524 0)
(50.2004 12.359 0)
(50.2246 12.3637 0)
(50.233 12.3716 0)
(50.2628 12.3664 0)
(49.8741 10.9877 0)
(49.8836 11.0614 0)
(49.8924 11.1317 0)
(49.9007 11.1987 0)
(49.9086 11.2628 0)
(49.916 11.324 0)
(49.9231 11.3825 0)
(49.9299 11.4385 0)
(49.9364 11.492 0)
(49.9427 11.5432 0)
(49.9489 11.5922 0)
(49.955 11.6391 0)
(49.9611 11.684 0)
(49.9672 11.727 0)
(49.9732 11.7682 0)
(49.9793 11.8077 0)
(49.9853 11.8455 0)
(49.9915 11.8816 0)
(49.9981 11.9161 0)
(50.005 11.9491 0)
(50.0119 11.981 0)
(50.0185 12.0119 0)
(50.0247 12.0417 0)
(50.0308 12.0703 0)
(50.0374 12.0971 0)
(50.0454 12.1219 0)
(50.055 12.1448 0)
(50.0657 12.1663 0)
(50.0766 12.1873 0)
(50.0864 12.2083 0)
(50.0945 12.2296 0)
(50.1012 12.2509 0)
(50.1073 12.2716 0)
(50.1141 12.2909 0)
(50.1229 12.3081 0)
(50.1341 12.3228 0)
(50.1487 12.3349 0)
(50.1646 12.3447 0)
(50.1843 12.3524 0)
(50.2006 12.3589 0)
(50.2248 12.3637 0)
(50.233 12.3716 0)
(50.2627 12.3664 0)
(49.865 10.9103 0)
(49.8751 10.9876 0)
(49.8845 11.0613 0)
(49.8933 11.1316 0)
(49.9015 11.1987 0)
(49.9092 11.2627 0)
(49.9166 11.3239 0)
(49.9236 11.3825 0)
(49.9303 11.4384 0)
(49.9368 11.492 0)
(49.9431 11.5432 0)
(49.9492 11.5922 0)
(49.9553 11.6391 0)
(49.9613 11.684 0)
(49.9673 11.727 0)
(49.9734 11.7682 0)
(49.9794 11.8077 0)
(49.9855 11.8455 0)
(49.9917 11.8816 0)
(49.9982 11.9161 0)
(50.005 11.9491 0)
(50.0119 11.981 0)
(50.0185 12.0118 0)
(50.0247 12.0417 0)
(50.0308 12.0703 0)
(50.0375 12.0971 0)
(50.0455 12.1218 0)
(50.0551 12.1448 0)
(50.0658 12.1663 0)
(50.0766 12.1873 0)
(50.0864 12.2083 0)
(50.0944 12.2296 0)
(50.101 12.2509 0)
(50.1071 12.2716 0)
(50.1139 12.2909 0)
(50.1228 12.3081 0)
(50.1342 12.3228 0)
(50.1489 12.3349 0)
(50.1649 12.3446 0)
(50.1846 12.3523 0)
(50.2009 12.3589 0)
(50.225 12.3637 0)
(50.2331 12.3716 0)
(50.2625 12.3664 0)
(49.8553 10.8291 0)
(49.8661 10.9102 0)
(49.8761 10.9875 0)
(49.8854 11.0612 0)
(49.8941 11.1315 0)
(49.9022 11.1986 0)
(49.9098 11.2627 0)
(49.9171 11.3239 0)
(49.924 11.3824 0)
(49.9307 11.4384 0)
(49.9371 11.4919 0)
(49.9434 11.5431 0)
(49.9495 11.5922 0)
(49.9555 11.6391 0)
(49.9615 11.684 0)
(49.9675 11.7269 0)
(49.9736 11.7681 0)
(49.9795 11.8076 0)
(49.9856 11.8455 0)
(49.9918 11.8816 0)
(49.9983 11.916 0)
(50.0051 11.9491 0)
(50.012 11.9809 0)
(50.0186 12.0118 0)
(50.0247 12.0417 0)
(50.0308 12.0702 0)
(50.0375 12.097 0)
(50.0456 12.1218 0)
(50.0552 12.1447 0)
(50.0659 12.1663 0)
(50.0767 12.1872 0)
(50.0863 12.2082 0)
(50.0943 12.2295 0)
(50.1008 12.2509 0)
(50.1068 12.2716 0)
(50.1137 12.2909 0)
(50.1228 12.3081 0)
(50.1343 12.3228 0)
(50.149 12.3349 0)
(50.1651 12.3446 0)
(50.1849 12.3523 0)
(50.2012 12.3589 0)
(50.2252 12.3636 0)
(50.2332 12.3716 0)
(50.2624 12.3664 0)
(49.845 10.7438 0)
(49.8566 10.8289 0)
(49.8673 10.9101 0)
(49.8771 10.9874 0)
(49.8863 11.0611 0)
(49.8948 11.1314 0)
(49.9028 11.1985 0)
(49.9104 11.2626 0)
(49.9176 11.3238 0)
(49.9245 11.3824 0)
(49.9311 11.4383 0)
(49.9375 11.4919 0)
(49.9437 11.5431 0)
(49.9497 11.5921 0)
(49.9557 11.639 0)
(49.9617 11.6839 0)
(49.9677 11.7269 0)
(49.9737 11.7681 0)
(49.9797 11.8076 0)
(49.9857 11.8454 0)
(49.9919 11.8815 0)
(49.9984 11.916 0)
(50.0052 11.9491 0)
(50.0121 11.9809 0)
(50.0186 12.0118 0)
(50.0247 12.0417 0)
(50.0308 12.0702 0)
(50.0375 12.097 0)
(50.0456 12.1218 0)
(50.0553 12.1447 0)
(50.0661 12.1663 0)
(50.0767 12.1872 0)
(50.0863 12.2082 0)
(50.0941 12.2295 0)
(50.1006 12.2509 0)
(50.1066 12.2716 0)
(50.1136 12.2909 0)
(50.1227 12.308 0)
(50.1343 12.3227 0)
(50.1492 12.3348 0)
(50.1654 12.3446 0)
(50.1852 12.3523 0)
(50.2014 12.3589 0)
(50.2254 12.3636 0)
(50.2332 12.3716 0)
(50.2623 12.3664 0)
(49.8339 10.6541 0)
(49.8464 10.7436 0)
(49.8578 10.8288 0)
(49.8683 10.9099 0)
(49.8781 10.9872 0)
(49.8871 11.061 0)
(49.8955 11.1313 0)
(49.9035 11.1984 0)
(49.911 11.2625 0)
(49.9181 11.3238 0)
(49.9249 11.3823 0)
(49.9315 11.4383 0)
(49.9378 11.4918 0)
(49.944 11.5431 0)
(49.95 11.5921 0)
(49.956 11.639 0)
(49.9619 11.6839 0)
(49.9679 11.7269 0)
(49.9739 11.7681 0)
(49.9798 11.8076 0)
(49.9858 11.8454 0)
(49.992 11.8815 0)
(49.9985 11.916 0)
(50.0053 11.949 0)
(50.0121 11.9809 0)
(50.0186 12.0118 0)
(50.0247 12.0417 0)
(50.0308 12.0702 0)
(50.0375 12.097 0)
(50.0457 12.1218 0)
(50.0554 12.1447 0)
(50.0662 12.1662 0)
(50.0768 12.1872 0)
(50.0862 12.2082 0)
(50.094 12.2295 0)
(50.1003 12.2509 0)
(50.1064 12.2716 0)
(50.1134 12.2909 0)
(50.1227 12.308 0)
(50.1344 12.3227 0)
(50.1494 12.3348 0)
(50.1657 12.3446 0)
(50.1855 12.3523 0)
(50.2017 12.3589 0)
(50.2255 12.3636 0)
(50.2332 12.3716 0)
(50.2621 12.3664 0)
(49.8219 10.5597 0)
(49.8354 10.6539 0)
(49.8477 10.7434 0)
(49.859 10.8286 0)
(49.8693 10.9098 0)
(49.879 10.9871 0)
(49.8879 11.0609 0)
(49.8962 11.1312 0)
(49.9041 11.1983 0)
(49.9115 11.2625 0)
(49.9186 11.3237 0)
(49.9253 11.3822 0)
(49.9318 11.4382 0)
(49.9381 11.4918 0)
(49.9442 11.543 0)
(49.9502 11.5921 0)
(49.9562 11.639 0)
(49.9621 11.6839 0)
(49.968 11.7268 0)
(49.974 11.7681 0)
(49.9799 11.8076 0)
(49.9859 11.8454 0)
(49.9921 11.8815 0)
(49.9986 11.916 0)
(50.0054 11.949 0)
(50.0122 11.9809 0)
(50.0186 12.0118 0)
(50.0247 12.0416 0)
(50.0308 12.0702 0)
(50.0376 12.097 0)
(50.0458 12.1218 0)
(50.0555 12.1447 0)
(50.0663 12.1662 0)
(50.0769 12.1872 0)
(50.0862 12.2082 0)
(50.0938 12.2295 0)
(50.1001 12.2509 0)
(50.1062 12.2716 0)
(50.1133 12.2908 0)
(50.1226 12.308 0)
(50.1345 12.3227 0)
(50.1496 12.3348 0)
(50.166 12.3446 0)
(50.1858 12.3523 0)
(50.202 12.3589 0)
(50.2257 12.3636 0)
(50.2333 12.3716 0)
(50.262 12.3664 0)
(49.8088 10.4603 0)
(49.8235 10.5595 0)
(49.8368 10.6537 0)
(49.849 10.7433 0)
(49.8601 10.8285 0)
(49.8703 10.9097 0)
(49.8798 10.987 0)
(49.8886 11.0608 0)
(49.8969 11.1311 0)
(49.9047 11.1983 0)
(49.912 11.2624 0)
(49.919 11.3236 0)
(49.9257 11.3822 0)
(49.9322 11.4382 0)
(49.9384 11.4917 0)
(49.9445 11.543 0)
(49.9505 11.592 0)
(49.9564 11.6389 0)
(49.9623 11.6838 0)
(49.9682 11.7268 0)
(49.9741 11.768 0)
(49.98 11.8075 0)
(49.986 11.8454 0)
(49.9922 11.8815 0)
(49.9987 11.916 0)
(50.0054 11.949 0)
(50.0122 11.9809 0)
(50.0187 12.0117 0)
(50.0247 12.0416 0)
(50.0308 12.0702 0)
(50.0376 12.097 0)
(50.0458 12.1217 0)
(50.0557 12.1446 0)
(50.0664 12.1662 0)
(50.0769 12.1872 0)
(50.0862 12.2082 0)
(50.0937 12.2295 0)
(50.0999 12.2508 0)
(50.106 12.2716 0)
(50.1131 12.2908 0)
(50.1226 12.308 0)
(50.1346 12.3227 0)
(50.1498 12.3348 0)
(50.1662 12.3446 0)
(50.1861 12.3523 0)
(50.2022 12.3589 0)
(50.2259 12.3636 0)
(50.2333 12.3715 0)
(50.2618 12.3664 0)
(49.7946 10.3557 0)
(49.8106 10.4601 0)
(49.8251 10.5593 0)
(49.8382 10.6535 0)
(49.8502 10.7431 0)
(49.8612 10.8284 0)
(49.8713 10.9096 0)
(49.8807 10.9869 0)
(49.8894 11.0607 0)
(49.8975 11.1311 0)
(49.9052 11.1982 0)
(49.9125 11.2623 0)
(49.9195 11.3236 0)
(49.9261 11.3822 0)
(49.9325 11.4381 0)
(49.9387 11.4917 0)
(49.9448 11.5429 0)
(49.9507 11.592 0)
(49.9566 11.6389 0)
(49.9624 11.6838 0)
(49.9683 11.7268 0)
(49.9743 11.768 0)
(49.9802 11.8075 0)