/*--------------------------------*- C++ -*----------------------------------*\
  =========                 |
  \\      /  F ield         | OpenFOAM: The Open Source CFD Toolbox
   \\    /   O peration     | Website:  https://openfoam.org
    \\  /    A nd           | Version:  7
     \\/     M anipulation  |
\*---------------------------------------------------------------------------*/
FoamFile
{
    version     2.0;
    format      ascii;
    class       volScalarField;
    location    "600";
    object      nut;
}
// * * * * * * * * * * * * * * * * * * * * * * * * * * * * * * * * * * * * * //

dimensions      [0 2 -1 0 0 0 0];

internalField   nonuniform List<scalar> 
23064
(
5.20696e-06
5.2077e-06
5.20696e-06
5.20837e-06
5.20771e-06
5.20696e-06
5.20895e-06
5.20838e-06
5.20772e-06
5.20696e-06
5.20946e-06
5.20897e-06
5.20839e-06
5.20772e-06
5.20697e-06
5.20989e-06
5.20948e-06
5.20899e-06
5.2084e-06
5.20773e-06
5.20697e-06
5.21025e-06
5.20991e-06
5.2095e-06
5.209e-06
5.20842e-06
5.20774e-06
5.20697e-06
5.21055e-06
5.21028e-06
5.20993e-06
5.20952e-06
5.20902e-06
5.20843e-06
5.20775e-06
5.20698e-06
5.2108e-06
5.21058e-06
5.2103e-06
5.20996e-06
5.20954e-06
5.20904e-06
5.20845e-06
5.20776e-06
5.20698e-06
5.21098e-06
5.21082e-06
5.2106e-06
5.21032e-06
5.20998e-06
5.20956e-06
5.20905e-06
5.20846e-06
5.20777e-06
5.20698e-06
5.21112e-06
5.21101e-06
5.21085e-06
5.21063e-06
5.21035e-06
5.21e-06
5.20958e-06
5.20907e-06
5.20847e-06
5.20778e-06
5.20698e-06
5.21122e-06
5.21115e-06
5.21103e-06
5.21087e-06
5.21065e-06
5.21037e-06
5.21002e-06
5.2096e-06
5.20909e-06
5.20849e-06
5.20779e-06
5.20699e-06
5.21128e-06
5.21124e-06
5.21117e-06
5.21106e-06
5.21089e-06
5.21068e-06
5.2104e-06
5.21005e-06
5.20962e-06
5.20911e-06
5.2085e-06
5.20779e-06
5.20699e-06
5.2113e-06
5.2113e-06
5.21127e-06
5.2112e-06
5.21108e-06
5.21092e-06
5.2107e-06
5.21042e-06
5.21007e-06
5.20964e-06
5.20912e-06
5.20851e-06
5.2078e-06
5.20699e-06
5.21129e-06
5.21132e-06
5.21132e-06
5.21129e-06
5.21122e-06
5.21111e-06
5.21094e-06
5.21073e-06
5.21044e-06
5.21009e-06
5.20966e-06
5.20914e-06
5.20853e-06
5.20781e-06
5.207e-06
5.21126e-06
5.21131e-06
5.21134e-06
5.21134e-06
5.21131e-06
5.21124e-06
5.21113e-06
5.21097e-06
5.21075e-06
5.21047e-06
5.21012e-06
5.20968e-06
5.20916e-06
5.20854e-06
5.20782e-06
5.207e-06
5.2112e-06
5.21127e-06
5.21132e-06
5.21136e-06
5.21136e-06
5.21133e-06
5.21127e-06
5.21115e-06
5.21099e-06
5.21078e-06
5.21049e-06
5.21014e-06
5.2097e-06
5.20918e-06
5.20856e-06
5.20783e-06
5.20701e-06
5.21112e-06
5.21121e-06
5.21128e-06
5.21134e-06
5.21137e-06
5.21138e-06
5.21135e-06
5.21129e-06
5.21118e-06
5.21102e-06
5.2108e-06
5.21052e-06
5.21016e-06
5.20973e-06
5.2092e-06
5.20857e-06
5.20784e-06
5.20701e-06
5.21102e-06
5.21113e-06
5.21122e-06
5.21129e-06
5.21135e-06
5.21139e-06
5.2114e-06
5.21138e-06
5.21131e-06
5.2112e-06
5.21104e-06
5.21083e-06
5.21054e-06
5.21019e-06
5.20975e-06
5.20922e-06
5.20859e-06
5.20785e-06
5.20701e-06
5.2109e-06
5.21102e-06
5.21113e-06
5.21123e-06
5.21131e-06
5.21137e-06
5.21141e-06
5.21142e-06
5.2114e-06
5.21133e-06
5.21123e-06
5.21107e-06
5.21085e-06
5.21057e-06
5.21021e-06
5.20977e-06
5.20924e-06
5.20861e-06
5.20787e-06
5.20702e-06
5.21077e-06
5.2109e-06
5.21102e-06
5.21114e-06
5.21123e-06
5.21132e-06
5.21138e-06
5.21143e-06
5.21144e-06
5.21142e-06
5.21136e-06
5.21125e-06
5.21109e-06
5.21088e-06
5.21059e-06
5.21024e-06
5.20979e-06
5.20926e-06
5.20862e-06
5.20788e-06
5.20702e-06
5.21062e-06
5.21076e-06
5.2109e-06
5.21103e-06
5.21114e-06
5.21124e-06
5.21133e-06
5.2114e-06
5.21145e-06
5.21146e-06
5.21144e-06
5.21138e-06
5.21127e-06
5.21112e-06
5.2109e-06
5.21062e-06
5.21026e-06
5.20982e-06
5.20928e-06
5.20864e-06
5.20789e-06
5.20702e-06
5.21049e-06
5.21062e-06
5.21076e-06
5.2109e-06
5.21103e-06
5.21115e-06
5.21125e-06
5.21134e-06
5.21142e-06
5.21146e-06
5.21148e-06
5.21146e-06
5.2114e-06
5.2113e-06
5.21114e-06
5.21093e-06
5.21064e-06
5.21028e-06
5.20984e-06
5.2093e-06
5.20865e-06
5.2079e-06
5.20703e-06
5.2104e-06
5.21049e-06
5.21061e-06
5.21076e-06
5.2109e-06
5.21103e-06
5.21115e-06
5.21126e-06
5.21136e-06
5.21143e-06
5.21148e-06
5.2115e-06
5.21148e-06
5.21143e-06
5.21132e-06
5.21117e-06
5.21095e-06
5.21067e-06
5.21031e-06
5.20986e-06
5.20932e-06
5.20867e-06
5.20791e-06
5.20703e-06
5.21033e-06
5.21039e-06
5.21049e-06
5.21061e-06
5.21075e-06
5.2109e-06
5.21103e-06
5.21116e-06
5.21127e-06
5.21137e-06
5.21145e-06
5.2115e-06
5.21152e-06
5.2115e-06
5.21145e-06
5.21135e-06
5.21119e-06
5.21098e-06
5.2107e-06
5.21034e-06
5.20989e-06
5.20934e-06
5.20869e-06
5.20792e-06
5.20704e-06
5.21029e-06
5.21033e-06
5.21039e-06
5.21048e-06
5.2106e-06
5.21075e-06
5.2109e-06
5.21103e-06
5.21116e-06
5.21128e-06
5.21138e-06
5.21146e-06
5.21151e-06
5.21153e-06
5.21152e-06
5.21147e-06
5.21137e-06
5.21122e-06
5.21101e-06
5.21072e-06
5.21036e-06
5.20991e-06
5.20936e-06
5.20871e-06
5.20794e-06
5.20704e-06
5.21027e-06
5.21029e-06
5.21032e-06
5.21039e-06
5.21048e-06
5.2106e-06
5.21074e-06
5.2109e-06
5.21104e-06
5.21117e-06
5.21129e-06
5.21139e-06
5.21147e-06
5.21153e-06
5.21155e-06
5.21154e-06
5.21149e-06
5.2114e-06
5.21125e-06
5.21103e-06
5.21075e-06
5.21039e-06
5.20994e-06
5.20939e-06
5.20873e-06
5.20795e-06
5.20705e-06
5.21028e-06
5.21027e-06
5.21028e-06
5.21032e-06
5.21039e-06
5.21048e-06
5.21059e-06
5.21074e-06
5.2109e-06
5.21104e-06
5.21118e-06
5.2113e-06
5.2114e-06
5.21149e-06
5.21155e-06
5.21157e-06
5.21157e-06
5.21152e-06
5.21142e-06
5.21127e-06
5.21106e-06
5.21078e-06
5.21042e-06
5.20997e-06
5.20941e-06
5.20875e-06
5.20796e-06
5.20705e-06
5.21031e-06
5.21028e-06
5.21027e-06
5.21028e-06
5.21032e-06
5.21038e-06
5.21047e-06
5.21059e-06
5.21074e-06
5.2109e-06
5.21104e-06
5.21118e-06
5.21131e-06
5.21142e-06
5.2115e-06
5.21156e-06
5.21159e-06
5.21159e-06
5.21154e-06
5.21145e-06
5.2113e-06
5.21109e-06
5.21081e-06
5.21045e-06
5.20999e-06
5.20943e-06
5.20877e-06
5.20798e-06
5.20706e-06
5.21036e-06
5.21031e-06
5.21028e-06
5.21027e-06
5.21029e-06
5.21032e-06
5.21038e-06
5.21047e-06
5.21059e-06
5.21073e-06
5.2109e-06
5.21105e-06
5.21119e-06
5.21132e-06
5.21143e-06
5.21152e-06
5.21158e-06
5.21161e-06
5.21161e-06
5.21156e-06
5.21147e-06
5.21133e-06
5.21112e-06
5.21084e-06
5.21047e-06
5.21002e-06
5.20946e-06
5.20879e-06
5.20799e-06
5.20706e-06
5.21044e-06
5.21037e-06
5.21032e-06
5.21028e-06
5.21027e-06
5.21029e-06
5.21032e-06
5.21038e-06
5.21047e-06
5.21058e-06
5.21073e-06
5.2109e-06
5.21105e-06
5.2112e-06
5.21133e-06
5.21144e-06
5.21153e-06
5.21159e-06
5.21163e-06
5.21163e-06
5.21159e-06
5.2115e-06
5.21135e-06
5.21115e-06
5.21087e-06
5.2105e-06
5.21005e-06
5.20948e-06
5.20881e-06
5.208e-06
5.20707e-06
0.000141706
5.21054e-06
5.21045e-06
5.21037e-06
5.21032e-06
5.21029e-06
5.21028e-06
5.21029e-06
5.21032e-06
5.21038e-06
5.21047e-06
5.21058e-06
5.21073e-06
5.2109e-06
5.21106e-06
5.2112e-06
5.21133e-06
5.21145e-06
5.21154e-06
5.21161e-06
5.21165e-06
5.21165e-06
5.21161e-06
5.21152e-06
5.21138e-06
5.21117e-06
5.2109e-06
5.21053e-06
5.21008e-06
5.20951e-06
5.20883e-06
5.20802e-06
5.20708e-06
0.000190598
0.000155269
5.21066e-06
5.21055e-06
5.21045e-06
5.21038e-06
5.21033e-06
5.21029e-06
5.21028e-06
5.21029e-06
5.21032e-06
5.21038e-06
5.21046e-06
5.21058e-06
5.21073e-06
5.2109e-06
5.21106e-06
5.21121e-06
5.21134e-06
5.21146e-06
5.21155e-06
5.21162e-06
5.21166e-06
5.21167e-06
5.21163e-06
5.21155e-06
5.21141e-06
5.2112e-06
5.21093e-06
5.21056e-06
5.2101e-06
5.20954e-06
5.20885e-06
5.20804e-06
5.20708e-06
0.000369488
0.000180125
0.000169937
5.21079e-06
5.21067e-06
5.21055e-06
5.21046e-06
5.21039e-06
5.21033e-06
5.2103e-06
5.21028e-06
5.21029e-06
5.21032e-06
5.21038e-06
5.21046e-06
5.21058e-06
5.21072e-06
5.2109e-06
5.21106e-06
5.21121e-06
5.21135e-06
5.21147e-06
5.21157e-06
5.21164e-06
5.21168e-06
5.21169e-06
5.21166e-06
5.21158e-06
5.21144e-06
5.21123e-06
5.21096e-06
5.2106e-06
5.21014e-06
5.20957e-06
5.20887e-06
5.20805e-06
5.20709e-06
0.000621259
0.000333569
0.000176363
0.000183957
5.21095e-06
5.2108e-06
5.21067e-06
5.21056e-06
5.21047e-06
5.21039e-06
5.21034e-06
5.2103e-06
5.21029e-06
5.21029e-06
5.21032e-06
5.21038e-06
5.21046e-06
5.21057e-06
5.21072e-06
5.2109e-06
5.21107e-06
5.21122e-06
5.21136e-06
5.21148e-06
5.21158e-06
5.21166e-06
5.2117e-06
5.21171e-06
5.21168e-06
5.2116e-06
5.21147e-06
5.21127e-06
5.21099e-06
5.21063e-06
5.21017e-06
5.20959e-06
5.2089e-06
5.20807e-06
5.2071e-06
0.000925205
0.000563429
0.000305462
0.000177041
0.000196906
5.21112e-06
5.21096e-06
5.21081e-06
5.21068e-06
5.21057e-06
5.21047e-06
5.2104e-06
5.21034e-06
5.21031e-06
5.21029e-06
5.2103e-06
5.21032e-06
5.21038e-06
5.21046e-06
5.21057e-06
5.21072e-06
5.2109e-06
5.21107e-06
5.21122e-06
5.21137e-06
5.21149e-06
5.21159e-06
5.21167e-06
5.21172e-06
5.21173e-06
5.21171e-06
5.21163e-06
5.2115e-06
5.2113e-06
5.21102e-06
5.21066e-06
5.2102e-06
5.20962e-06
5.20892e-06
5.20809e-06
5.2071e-06
0.00127758
0.00084489
0.000515339
0.00028519
0.000180946
0.000209208
5.21132e-06
5.21114e-06
5.21097e-06
5.21082e-06
5.21069e-06
5.21058e-06
5.21048e-06
5.21041e-06
5.21035e-06
5.21031e-06
5.21029e-06
5.2103e-06
5.21033e-06
5.21038e-06
5.21046e-06
5.21057e-06
5.21072e-06
5.2109e-06
5.21107e-06
5.21123e-06
5.21137e-06
5.2115e-06
5.2116e-06
5.21169e-06
5.21174e-06
5.21175e-06
5.21173e-06
5.21166e-06
5.21152e-06
5.21133e-06
5.21106e-06
5.21069e-06
5.21023e-06
5.20966e-06
5.20895e-06
5.20811e-06
5.20711e-06
0.00167629
0.00117437
0.000775971
0.000477866
0.00027473
0.000188564
0.000220847
5.21153e-06
5.21133e-06
5.21115e-06
5.21098e-06
5.21083e-06
5.2107e-06
5.21059e-06
5.21049e-06
5.21041e-06
5.21035e-06
5.21032e-06
5.2103e-06
5.2103e-06
5.21033e-06
5.21038e-06
5.21046e-06
5.21057e-06
5.21072e-06
5.2109e-06
5.21107e-06
5.21123e-06
5.21138e-06
5.21151e-06
5.21162e-06
5.2117e-06
5.21176e-06
5.21178e-06
5.21175e-06
5.21168e-06
5.21155e-06
5.21136e-06
5.21109e-06
5.21073e-06
5.21027e-06
5.20969e-06
5.20898e-06
5.20813e-06
5.20712e-06
0.00211914
0.00154986
0.00108385
0.000719835
0.000450998
0.000281248
0.000196744
0.000231976
5.21175e-06
5.21154e-06
5.21135e-06
5.21116e-06
5.211e-06
5.21084e-06
5.21071e-06
5.2106e-06
5.2105e-06
5.21042e-06
5.21036e-06
5.21032e-06
5.2103e-06
5.2103e-06
5.21033e-06
5.21038e-06
5.21046e-06
5.21057e-06
5.21072e-06
5.2109e-06
5.21108e-06
5.21124e-06
5.21138e-06
5.21152e-06
5.21163e-06
5.21172e-06
5.21177e-06
5.2118e-06
5.21178e-06
5.21171e-06
5.21159e-06
5.21139e-06
5.21112e-06
5.21076e-06
5.2103e-06
5.20972e-06
5.20901e-06
5.20815e-06
5.20713e-06
0.00259689
0.00196988
0.00143719
0.00100782
0.000676498
0.000434754
0.00029187
0.000204723
0.000243041
5.21199e-06
5.21177e-06
5.21156e-06
5.21136e-06
5.21118e-06
5.21101e-06
5.21085e-06
5.21072e-06
5.21061e-06
5.21051e-06
5.21043e-06
5.21037e-06
5.21033e-06
5.21031e-06
5.21031e-06
5.21033e-06
5.21038e-06
5.21046e-06
5.21057e-06
5.21072e-06
5.2109e-06
5.21108e-06
5.21124e-06
5.21139e-06
5.21152e-06
5.21164e-06
5.21173e-06
5.21179e-06
5.21182e-06
5.2118e-06
5.21174e-06
5.21162e-06
5.21143e-06
5.21116e-06
5.2108e-06
5.21034e-06
5.20976e-06
5.20904e-06
5.20818e-06
5.20714e-06
0.00308811
0.00243329
0.00183456
0.00134043
0.000946874
0.000645341
0.000426225
0.000302385
0.000213168
0.000254124
5.21225e-06
5.21201e-06
5.21179e-06
5.21157e-06
5.21137e-06
5.21119e-06
5.21102e-06
5.21087e-06
5.21073e-06
5.21062e-06
5.21052e-06
5.21044e-06
5.21038e-06
5.21034e-06
5.21031e-06
5.21031e-06
5.21033e-06
5.21038e-06
5.21046e-06
5.21057e-06
5.21072e-06
5.2109e-06
5.21108e-06
5.21124e-06
5.2114e-06
5.21153e-06
5.21165e-06
5.21174e-06
5.21181e-06
5.21184e-06
5.21183e-06
5.21177e-06
5.21165e-06
5.21146e-06
5.2112e-06
5.21084e-06
5.21038e-06
5.20979e-06
5.20907e-06
5.2082e-06
5.20715e-06
0.00357597
0.00293381
0.00227489
0.00171646
0.00126082
0.000900852
0.000625606
0.000425721
0.000316364
0.000222306
0.000265258
5.21253e-06
5.21228e-06
5.21203e-06
5.21181e-06
5.21159e-06
5.21139e-06
5.2112e-06
5.21103e-06
5.21088e-06
5.21074e-06
5.21063e-06
5.21053e-06
5.21045e-06
5.21039e-06
5.21034e-06
5.21032e-06
5.21032e-06
5.21034e-06
5.21038e-06
5.21046e-06
5.21058e-06
5.21072e-06
5.2109e-06
5.21108e-06
5.21125e-06
5.2114e-06
5.21154e-06
5.21166e-06
5.21176e-06
5.21183e-06
5.21186e-06
5.21185e-06
5.21179e-06
5.21168e-06
5.2115e-06
5.21123e-06
5.21088e-06
5.21042e-06
5.20983e-06
5.2091e-06
5.20823e-06
5.20716e-06
0.00405295
0.00344207
0.00275729
0.00213497
0.00161733
0.00119885
0.000869932
0.000617754
0.000438582
0.000334481
0.000231475
0.000276612
5.21282e-06
5.21255e-06
5.2123e-06
5.21205e-06
5.21182e-06
5.2116e-06
5.2114e-06
5.21121e-06
5.21104e-06
5.21089e-06
5.21075e-06
5.21064e-06
5.21054e-06
5.21046e-06
5.21039e-06
5.21035e-06
5.21033e-06
5.21032e-06
5.21034e-06
5.21039e-06
5.21047e-06
5.21058e-06
5.21072e-06
5.2109e-06
5.21108e-06
5.21125e-06
5.21141e-06
5.21155e-06
5.21167e-06
5.21177e-06
5.21184e-06
5.21188e-06
5.21188e-06
5.21182e-06
5.21171e-06
5.21153e-06
5.21127e-06
5.21092e-06
5.21046e-06
5.20987e-06
5.20914e-06
5.20825e-06
5.20718e-06
0.00451667
0.00393778
0.00327425
0.00259522
0.00201551
0.00153848
0.00115579
0.0008548
0.000622578
0.000463523
0.000353475
0.000241153
0.000288185
5.21313e-06
5.21285e-06
5.21257e-06
5.21232e-06
5.21207e-06
5.21184e-06
5.21162e-06
5.21141e-06
5.21122e-06
5.21105e-06
5.2109e-06
5.21077e-06
5.21065e-06
5.21055e-06
5.21047e-06
5.2104e-06
5.21036e-06
5.21033e-06
5.21033e-06
5.21035e-06
5.21039e-06
5.21047e-06
5.21058e-06
5.21072e-06
5.2109e-06
5.21108e-06
5.21125e-06
5.21141e-06
5.21156e-06
5.21168e-06
5.21179e-06
5.21186e-06
5.2119e-06
5.2119e-06
5.21185e-06
5.21175e-06
5.21157e-06
5.21131e-06
5.21096e-06
5.2105e-06
5.20991e-06
5.20918e-06
5.20828e-06
5.20719e-06
0.0049666
0.00441514
0.00378662
0.00309654
0.00245455
0.00191905
0.00148233
0.00113266
0.000855067
0.000638167
0.000491333
0.00037516
0.000251564
0.000299811
5.21345e-06
5.21315e-06
5.21287e-06
5.21259e-06
5.21233e-06
5.21209e-06
5.21185e-06
5.21163e-06
5.21143e-06
5.21124e-06
5.21107e-06
5.21091e-06
5.21078e-06
5.21066e-06
5.21056e-06
5.21048e-06
5.21041e-06
5.21037e-06
5.21034e-06
5.21033e-06
5.21035e-06
5.21039e-06
5.21047e-06
5.21058e-06
5.21072e-06
5.21089e-06
5.21108e-06
5.21125e-06
5.21142e-06
5.21156e-06
5.21169e-06
5.2118e-06
5.21188e-06
5.21192e-06
5.21193e-06
5.21188e-06
5.21178e-06
5.21161e-06
5.21135e-06
5.211e-06
5.21054e-06
5.20995e-06
5.20922e-06
5.20831e-06
5.2072e-06
0.00540265
0.00487361
0.00427716
0.00361624
0.00293361
0.00234
0.00184906
0.00145051
0.00112889
0.00086871
0.00066321
0.000525468
0.000400444
0.000262503
0.000311407
5.21379e-06
5.21348e-06
5.21318e-06
5.21289e-06
5.21261e-06
5.21235e-06
5.2121e-06
5.21187e-06
5.21164e-06
5.21144e-06
5.21125e-06
5.21108e-06
5.21093e-06
5.21079e-06
5.21067e-06
5.21057e-06
5.21049e-06
5.21042e-06
5.21038e-06
5.21035e-06
5.21034e-06
5.21036e-06
5.2104e-06
5.21047e-06
5.21058e-06
5.21072e-06
5.21089e-06
5.21108e-06
5.21125e-06
5.21142e-06
5.21157e-06
5.2117e-06
5.21181e-06
5.2119e-06
5.21195e-06
5.21195e-06
5.21191e-06
5.21181e-06
5.21164e-06
5.21139e-06
5.21105e-06
5.21059e-06
5.21e-06
5.20926e-06
5.20835e-06
5.20722e-06
0.00582449
0.00531378
0.00474363
0.00411493
0.00344792
0.00280097
0.00225558
0.00180794
0.00144254
0.00114204
0.000895261
0.000704505
0.000567749
0.000428075
0.000273508
0.000322771
5.21415e-06
5.21382e-06
5.21351e-06
5.2132e-06
5.21291e-06
5.21263e-06
5.21237e-06
5.21212e-06
5.21188e-06
5.21166e-06
5.21145e-06
5.21126e-06
5.21109e-06
5.21094e-06
5.21081e-06
5.21069e-06
5.21059e-06
5.2105e-06
5.21043e-06
5.21039e-06
5.21036e-06
5.21035e-06
5.21036e-06
5.2104e-06
5.21048e-06
5.21058e-06
5.21072e-06
5.21089e-06
5.21108e-06
5.21126e-06
5.21142e-06
5.21158e-06
5.21171e-06
5.21183e-06
5.21191e-06
5.21197e-06
5.21198e-06
5.21194e-06
5.21185e-06
5.21168e-06
5.21144e-06
5.21109e-06
5.21064e-06
5.21005e-06
5.2093e-06
5.20838e-06
5.20724e-06
0.0062313
0.00573603
0.00518717
0.00458553
0.00394601
0.00330097
0.00270172
0.00220455
0.00179568
0.00145531
0.00117197
0.000938571
0.000763807
0.000614861
0.000455854
0.000284223
0.000333623
5.21453e-06
5.21418e-06
5.21385e-06
5.21353e-06
5.21322e-06
5.21293e-06
5.21265e-06
5.21238e-06
5.21213e-06
5.21189e-06
5.21167e-06
5.21147e-06
5.21128e-06
5.21111e-06
5.21096e-06
5.21082e-06
5.2107e-06
5.2106e-06
5.21051e-06
5.21045e-06
5.2104e-06
5.21036e-06
5.21035e-06
5.21037e-06
5.21041e-06
5.21048e-06
5.21058e-06
5.21072e-06
5.21088e-06
5.21108e-06
5.21126e-06
5.21143e-06
5.21158e-06
5.21172e-06
5.21184e-06
5.21193e-06
5.21199e-06
5.21201e-06
5.21197e-06
5.21188e-06
5.21172e-06
5.21148e-06
5.21114e-06
5.21069e-06
5.2101e-06
5.20935e-06
5.20842e-06
5.20725e-06
0.00662175
0.00614004
0.00560881
0.0050291
0.00441375
0.00378886
0.00318665
0.00263995
0.00218816
0.00180791
0.00148924
0.00122112
0.00100609
0.000832573
0.0006612
0.000482567
0.000294301
0.000343933
5.21492e-06
5.21456e-06
5.21421e-06
5.21387e-06
5.21355e-06
5.21324e-06
5.21295e-06
5.21267e-06
5.2124e-06
5.21215e-06
5.21191e-06
5.21168e-06
5.21148e-06
5.21129e-06
5.21112e-06
5.21097e-06
5.21083e-06
5.21072e-06
5.21061e-06
5.21053e-06
5.21046e-06
5.21041e-06
5.21037e-06
5.21036e-06
5.21037e-06
5.21041e-06
5.21048e-06
5.21058e-06
5.21071e-06
5.21088e-06
5.21108e-06
5.21126e-06
5.21143e-06
5.21159e-06
5.21173e-06
5.21185e-06
5.21195e-06
5.21201e-06
5.21203e-06
5.21201e-06
5.21192e-06
5.21176e-06
5.21153e-06
5.21119e-06
5.21074e-06
5.21015e-06
5.2094e-06
5.20846e-06
5.20727e-06
0.00699386
0.00652479
0.00600876
0.00544723
0.00485174
0.00424568
0.00365749
0.00310988
0.00261971
0.00219977
0.00184611
0.0015457
0.00129756
0.00109157
0.0008973
0.000703198
0.000506478
0.000303403
0.000353645
5.21532e-06
5.21495e-06
5.21458e-06
5.21423e-06
5.2139e-06
5.21357e-06
5.21326e-06
5.21297e-06
5.21268e-06
5.21241e-06
5.21216e-06
5.21192e-06
5.2117e-06
5.21149e-06
5.21131e-06
5.21114e-06
5.21099e-06
5.21085e-06
5.21073e-06
5.21063e-06
5.21054e-06
5.21047e-06
5.21042e-06
5.21038e-06
5.21037e-06
5.21038e-06
5.21042e-06
5.21048e-06
5.21058e-06
5.21071e-06
5.21088e-06
5.21107e-06
5.21126e-06
5.21143e-06
5.21159e-06
5.21174e-06
5.21187e-06
5.21196e-06
5.21203e-06
5.21206e-06
5.21204e-06
5.21196e-06
5.21181e-06
5.21157e-06
5.21124e-06
5.21079e-06
5.2102e-06
5.20945e-06
5.2085e-06
5.20729e-06
0.00734518
0.00688854
0.00638636
0.00584055
0.00526183
0.00467167
0.00409689
0.00355868
0.00306825
0.00262911
0.00224184
0.00190979
0.00163065
0.00139059
0.00116722
0.000950883
0.000738132
0.00052674
0.000311397
0.000362676
5.21575e-06
5.21536e-06
5.21498e-06
5.21461e-06
5.21426e-06
5.21392e-06
5.21359e-06
5.21328e-06
5.21298e-06
5.2127e-06
5.21243e-06
5.21217e-06
5.21193e-06
5.21171e-06
5.21151e-06
5.21132e-06
5.21115e-06
5.211e-06
5.21087e-06
5.21075e-06
5.21064e-06
5.21055e-06
5.21048e-06
5.21043e-06
5.21039e-06
5.21038e-06
5.21039e-06
5.21042e-06
5.21049e-06
5.21058e-06
5.21071e-06
5.21087e-06
5.21107e-06
5.21126e-06
5.21143e-06
5.2116e-06
5.21175e-06
5.21188e-06
5.21198e-06
5.21205e-06
5.21209e-06
5.21207e-06
5.21199e-06
5.21185e-06
5.21162e-06
5.21129e-06
5.21085e-06
5.21026e-06
5.2095e-06
5.20855e-06
5.20732e-06
0.00767268
0.00722893
0.00674014
0.00620873
0.00564489
0.00506872
0.00450552
0.00397594
0.00348978
0.00304802
0.00264946
0.00229604
0.00198741
0.00171444
0.00146181
0.00122157
0.000990184
0.000764865
0.000543215
0.000318238
0.000371046
5.21619e-06
5.21578e-06
5.21539e-06
5.215e-06
5.21464e-06
5.21428e-06
5.21394e-06
5.21361e-06
5.2133e-06
5.213e-06
5.21271e-06
5.21244e-06
5.21219e-06
5.21195e-06
5.21173e-06
5.21153e-06
5.21134e-06
5.21117e-06
5.21102e-06
5.21088e-06
5.21076e-06
5.21066e-06
5.21057e-06
5.21049e-06
5.21044e-06
5.2104e-06
5.21039e-06
5.21039e-06
5.21043e-06
5.21049e-06
5.21058e-06
5.21071e-06
5.21087e-06
5.21107e-06
5.21126e-06
5.21144e-06
5.2116e-06
5.21176e-06
5.21189e-06
5.212e-06
5.21207e-06
5.21211e-06
5.2121e-06
5.21203e-06
5.21189e-06
5.21167e-06
5.21135e-06
5.21091e-06
5.21032e-06
5.20956e-06
5.2086e-06
5.20734e-06
0.00797279
0.00754302
0.00706789
0.00655044
0.00600065
0.00543751
0.00488501
0.00436294
0.00388044
0.00343768
0.00303264
0.00266566
0.00233628
0.00203847
0.0017622
0.00150143
0.00125327
0.00101491
0.000783432
0.000555749
0.000324035
0.00037881
5.21665e-06
5.21623e-06
5.21581e-06
5.21541e-06
5.21503e-06
5.21466e-06
5.2143e-06
5.21396e-06
5.21363e-06
5.21332e-06
5.21302e-06
5.21273e-06
5.21246e-06
5.2122e-06
5.21196e-06
5.21174e-06
5.21154e-06
5.21136e-06
5.21119e-06
5.21104e-06
5.2109e-06
5.21078e-06
5.21067e-06
5.21058e-06
5.21051e-06
5.21045e-06
5.21041e-06
5.21039e-06
5.2104e-06
5.21043e-06
5.21049e-06
5.21058e-06
5.2107e-06
5.21086e-06
5.21106e-06
5.21125e-06
5.21144e-06
5.21161e-06
5.21177e-06
5.2119e-06
5.21201e-06
5.2121e-06
5.21214e-06
5.21213e-06
5.21207e-06
5.21194e-06
5.21172e-06
5.2114e-06
5.21097e-06
5.21038e-06
5.20962e-06
5.20865e-06
5.20737e-06
0.00824134
0.00782726
0.00736674
0.00686359
0.00632783
0.00577759
0.00523562
0.00472071
0.00424142
0.00379747
0.00338658
0.00300845
0.00266296
0.00234622
0.00205166
0.00177483
0.00151345
0.00126511
0.0010267
0.000794493
0.000564764
0.000328958
0.000386005
5.21713e-06
5.21669e-06
5.21626e-06
5.21584e-06
5.21544e-06
5.21505e-06
5.21468e-06
5.21432e-06
5.21398e-06
5.21365e-06
5.21333e-06
5.21303e-06
5.21274e-06
5.21247e-06
5.21222e-06
5.21198e-06
5.21176e-06
5.21156e-06
5.21138e-06
5.21121e-06
5.21105e-06
5.21092e-06
5.2108e-06
5.21069e-06
5.2106e-06
5.21052e-06
5.21046e-06
5.21042e-06
5.2104e-06
5.21041e-06
5.21044e-06
5.21049e-06
5.21058e-06
5.2107e-06
5.21086e-06
5.21106e-06
5.21125e-06
5.21144e-06
5.21161e-06
5.21177e-06
5.21191e-06
5.21203e-06
5.21212e-06
5.21217e-06
5.21217e-06
5.21211e-06
5.21198e-06
5.21177e-06
5.21146e-06
5.21103e-06
5.21045e-06
5.20969e-06
5.20871e-06
5.2074e-06
0.00847352
0.00807744
0.00763314
0.00714529
0.00662421
0.00608739
0.00555638
0.00504885
0.00457274
0.00412764
0.00371119
0.00332311
0.00296389
0.00263144
0.00232171
0.00203167
0.00175974
0.00150393
0.00126138
0.00102808
0.000799496
0.000570875
0.000333241
0.000392867
5.21762e-06
5.21716e-06
5.21672e-06
5.21629e-06
5.21587e-06
5.21547e-06
5.21508e-06
5.2147e-06
5.21434e-06
5.214e-06
5.21367e-06
5.21335e-06
5.21305e-06
5.21276e-06
5.21249e-06
5.21223e-06
5.212e-06
5.21178e-06
5.21158e-06
5.21139e-06
5.21123e-06
5.21107e-06
5.21094e-06
5.21081e-06
5.21071e-06
5.21061e-06
5.21054e-06
5.21048e-06
5.21043e-06
5.21041e-06
5.21041e-06
5.21044e-06
5.2105e-06
5.21058e-06
5.2107e-06
5.21086e-06
5.21106e-06
5.21125e-06
5.21144e-06
5.21162e-06
5.21178e-06
5.21192e-06
5.21205e-06
5.21214e-06
5.21219e-06
5.2122e-06
5.21215e-06
5.21203e-06
5.21183e-06
5.21152e-06
5.2111e-06
5.21052e-06
5.20976e-06
5.20877e-06
5.20744e-06
0.00866385
0.00828865
0.00786281
0.00739194
0.00688679
0.0063644
0.00584517
0.00534564
0.00487304
0.00442701
0.00400545
0.00360839
0.00323705
0.002891
0.00256807
0.00226658
0.00198571
0.00172397
0.00147885
0.00124644
0.00102199
0.000799924
0.00057469
0.000337005
0.000399462
5.21813e-06
5.21766e-06
5.2172e-06
5.21675e-06
5.21632e-06
5.2159e-06
5.21549e-06
5.2151e-06
5.21472e-06
5.21436e-06
5.21401e-06
5.21368e-06
5.21336e-06
5.21306e-06
5.21277e-06
5.2125e-06
5.21225e-06
5.21201e-06
5.2118e-06
5.2116e-06
5.21141e-06
5.21125e-06
5.21109e-06
5.21095e-06
5.21083e-06
5.21072e-06
5.21063e-06
5.21055e-06
5.21049e-06
5.21045e-06
5.21042e-06
5.21042e-06
5.21045e-06
5.2105e-06
5.21058e-06
5.2107e-06
5.21085e-06
5.21105e-06
5.21125e-06
5.21144e-06
5.21162e-06
5.21179e-06
5.21194e-06
5.21206e-06
5.21216e-06
5.21222e-06
5.21223e-06
5.21219e-06
5.21208e-06
5.21188e-06
5.21158e-06
5.21117e-06
5.21059e-06
5.20983e-06
5.20883e-06
5.20748e-06
0.00880615
0.00845532
0.00805077
0.00759913
0.0071117
0.00660518
0.00609887
0.00560813
0.00513964
0.0046931
0.00426696
0.0038618
0.00347971
0.00312166
0.00278715
0.00247569
0.00218718
0.00192068
0.00167399
0.0014434
0.00122429
0.00101093
0.00079718
0.00057675
0.000340485
0.000405795
5.21866e-06
5.21817e-06
5.21769e-06
5.21723e-06
5.21678e-06
5.21634e-06
5.21592e-06
5.21551e-06
5.21512e-06
5.21474e-06
5.21438e-06
5.21403e-06
5.2137e-06
5.21338e-06
5.21307e-06
5.21279e-06
5.21252e-06
5.21227e-06
5.21203e-06
5.21182e-06
5.21162e-06
5.21143e-06
5.21127e-06
5.21111e-06
5.21097e-06
5.21085e-06
5.21074e-06
5.21064e-06
5.21057e-06
5.2105e-06
5.21046e-06
5.21043e-06
5.21043e-06
5.21045e-06
5.2105e-06
5.21058e-06
5.21069e-06
5.21085e-06
5.21105e-06
5.21125e-06
5.21144e-06
5.21162e-06
5.21179e-06
5.21195e-06
5.21208e-06
5.21218e-06
5.21225e-06
5.21227e-06
5.21223e-06
5.21213e-06
5.21194e-06
5.21165e-06
5.21124e-06
5.21067e-06
5.20991e-06
5.2089e-06
5.20752e-06
0.00889341
0.00857102
0.00819123
0.00776164
0.00729418
0.00680532
0.00631332
0.00583238
0.00536868
0.0049222
0.0044921
0.00407974
0.00368816
0.00331958
0.00297499
0.00265502
0.00236029
0.00209032
0.00184317
0.0016153
0.00140211
0.00119801
0.000996937
0.000792421
0.000577937
0.000343809
0.000411944
5.21921e-06
5.21871e-06
5.21821e-06
5.21773e-06
5.21726e-06
5.21681e-06
5.21637e-06
5.21594e-06
5.21553e-06
5.21514e-06
5.21476e-06
5.2144e-06
5.21405e-06
5.21371e-06
5.21339e-06
5.21309e-06
5.2128e-06
5.21254e-06
5.21228e-06
5.21205e-06
5.21184e-06
5.21164e-06
5.21146e-06
5.21129e-06
5.21113e-06
5.21099e-06
5.21087e-06
5.21076e-06
5.21066e-06
5.21058e-06
5.21052e-06
5.21047e-06
5.21044e-06
5.21044e-06
5.21046e-06
5.2105e-06
5.21058e-06
5.21069e-06
5.21085e-06
5.21104e-06
5.21124e-06
5.21144e-06
5.21162e-06
5.2118e-06
5.21196e-06
5.21209e-06
5.2122e-06
5.21227e-06
5.2123e-06
5.21227e-06
5.21218e-06
5.212e-06
5.21172e-06
5.21131e-06
5.21075e-06
5.20999e-06
5.20898e-06
5.20757e-06
0.00891785
0.00862852
0.00827747
0.00787333
0.00742854
0.00695944
0.00648334
0.00601335
0.00555524
0.00510949
0.00467613
0.00425755
0.00385775
0.00348014
0.00312706
0.00280023
0.00250094
0.00222912
0.00198299
0.00175904
0.00155262
0.00135819
0.00116983
0.000981422
0.000786561
0.000578283
0.000347135
0.000418089
5.21978e-06
5.21926e-06
5.21874e-06
5.21824e-06
5.21776e-06
5.21729e-06
5.21683e-06
5.21639e-06
5.21596e-06
5.21555e-06
5.21516e-06
5.21478e-06
5.21441e-06
5.21406e-06
5.21373e-06
5.21341e-06
5.2131e-06
5.21282e-06
5.21255e-06
5.2123e-06
5.21207e-06
5.21186e-06
5.21166e-06
5.21148e-06
5.21131e-06
5.21116e-06
5.21102e-06
5.21089e-06
5.21078e-06
5.21068e-06
5.2106e-06
5.21053e-06
5.21048e-06
5.21045e-06
5.21045e-06
5.21046e-06
5.21051e-06
5.21058e-06
5.21069e-06
5.21084e-06
5.21104e-06
5.21124e-06
5.21144e-06
5.21163e-06
5.2118e-06
5.21197e-06
5.21211e-06
5.21222e-06
5.2123e-06
5.21234e-06
5.21231e-06
5.21223e-06
5.21206e-06
5.21179e-06
5.21139e-06
5.21084e-06
5.21008e-06
5.20906e-06
5.20762e-06
0.00887076
0.00861969
0.00830194
0.00792705
0.00750807
0.00706114
0.00660269
0.00614487
0.00569329
0.00524908
0.00481338
0.00438965
0.00398298
0.00359799
0.00323825
0.00290651
0.00260469
0.00233306
0.00208987
0.00187152
0.00167319
0.00148924
0.00131385
0.00114116
0.000965293
0.000779928
0.000578143
0.000350586
0.000424411
5.22037e-06
5.21983e-06
5.2193e-06
5.21878e-06
5.21828e-06
5.21779e-06
5.21731e-06
5.21685e-06
5.21641e-06
5.21598e-06
5.21557e-06
5.21517e-06
5.21479e-06
5.21443e-06
5.21408e-06
5.21374e-06
5.21342e-06
5.21312e-06
5.21284e-06
5.21257e-06
5.21232e-06
5.21209e-06
5.21188e-06
5.21168e-06
5.2115e-06
5.21133e-06
5.21118e-06
5.21104e-06
5.21091e-06
5.2108e-06
5.2107e-06
5.21061e-06
5.21055e-06
5.2105e-06
5.21046e-06
5.21046e-06
5.21047e-06
5.21051e-06
5.21058e-06
5.21069e-06
5.21084e-06
5.21103e-06
5.21123e-06
5.21143e-06
5.21163e-06
5.21181e-06
5.21198e-06
5.21212e-06
5.21224e-06
5.21233e-06
5.21237e-06
5.21236e-06
5.21228e-06
5.21212e-06
5.21186e-06
5.21147e-06
5.21093e-06
5.21018e-06
5.20915e-06
5.20768e-06
0.00874258
0.00853545
0.00825602
0.00791465
0.00752492
0.00710282
0.00666394
0.00621971
0.00577574
0.00533404
0.00489706
0.0044695
0.00405759
0.00366714
0.00330291
0.00296862
0.00266675
0.00239781
0.00215998
0.00194942
0.001761
0.00158888
0.00142721
0.00127032
0.00111275
0.000948943
0.000772947
0.000577691
0.000354203
0.000430851
5.22098e-06
5.22042e-06
5.21987e-06
5.21933e-06
5.21881e-06
5.21831e-06
5.21781e-06
5.21734e-06
5.21688e-06
5.21643e-06
5.216e-06
5.21559e-06
5.21519e-06
5.21481e-06
5.21444e-06
5.21409e-06
5.21376e-06
5.21344e-06
5.21314e-06
5.21286e-06
5.21259e-06
5.21235e-06
5.21212e-06
5.2119e-06
5.21171e-06
5.21152e-06
5.21136e-06
5.2112e-06
5.21106e-06
5.21093e-06
5.21082e-06
5.21072e-06
5.21063e-06
5.21056e-06
5.21051e-06
5.21048e-06
5.21046e-06
5.21048e-06
5.21051e-06
5.21058e-06
5.21069e-06
5.21083e-06
5.21102e-06
5.21123e-06
5.21143e-06
5.21163e-06
5.21181e-06
5.21198e-06
5.21214e-06
5.21226e-06
5.21235e-06
5.2124e-06
5.2124e-06
5.21233e-06
5.21218e-06
5.21193e-06
5.21156e-06
5.21102e-06
5.21028e-06
5.20925e-06
5.20774e-06
0.00852281
0.00836572
0.00813002
0.00782682
0.00747012
0.0070757
0.0066585
0.00622941
0.00579434
0.00535641
0.00491951
0.00448974
0.00407453
0.00368095
0.00331487
0.00298091
0.00268205
0.00241889
0.00218937
0.00198926
0.00181303
0.00165458
0.00150792
0.00136749
0.00122813
0.00108487
0.00093268
0.000765821
0.00057736
0.000358148
0.000437312
5.2216e-06
5.22102e-06
5.22046e-06
5.21991e-06
5.21937e-06
5.21884e-06
5.21833e-06
5.21784e-06
5.21736e-06
5.2169e-06
5.21645e-06
5.21602e-06
5.21561e-06
5.21521e-06
5.21482e-06
5.21446e-06
5.21411e-06
5.21377e-06
5.21345e-06
5.21316e-06
5.21288e-06
5.21261e-06
5.21237e-06
5.21214e-06
5.21193e-06
5.21173e-06
5.21155e-06
5.21138e-06
5.21123e-06
5.21108e-06
5.21095e-06
5.21084e-06
5.21074e-06
5.21065e-06
5.21058e-06
5.21052e-06
5.21049e-06
5.21047e-06
5.21048e-06
5.21052e-06
5.21058e-06
5.21069e-06
5.21083e-06
5.21101e-06
5.21122e-06
5.21143e-06
5.21163e-06
5.21182e-06
5.21199e-06
5.21215e-06
5.21228e-06
5.21238e-06
5.21244e-06
5.21244e-06
5.21239e-06
5.21225e-06
5.21201e-06
5.21164e-06
5.21112e-06
5.21038e-06
5.20936e-06
5.20782e-06
0.00820016
0.00809948
0.00791326
0.00765314
0.00733346
0.0069698
0.00657655
0.00616441
0.00573981
0.00530724
0.00487217
0.00444225
0.0040262
0.00363232
0.00326762
0.00293753
0.00264537
0.00239166
0.00217394
0.00198747
0.0018262
0.00168368
0.00155377
0.00143094
0.00131029
0.0011873
0.00105762
0.000916603
0.000758881
0.000577298
0.000362596
0.000443864
5.22225e-06
5.22165e-06
5.22107e-06
5.2205e-06
5.21994e-06
5.2194e-06
5.21887e-06
5.21836e-06
5.21786e-06
5.21738e-06
5.21692e-06
5.21647e-06
5.21604e-06
5.21562e-06
5.21522e-06
5.21484e-06