/*--------------------------------*- C++ -*----------------------------------*\
  =========                 |
  \\      /  F ield         | OpenFOAM: The Open Source CFD Toolbox
   \\    /   O peration     | Website:  https://openfoam.org
    \\  /    A nd           | Version:  7
     \\/     M anipulation  |
\*---------------------------------------------------------------------------*/
FoamFile
{
    version     2.0;
    format      ascii;
    class       volScalarField;
    location    "600";
    object      nuTilda;
}
// * * * * * * * * * * * * * * * * * * * * * * * * * * * * * * * * * * * * * //

dimensions      [0 2 -1 0 0 0 0];

internalField   nonuniform List<scalar> 
23064
(
3.43217e-05
3.43231e-05
3.43217e-05
3.43244e-05
3.43232e-05
3.43217e-05
3.43255e-05
3.43244e-05
3.43232e-05
3.43218e-05
3.43265e-05
3.43255e-05
3.43244e-05
3.43232e-05
3.43218e-05
3.43273e-05
3.43265e-05
3.43256e-05
3.43245e-05
3.43232e-05
3.43218e-05
3.4328e-05
3.43273e-05
3.43265e-05
3.43256e-05
3.43245e-05
3.43232e-05
3.43218e-05
3.43286e-05
3.4328e-05
3.43274e-05
3.43266e-05
3.43256e-05
3.43245e-05
3.43232e-05
3.43218e-05
3.4329e-05
3.43286e-05
3.43281e-05
3.43274e-05
3.43266e-05
3.43257e-05
3.43245e-05
3.43233e-05
3.43218e-05
3.43294e-05
3.43291e-05
3.43286e-05
3.43281e-05
3.43275e-05
3.43267e-05
3.43257e-05
3.43246e-05
3.43233e-05
3.43218e-05
3.43297e-05
3.43294e-05
3.43291e-05
3.43287e-05
3.43282e-05
3.43275e-05
3.43267e-05
3.43257e-05
3.43246e-05
3.43233e-05
3.43218e-05
3.43298e-05
3.43297e-05
3.43295e-05
3.43292e-05
3.43287e-05
3.43282e-05
3.43275e-05
3.43267e-05
3.43258e-05
3.43246e-05
3.43233e-05
3.43218e-05
3.433e-05
3.43299e-05
3.43297e-05
3.43295e-05
3.43292e-05
3.43288e-05
3.43282e-05
3.43276e-05
3.43268e-05
3.43258e-05
3.43247e-05
3.43233e-05
3.43218e-05
3.433e-05
3.433e-05
3.43299e-05
3.43298e-05
3.43296e-05
3.43292e-05
3.43288e-05
3.43283e-05
3.43276e-05
3.43268e-05
3.43258e-05
3.43247e-05
3.43233e-05
3.43218e-05
3.433e-05
3.433e-05
3.433e-05
3.433e-05
3.43298e-05
3.43296e-05
3.43293e-05
3.43289e-05
3.43283e-05
3.43277e-05
3.43269e-05
3.43259e-05
3.43247e-05
3.43234e-05
3.43218e-05
3.43299e-05
3.433e-05
3.43301e-05
3.43301e-05
3.433e-05
3.43299e-05
3.43297e-05
3.43293e-05
3.43289e-05
3.43284e-05
3.43277e-05
3.43269e-05
3.43259e-05
3.43247e-05
3.43234e-05
3.43218e-05
3.43298e-05
3.433e-05
3.433e-05
3.43301e-05
3.43301e-05
3.433e-05
3.43299e-05
3.43297e-05
3.43294e-05
3.4329e-05
3.43284e-05
3.43278e-05
3.43269e-05
3.43259e-05
3.43248e-05
3.43234e-05
3.43218e-05
3.43297e-05
3.43298e-05
3.433e-05
3.43301e-05
3.43301e-05
3.43301e-05
3.43301e-05
3.433e-05
3.43297e-05
3.43294e-05
3.4329e-05
3.43285e-05
3.43278e-05
3.4327e-05
3.4326e-05
3.43248e-05
3.43234e-05
3.43218e-05
3.43295e-05
3.43297e-05
3.43299e-05
3.433e-05
3.43301e-05
3.43302e-05
3.43302e-05
3.43301e-05
3.433e-05
3.43298e-05
3.43295e-05
3.43291e-05
3.43285e-05
3.43278e-05
3.4327e-05
3.4326e-05
3.43248e-05
3.43234e-05
3.43218e-05
3.43293e-05
3.43295e-05
3.43297e-05
3.43299e-05
3.433e-05
3.43301e-05
3.43302e-05
3.43302e-05
3.43302e-05
3.433e-05
3.43298e-05
3.43295e-05
3.43291e-05
3.43286e-05
3.43279e-05
3.43271e-05
3.4326e-05
3.43248e-05
3.43234e-05
3.43219e-05
3.4329e-05
3.43293e-05
3.43295e-05
3.43297e-05
3.43299e-05
3.433e-05
3.43302e-05
3.43302e-05
3.43303e-05
3.43302e-05
3.43301e-05
3.43299e-05
3.43296e-05
3.43292e-05
3.43286e-05
3.43279e-05
3.43271e-05
3.43261e-05
3.43249e-05
3.43235e-05
3.43219e-05
3.43287e-05
3.4329e-05
3.43293e-05
3.43295e-05
3.43297e-05
3.43299e-05
3.43301e-05
3.43302e-05
3.43303e-05
3.43303e-05
3.43302e-05
3.43301e-05
3.43299e-05
3.43296e-05
3.43292e-05
3.43287e-05
3.4328e-05
3.43271e-05
3.43261e-05
3.43249e-05
3.43235e-05
3.43219e-05
3.43285e-05
3.43287e-05
3.4329e-05
3.43293e-05
3.43295e-05
3.43297e-05
3.43299e-05
3.43301e-05
3.43302e-05
3.43303e-05
3.43303e-05
3.43303e-05
3.43302e-05
3.433e-05
3.43297e-05
3.43293e-05
3.43287e-05
3.4328e-05
3.43272e-05
3.43262e-05
3.43249e-05
3.43235e-05
3.43219e-05
3.43283e-05
3.43285e-05
3.43287e-05
3.4329e-05
3.43293e-05
3.43295e-05
3.43297e-05
3.43299e-05
3.43301e-05
3.43302e-05
3.43303e-05
3.43304e-05
3.43303e-05
3.43302e-05
3.433e-05
3.43297e-05
3.43293e-05
3.43288e-05
3.43281e-05
3.43272e-05
3.43262e-05
3.4325e-05
3.43235e-05
3.43219e-05
3.43282e-05
3.43283e-05
3.43285e-05
3.43287e-05
3.4329e-05
3.43292e-05
3.43295e-05
3.43297e-05
3.43299e-05
3.43301e-05
3.43303e-05
3.43304e-05
3.43304e-05
3.43304e-05
3.43303e-05
3.43301e-05
3.43298e-05
3.43294e-05
3.43288e-05
3.43281e-05
3.43273e-05
3.43262e-05
3.4325e-05
3.43236e-05
3.43219e-05
3.43281e-05
3.43281e-05
3.43283e-05
3.43285e-05
3.43287e-05
3.4329e-05
3.43292e-05
3.43295e-05
3.43297e-05
3.433e-05
3.43302e-05
3.43303e-05
3.43304e-05
3.43304e-05
3.43304e-05
3.43303e-05
3.43301e-05
3.43298e-05
3.43294e-05
3.43289e-05
3.43282e-05
3.43273e-05
3.43263e-05
3.4325e-05
3.43236e-05
3.43219e-05
3.4328e-05
3.43281e-05
3.43281e-05
3.43283e-05
3.43284e-05
3.43287e-05
3.4329e-05
3.43292e-05
3.43295e-05
3.43298e-05
3.433e-05
3.43302e-05
3.43303e-05
3.43304e-05
3.43305e-05
3.43304e-05
3.43303e-05
3.43302e-05
3.43299e-05
3.43295e-05
3.43289e-05
3.43282e-05
3.43274e-05
3.43263e-05
3.43251e-05
3.43236e-05
3.43219e-05
3.4328e-05
3.4328e-05
3.43281e-05
3.43281e-05
3.43283e-05
3.43284e-05
3.43287e-05
3.43289e-05
3.43292e-05
3.43295e-05
3.43298e-05
3.433e-05
3.43302e-05
3.43304e-05
3.43305e-05
3.43305e-05
3.43305e-05
3.43304e-05
3.43302e-05
3.43299e-05
3.43295e-05
3.4329e-05
3.43283e-05
3.43274e-05
3.43264e-05
3.43251e-05
3.43236e-05
3.43219e-05
3.43281e-05
3.4328e-05
3.4328e-05
3.43281e-05
3.43281e-05
3.43283e-05
3.43284e-05
3.43287e-05
3.43289e-05
3.43292e-05
3.43295e-05
3.43298e-05
3.433e-05
3.43302e-05
3.43304e-05
3.43305e-05
3.43305e-05
3.43305e-05
3.43304e-05
3.43302e-05
3.433e-05
3.43296e-05
3.4329e-05
3.43283e-05
3.43275e-05
3.43264e-05
3.43251e-05
3.43237e-05
3.43219e-05
3.43282e-05
3.43281e-05
3.4328e-05
3.4328e-05
3.43281e-05
3.43281e-05
3.43283e-05
3.43284e-05
3.43287e-05
3.43289e-05
3.43292e-05
3.43295e-05
3.43298e-05
3.433e-05
3.43302e-05
3.43304e-05
3.43305e-05
3.43306e-05
3.43306e-05
3.43305e-05
3.43303e-05
3.433e-05
3.43296e-05
3.43291e-05
3.43284e-05
3.43275e-05
3.43265e-05
3.43252e-05
3.43237e-05
3.43219e-05
3.43283e-05
3.43282e-05
3.43281e-05
3.4328e-05
3.4328e-05
3.43281e-05
3.43281e-05
3.43282e-05
3.43284e-05
3.43286e-05
3.43289e-05
3.43292e-05
3.43295e-05
3.43298e-05
3.43301e-05
3.43303e-05
3.43304e-05
3.43305e-05
3.43306e-05
3.43306e-05
3.43305e-05
3.43303e-05
3.43301e-05
3.43297e-05
3.43291e-05
3.43284e-05
3.43276e-05
3.43265e-05
3.43252e-05
3.43237e-05
3.43219e-05
0.000151382
3.43285e-05
3.43283e-05
3.43282e-05
3.43281e-05
3.43281e-05
3.4328e-05
3.43281e-05
3.43281e-05
3.43282e-05
3.43284e-05
3.43286e-05
3.43289e-05
3.43292e-05
3.43295e-05
3.43298e-05
3.43301e-05
3.43303e-05
3.43305e-05
3.43306e-05
3.43306e-05
3.43306e-05
3.43306e-05
3.43304e-05
3.43301e-05
3.43297e-05
3.43292e-05
3.43285e-05
3.43276e-05
3.43265e-05
3.43253e-05
3.43237e-05
3.4322e-05
0.00019596
0.000163762
3.43287e-05
3.43285e-05
3.43283e-05
3.43282e-05
3.43281e-05
3.43281e-05
3.4328e-05
3.43281e-05
3.43281e-05
3.43282e-05
3.43284e-05
3.43286e-05
3.43289e-05
3.43292e-05
3.43295e-05
3.43298e-05
3.43301e-05
3.43303e-05
3.43305e-05
3.43306e-05
3.43307e-05
3.43307e-05
3.43306e-05
3.43304e-05
3.43302e-05
3.43298e-05
3.43292e-05
3.43285e-05
3.43277e-05
3.43266e-05
3.43253e-05
3.43238e-05
3.4322e-05
0.000370989
0.000186168
0.000177281
3.4329e-05
3.43287e-05
3.43285e-05
3.43284e-05
3.43282e-05
3.43281e-05
3.43281e-05
3.4328e-05
3.43281e-05
3.43281e-05
3.43282e-05
3.43284e-05
3.43286e-05
3.43289e-05
3.43292e-05
3.43296e-05
3.43298e-05
3.43301e-05
3.43303e-05
3.43305e-05
3.43306e-05
3.43307e-05
3.43307e-05
3.43307e-05
3.43305e-05
3.43302e-05
3.43298e-05
3.43293e-05
3.43286e-05
3.43277e-05
3.43267e-05
3.43253e-05
3.43238e-05
3.4322e-05
0.000621799
0.000335412
0.000182764
0.000190355
3.43293e-05
3.4329e-05
3.43288e-05
3.43285e-05
3.43284e-05
3.43282e-05
3.43281e-05
3.43281e-05
3.4328e-05
3.43281e-05
3.43281e-05
3.43282e-05
3.43284e-05
3.43286e-05
3.43289e-05
3.43292e-05
3.43296e-05
3.43298e-05
3.43301e-05
3.43303e-05
3.43305e-05
3.43307e-05
3.43307e-05
3.43308e-05
3.43307e-05
3.43305e-05
3.43303e-05
3.43299e-05
3.43294e-05
3.43287e-05
3.43278e-05
3.43267e-05
3.43254e-05
3.43238e-05
3.4322e-05
0.000925451
0.000564086
0.000307665
0.000183497
0.000202563
3.43296e-05
3.43293e-05
3.4329e-05
3.43288e-05
3.43286e-05
3.43284e-05
3.43282e-05
3.43281e-05
3.43281e-05
3.43281e-05
3.43281e-05
3.43281e-05
3.43282e-05
3.43284e-05
3.43286e-05
3.43289e-05
3.43292e-05
3.43296e-05
3.43299e-05
3.43301e-05
3.43304e-05
3.43305e-05
3.43307e-05
3.43308e-05
3.43308e-05
3.43307e-05
3.43306e-05
3.43303e-05
3.43299e-05
3.43294e-05
3.43287e-05
3.43278e-05
3.43268e-05
3.43254e-05
3.43239e-05
3.4322e-05
0.00127771
0.000845184
0.000516125
0.000287735
0.000187245
0.000214267
3.43299e-05
3.43296e-05
3.43293e-05
3.4329e-05
3.43288e-05
3.43286e-05
3.43284e-05
3.43283e-05
3.43282e-05
3.43281e-05
3.43281e-05
3.43281e-05
3.43281e-05
3.43282e-05
3.43284e-05
3.43286e-05
3.43289e-05
3.43292e-05
3.43296e-05
3.43299e-05
3.43301e-05
3.43304e-05
3.43306e-05
3.43307e-05
3.43308e-05
3.43308e-05
3.43308e-05
3.43306e-05
3.43304e-05
3.433e-05
3.43295e-05
3.43288e-05
3.43279e-05
3.43268e-05
3.43255e-05
3.43239e-05
3.4322e-05
0.00167637
0.00117453
0.000776321
0.000478786
0.000277532
0.000194497
0.000225413
3.43303e-05
3.433e-05
3.43296e-05
3.43293e-05
3.43291e-05
3.43288e-05
3.43286e-05
3.43284e-05
3.43283e-05
3.43282e-05
3.43281e-05
3.43281e-05
3.43281e-05
3.43281e-05
3.43282e-05
3.43284e-05
3.43286e-05
3.43289e-05
3.43292e-05
3.43296e-05
3.43299e-05
3.43301e-05
3.43304e-05
3.43306e-05
3.43308e-05
3.43308e-05
3.43309e-05
3.43308e-05
3.43307e-05
3.43304e-05
3.43301e-05
3.43295e-05
3.43289e-05
3.4328e-05
3.43269e-05
3.43255e-05
3.43239e-05
3.4322e-05
0.00211919
0.00154995
0.00108403
0.000720243
0.000452042
0.000284031
0.000202253
0.000236132
3.43308e-05
3.43304e-05
3.433e-05
3.43297e-05
3.43294e-05
3.43291e-05
3.43288e-05
3.43286e-05
3.43284e-05
3.43283e-05
3.43282e-05
3.43281e-05
3.43281e-05
3.43281e-05
3.43281e-05
3.43282e-05
3.43284e-05
3.43286e-05
3.43289e-05
3.43292e-05
3.43296e-05
3.43299e-05
3.43302e-05
3.43304e-05
3.43306e-05
3.43308e-05
3.43309e-05
3.43309e-05
3.43309e-05
3.43307e-05
3.43305e-05
3.43301e-05
3.43296e-05
3.43289e-05
3.4328e-05
3.43269e-05
3.43256e-05
3.4324e-05
3.43221e-05
0.00259692
0.00196993
0.00143729
0.00100803
0.000676963
0.000435891
0.000294475
0.000209857
0.000246842
3.43312e-05
3.43308e-05
3.43304e-05
3.433e-05
3.43297e-05
3.43294e-05
3.43291e-05
3.43288e-05
3.43286e-05
3.43284e-05
3.43283e-05
3.43282e-05
3.43281e-05
3.43281e-05
3.43281e-05
3.43281e-05
3.43282e-05
3.43284e-05
3.43286e-05
3.43289e-05
3.43292e-05
3.43296e-05
3.43299e-05
3.43302e-05
3.43304e-05
3.43306e-05
3.43308e-05
3.43309e-05
3.4331e-05
3.43309e-05
3.43308e-05
3.43306e-05
3.43302e-05
3.43297e-05
3.4329e-05
3.43281e-05
3.4327e-05
3.43256e-05
3.4324e-05
3.43221e-05
0.00308814
0.00243333
0.00183463
0.00134054
0.000947112
0.000645857
0.000427421
0.00030483
0.000217951
0.000257613
3.43317e-05
3.43313e-05
3.43308e-05
3.43304e-05
3.43301e-05
3.43297e-05
3.43294e-05
3.43291e-05
3.43289e-05
3.43286e-05
3.43285e-05
3.43283e-05
3.43282e-05
3.43281e-05
3.43281e-05
3.43281e-05
3.43281e-05
3.43282e-05
3.43284e-05
3.43286e-05
3.43289e-05
3.43292e-05
3.43296e-05
3.43299e-05
3.43302e-05
3.43304e-05
3.43307e-05
3.43308e-05
3.4331e-05
3.4331e-05
3.4331e-05
3.43308e-05
3.43306e-05
3.43303e-05
3.43297e-05
3.43291e-05
3.43282e-05
3.43271e-05
3.43257e-05
3.43241e-05
3.43221e-05
0.00357599
0.00293383
0.00227493
0.00171654
0.00126096
0.000901117
0.00062616
0.000426937
0.00031863
0.000226739
0.000268468
3.43322e-05
3.43317e-05
3.43313e-05
3.43309e-05
3.43305e-05
3.43301e-05
3.43297e-05
3.43294e-05
3.43291e-05
3.43289e-05
3.43287e-05
3.43285e-05
3.43283e-05
3.43282e-05
3.43281e-05
3.43281e-05
3.43281e-05
3.43281e-05
3.43282e-05
3.43284e-05
3.43286e-05
3.43289e-05
3.43292e-05
3.43296e-05
3.43299e-05
3.43302e-05
3.43305e-05
3.43307e-05
3.43309e-05
3.4331e-05
3.4331e-05
3.4331e-05
3.43309e-05
3.43307e-05
3.43303e-05
3.43298e-05
3.43291e-05
3.43283e-05
3.43271e-05
3.43258e-05
3.43241e-05
3.43221e-05
0.00405297
0.00344209
0.00275732
0.00213502
0.00161741
0.001199
0.000870218
0.000618329
0.000439761
0.000336527
0.000235588
0.000279572
3.43328e-05
3.43323e-05
3.43318e-05
3.43313e-05
3.43309e-05
3.43305e-05
3.43301e-05
3.43298e-05
3.43294e-05
3.43292e-05
3.43289e-05
3.43287e-05
3.43285e-05
3.43283e-05
3.43282e-05
3.43282e-05
3.43281e-05
3.43281e-05
3.43281e-05
3.43282e-05
3.43284e-05
3.43286e-05
3.43289e-05
3.43292e-05
3.43296e-05
3.43299e-05
3.43302e-05
3.43305e-05
3.43307e-05
3.43309e-05
3.4331e-05
3.43311e-05
3.43311e-05
3.4331e-05
3.43307e-05
3.43304e-05
3.43299e-05
3.43292e-05
3.43283e-05
3.43272e-05
3.43258e-05
3.43242e-05
3.43221e-05
0.00451669
0.00393779
0.00327427
0.00259526
0.00201557
0.00153857
0.00115595
0.0008551
0.000623152
0.000464594
0.000355316
0.000244968
0.000290917
3.43333e-05
3.43328e-05
3.43323e-05
3.43318e-05
3.43314e-05
3.43309e-05
3.43305e-05
3.43301e-05
3.43298e-05
3.43295e-05
3.43292e-05
3.43289e-05
3.43287e-05
3.43285e-05
3.43284e-05
3.43282e-05
3.43282e-05
3.43281e-05
3.43281e-05
3.43282e-05
3.43282e-05
3.43284e-05
3.43286e-05
3.43289e-05
3.43292e-05
3.43296e-05
3.43299e-05
3.43302e-05
3.43305e-05
3.43307e-05
3.43309e-05
3.43311e-05
3.43311e-05
3.43311e-05
3.4331e-05
3.43308e-05
3.43305e-05
3.433e-05
3.43293e-05
3.43284e-05
3.43273e-05
3.43259e-05
3.43242e-05
3.43222e-05
0.00496661
0.00441515
0.00378663
0.00309657
0.00245458
0.00191911
0.00148243
0.00113284
0.00085537
0.00063872
0.000492291
0.000376806
0.000255091
0.000302339
3.43339e-05
3.43334e-05
3.43328e-05
3.43323e-05
3.43319e-05
3.43314e-05
3.4331e-05
3.43305e-05
3.43302e-05
3.43298e-05
3.43295e-05
3.43292e-05
3.43289e-05
3.43287e-05
3.43285e-05
3.43284e-05
3.43283e-05
3.43282e-05
3.43281e-05
3.43281e-05
3.43282e-05
3.43282e-05
3.43284e-05
3.43286e-05
3.43289e-05
3.43292e-05
3.43296e-05
3.43299e-05
3.43302e-05
3.43305e-05
3.43307e-05
3.43309e-05
3.43311e-05
3.43312e-05
3.43312e-05
3.43311e-05
3.43309e-05
3.43305e-05
3.433e-05
3.43294e-05
3.43285e-05
3.43274e-05
3.4326e-05
3.43243e-05
3.43222e-05
0.00540266
0.00487362
0.00427717
0.00361626
0.00293364
0.00234004
0.00184913
0.00145062
0.00112906
0.000869006
0.000663727
0.000526314
0.000401898
0.000265758
0.000313752
3.43346e-05
3.4334e-05
3.43334e-05
3.43329e-05
3.43324e-05
3.43319e-05
3.43314e-05
3.4331e-05
3.43306e-05
3.43302e-05
3.43298e-05
3.43295e-05
3.43292e-05
3.4329e-05
3.43287e-05
3.43286e-05
3.43284e-05
3.43283e-05
3.43282e-05
3.43281e-05
3.43281e-05
3.43282e-05
3.43283e-05
3.43284e-05
3.43286e-05
3.43289e-05
3.43292e-05
3.43296e-05
3.43299e-05
3.43302e-05
3.43305e-05
3.43308e-05
3.4331e-05
3.43311e-05
3.43312e-05
3.43312e-05
3.43311e-05
3.43309e-05
3.43306e-05
3.43301e-05
3.43294e-05
3.43286e-05
3.43275e-05
3.43261e-05
3.43243e-05
3.43222e-05
0.00582449
0.00531378
0.00474364
0.00411494
0.00344794
0.00280099
0.00225563
0.001808
0.00144265
0.00114221
0.000895543
0.000704973
0.000568481
0.000429352
0.000276515
0.000324953
3.43352e-05
3.43346e-05
3.4334e-05
3.43335e-05
3.43329e-05
3.43324e-05
3.43319e-05
3.43315e-05
3.4331e-05
3.43306e-05
3.43302e-05
3.43299e-05
3.43295e-05
3.43292e-05
3.4329e-05
3.43288e-05
3.43286e-05
3.43284e-05
3.43283e-05
3.43282e-05
3.43282e-05
3.43281e-05
3.43282e-05
3.43283e-05
3.43284e-05
3.43286e-05
3.43289e-05
3.43292e-05
3.43296e-05
3.43299e-05
3.43302e-05
3.43305e-05
3.43308e-05
3.4331e-05
3.43312e-05
3.43312e-05
3.43313e-05
3.43312e-05
3.4331e-05
3.43307e-05
3.43302e-05
3.43295e-05
3.43287e-05
3.43275e-05
3.43261e-05
3.43244e-05
3.43223e-05
0.0062313
0.00573603
0.00518718
0.00458554
0.00394603
0.00330099
0.00270175
0.00220459
0.00179575
0.00145542
0.00117214
0.000938831
0.000764211
0.000615486
0.000456979
0.000287012
0.000335664
3.43359e-05
3.43353e-05
3.43347e-05
3.43341e-05
3.43335e-05
3.4333e-05
3.43325e-05
3.4332e-05
3.43315e-05
3.4331e-05
3.43306e-05
3.43302e-05
3.43299e-05
3.43296e-05
3.43293e-05
3.4329e-05
3.43288e-05
3.43286e-05
3.43284e-05
3.43283e-05
3.43282e-05
3.43282e-05
3.43282e-05
3.43282e-05
3.43283e-05
3.43284e-05
3.43286e-05
3.43289e-05
3.43292e-05
3.43296e-05
3.43299e-05
3.43302e-05
3.43305e-05
3.43308e-05
3.4331e-05
3.43312e-05
3.43313e-05
3.43313e-05
3.43312e-05
3.43311e-05
3.43307e-05
3.43303e-05
3.43296e-05
3.43288e-05
3.43276e-05
3.43262e-05
3.43245e-05
3.43223e-05
0.00662175
0.00614005
0.00560881
0.00502911
0.00441376
0.00378887
0.00318668
0.00263998
0.00218821
0.00180797
0.00148934
0.00122127
0.00100632
0.000832915
0.000661739
0.000483568
0.000296903
0.000345851
3.43367e-05
3.4336e-05
3.43354e-05
3.43347e-05
3.43341e-05
3.43336e-05
3.4333e-05
3.43325e-05
3.4332e-05
3.43315e-05
3.43311e-05
3.43306e-05
3.43303e-05
3.43299e-05
3.43296e-05
3.43293e-05
3.4329e-05
3.43288e-05
3.43286e-05
3.43285e-05
3.43283e-05
3.43282e-05
3.43282e-05
3.43282e-05
3.43282e-05
3.43283e-05
3.43284e-05
3.43286e-05
3.43289e-05
3.43292e-05
3.43296e-05
3.43299e-05
3.43302e-05
3.43305e-05
3.43308e-05
3.4331e-05
3.43312e-05
3.43313e-05
3.43314e-05
3.43313e-05
3.43311e-05
3.43308e-05
3.43304e-05
3.43297e-05
3.43289e-05
3.43277e-05
3.43263e-05
3.43245e-05
3.43223e-05
0.00699386
0.00652479
0.00600876
0.00544724
0.00485175
0.00424569
0.0036575
0.0031099
0.00261975
0.00219981
0.00184618
0.00154579
0.0012977
0.00109176
0.000897592
0.000703671
0.000507383
0.000305848
0.000355456
3.43374e-05
3.43367e-05
3.43361e-05
3.43354e-05
3.43348e-05
3.43342e-05
3.43336e-05
3.4333e-05
3.43325e-05
3.4332e-05
3.43315e-05
3.43311e-05
3.43307e-05
3.43303e-05
3.43299e-05
3.43296e-05
3.43293e-05
3.43291e-05
3.43289e-05
3.43287e-05
3.43285e-05
3.43284e-05
3.43283e-05
3.43282e-05
3.43282e-05
3.43282e-05
3.43283e-05
3.43284e-05
3.43286e-05
3.43289e-05
3.43292e-05
3.43296e-05
3.43299e-05
3.43302e-05
3.43306e-05
3.43308e-05
3.43311e-05
3.43312e-05
3.43314e-05
3.43314e-05
3.43314e-05
3.43312e-05
3.43309e-05
3.43305e-05
3.43298e-05
3.4329e-05
3.43278e-05
3.43264e-05
3.43246e-05
3.43224e-05
0.00734518
0.00688854
0.00638636
0.00584056
0.00526184
0.00467168
0.0040969
0.0035587
0.00306827
0.00262914
0.00224188
0.00190985
0.00163074
0.00139071
0.00116739
0.00095114
0.000738558
0.000527572
0.000313714
0.000364396
3.43382e-05
3.43375e-05
3.43368e-05
3.43361e-05
3.43355e-05
3.43348e-05
3.43342e-05
3.43336e-05
3.43331e-05
3.43326e-05
3.4332e-05
3.43316e-05
3.43311e-05
3.43307e-05
3.43303e-05
3.433e-05
3.43296e-05
3.43294e-05
3.43291e-05
3.43289e-05
3.43287e-05
3.43285e-05
3.43284e-05
3.43283e-05
3.43282e-05
3.43282e-05
3.43282e-05
3.43283e-05
3.43284e-05
3.43286e-05
3.43289e-05
3.43292e-05
3.43296e-05
3.43299e-05
3.43303e-05
3.43306e-05
3.43308e-05
3.43311e-05
3.43313e-05
3.43314e-05
3.43315e-05
3.43314e-05
3.43313e-05
3.4331e-05
3.43305e-05
3.43299e-05
3.43291e-05
3.43279e-05
3.43265e-05
3.43247e-05
3.43224e-05
0.00767269
0.00722893
0.00674015
0.00620873
0.0056449
0.00506873
0.00450553
0.00397595
0.0034898
0.00304804
0.0026495
0.00229608
0.00198747
0.00171452
0.00146192
0.00122173
0.000990418
0.000765258
0.000543991
0.000320451
0.000372686
3.43391e-05
3.43383e-05
3.43376e-05
3.43369e-05
3.43362e-05
3.43355e-05
3.43349e-05
3.43343e-05
3.43337e-05
3.43331e-05
3.43326e-05
3.43321e-05
3.43316e-05
3.43311e-05
3.43307e-05
3.43303e-05
3.433e-05
3.43297e-05
3.43294e-05
3.43291e-05
3.43289e-05
3.43287e-05
3.43285e-05
3.43284e-05
3.43283e-05
3.43282e-05
3.43282e-05
3.43282e-05
3.43283e-05
3.43284e-05
3.43286e-05
3.43288e-05
3.43292e-05
3.43295e-05
3.43299e-05
3.43303e-05
3.43306e-05
3.43309e-05
3.43311e-05
3.43313e-05
3.43315e-05
3.43315e-05
3.43315e-05
3.43313e-05
3.43311e-05
3.43306e-05
3.433e-05
3.43292e-05
3.43281e-05
3.43266e-05
3.43248e-05
3.43225e-05
0.00797279
0.00754302
0.00706789
0.00655045
0.00600066
0.00543752
0.00488502
0.00436295
0.00388046
0.0034377
0.00303266
0.00266569
0.00233632
0.00203853
0.00176227
0.00150154
0.00125341
0.00101513
0.000783803
0.000556487
0.000326165
0.000380381
3.43399e-05
3.43391e-05
3.43384e-05
3.43376e-05
3.43369e-05
3.43362e-05
3.43356e-05
3.43349e-05
3.43343e-05
3.43337e-05
3.43331e-05
3.43326e-05
3.43321e-05
3.43316e-05
3.43312e-05
3.43308e-05
3.43304e-05
3.433e-05
3.43297e-05
3.43294e-05
3.43292e-05
3.43289e-05
3.43287e-05
3.43286e-05
3.43284e-05
3.43283e-05
3.43283e-05
3.43282e-05
3.43282e-05
3.43283e-05
3.43284e-05
3.43286e-05
3.43288e-05
3.43292e-05
3.43295e-05
3.43299e-05
3.43303e-05
3.43306e-05
3.43309e-05
3.43311e-05
3.43313e-05
3.43315e-05
3.43316e-05
3.43315e-05
3.43314e-05
3.43312e-05
3.43307e-05
3.43301e-05
3.43293e-05
3.43282e-05
3.43267e-05
3.43249e-05
3.43225e-05
0.00824134
0.00782727
0.00736674
0.00686359
0.00632784
0.0057776
0.00523563
0.00472072
0.00424143
0.00379749
0.0033866
0.00300847
0.002663
0.00234626
0.00205171
0.0017749
0.00151355
0.00126525
0.00102691
0.000794851
0.000565474
0.000331021
0.000387516
3.43408e-05
3.434e-05
3.43392e-05
3.43384e-05
3.43377e-05
3.4337e-05
3.43363e-05
3.43356e-05
3.4335e-05
3.43343e-05
3.43337e-05
3.43332e-05
3.43326e-05
3.43321e-05
3.43317e-05
3.43312e-05
3.43308e-05
3.43304e-05
3.43301e-05
3.43297e-05
3.43295e-05
3.43292e-05
3.4329e-05
3.43288e-05
3.43286e-05
3.43285e-05
3.43283e-05
3.43283e-05
3.43282e-05
3.43283e-05
3.43283e-05
3.43284e-05
3.43286e-05
3.43288e-05
3.43291e-05
3.43295e-05
3.43299e-05
3.43303e-05
3.43306e-05
3.43309e-05
3.43312e-05
3.43314e-05
3.43315e-05
3.43316e-05
3.43316e-05
3.43315e-05
3.43312e-05
3.43308e-05
3.43302e-05
3.43294e-05
3.43283e-05
3.43268e-05
3.4325e-05
3.43226e-05
0.00847353
0.00807744
0.00763314
0.00714529
0.00662422
0.0060874
0.00555638
0.00504886
0.00457275
0.00412765
0.00371121
0.00332313
0.00296391
0.00263147
0.00232175
0.00203173
0.00175981
0.00150403
0.00126152
0.00102829
0.000799848
0.000571567
0.000335247
0.000394324
3.43417e-05
3.43409e-05
3.43401e-05
3.43393e-05
3.43385e-05
3.43377e-05
3.4337e-05
3.43363e-05
3.43356e-05
3.4335e-05
3.43344e-05
3.43338e-05
3.43332e-05
3.43327e-05
3.43322e-05
3.43317e-05
3.43312e-05
3.43308e-05
3.43304e-05
3.43301e-05
3.43298e-05
3.43295e-05
3.43292e-05
3.4329e-05
3.43288e-05
3.43286e-05
3.43285e-05
3.43284e-05
3.43283e-05
3.43283e-05
3.43283e-05
3.43283e-05
3.43284e-05
3.43286e-05
3.43288e-05
3.43291e-05
3.43295e-05
3.43299e-05
3.43303e-05
3.43306e-05
3.43309e-05
3.43312e-05
3.43314e-05
3.43316e-05
3.43317e-05
3.43317e-05
3.43316e-05
3.43313e-05
3.43309e-05
3.43303e-05
3.43295e-05
3.43284e-05
3.4327e-05
3.43251e-05
3.43226e-05
0.00866385
0.00828866
0.00786282
0.00739195
0.00688679
0.00636441
0.00584518
0.00534564
0.00487305
0.00442702
0.00400547
0.00360841
0.00323707
0.00289102
0.0025681
0.00226663
0.00198577
0.00172405
0.00147895
0.00124658
0.0010222
0.000800274
0.00057537
0.000338964
0.000400869
3.43427e-05
3.43418e-05
3.4341e-05
3.43401e-05
3.43393e-05
3.43385e-05
3.43378e-05
3.43371e-05
3.43363e-05
3.43357e-05
3.4335e-05
3.43344e-05
3.43338e-05
3.43332e-05
3.43327e-05
3.43322e-05
3.43317e-05
3.43313e-05
3.43309e-05
3.43305e-05
3.43301e-05
3.43298e-05
3.43295e-05
3.43293e-05
3.4329e-05
3.43288e-05
3.43287e-05
3.43285e-05
3.43284e-05
3.43283e-05
3.43283e-05
3.43283e-05
3.43283e-05
3.43284e-05
3.43286e-05
3.43288e-05
3.43291e-05
3.43295e-05
3.43299e-05
3.43303e-05
3.43306e-05
3.43309e-05
3.43312e-05
3.43314e-05
3.43316e-05
3.43317e-05
3.43317e-05
3.43316e-05
3.43314e-05
3.4331e-05
3.43305e-05
3.43297e-05
3.43286e-05
3.43271e-05
3.43252e-05
3.43227e-05
0.00880615
0.00845533
0.00805078
0.00759913
0.0071117
0.00660518
0.00609888
0.00560814
0.00513965
0.00469311
0.00426698
0.00386182
0.00347973
0.00312168
0.00278718
0.00247573
0.00218723
0.00192074
0.00167406
0.00144351
0.00122444
0.00101115
0.000797531
0.000577424
0.000342402
0.000407158
3.43437e-05
3.43428e-05
3.43419e-05
3.4341e-05
3.43402e-05
3.43394e-05
3.43386e-05
3.43378e-05
3.43371e-05
3.43364e-05
3.43357e-05
3.43351e-05
3.43344e-05
3.43338e-05
3.43333e-05
3.43327e-05
3.43322e-05
3.43317e-05
3.43313e-05
3.43309e-05
3.43305e-05
3.43302e-05
3.43299e-05
3.43296e-05
3.43293e-05
3.43291e-05
3.43289e-05
3.43287e-05
3.43285e-05
3.43284e-05
3.43283e-05
3.43283e-05
3.43283e-05
3.43283e-05
3.43284e-05
3.43286e-05
3.43288e-05
3.43291e-05
3.43295e-05
3.43299e-05
3.43303e-05
3.43306e-05
3.43309e-05
3.43312e-05
3.43315e-05
3.43317e-05
3.43318e-05
3.43318e-05
3.43317e-05
3.43315e-05
3.43311e-05
3.43306e-05
3.43298e-05
3.43287e-05
3.43273e-05
3.43254e-05
3.43228e-05
0.00889342
0.00857102
0.00819123
0.00776164
0.00729418
0.00680532
0.00631333
0.00583239
0.00536869
0.00492221
0.00449211
0.00407975
0.00368818
0.0033196
0.00297502
0.00265505
0.00236033
0.00209037
0.00184323
0.00161538
0.00140222
0.00119816
0.00099716
0.000792775
0.000578606
0.000345689
0.000413266
3.43447e-05
3.43438e-05
3.43429e-05
3.4342e-05
3.43411e-05
3.43402e-05
3.43394e-05
3.43386e-05
3.43379e-05
3.43371e-05
3.43364e-05
3.43357e-05
3.43351e-05
3.43345e-05
3.43339e-05
3.43333e-05
3.43328e-05
3.43323e-05
3.43318e-05
3.43313e-05
3.43309e-05
3.43306e-05
3.43302e-05
3.43299e-05
3.43296e-05
3.43293e-05
3.43291e-05
3.43289e-05
3.43287e-05
3.43286e-05
3.43284e-05
3.43284e-05
3.43283e-05
3.43283e-05
3.43284e-05
3.43284e-05
3.43286e-05
3.43288e-05
3.43291e-05
3.43295e-05
3.43299e-05
3.43303e-05
3.43306e-05
3.43309e-05
3.43312e-05
3.43315e-05
3.43317e-05
3.43318e-05
3.43319e-05
3.43318e-05
3.43316e-05
3.43313e-05
3.43307e-05
3.43299e-05
3.43289e-05
3.43274e-05
3.43255e-05
3.43229e-05
0.00891785
0.00862852
0.00827748
0.00787333
0.00742854
0.00695944
0.00648335
0.00601335
0.00555525
0.00510949
0.00467614
0.00425756
0.00385776
0.00348016
0.00312708
0.00280025
0.00250097
0.00222916
0.00198304
0.00175911
0.00155271
0.00135831
0.00116999
0.000981652
0.00078692
0.000578951
0.000348978
0.000419371
3.43458e-05
3.43448e-05
3.43439e-05
3.43429e-05
3.4342e-05
3.43411e-05
3.43403e-05
3.43395e-05
3.43387e-05
3.43379e-05
3.43372e-05
3.43365e-05
3.43358e-05
3.43351e-05
3.43345e-05
3.43339e-05
3.43333e-05
3.43328e-05
3.43323e-05
3.43318e-05
3.43314e-05
3.4331e-05
3.43306e-05
3.43302e-05
3.43299e-05
3.43296e-05
3.43294e-05
3.43291e-05
3.43289e-05
3.43287e-05
3.43286e-05
3.43285e-05
3.43284e-05
3.43283e-05
3.43283e-05
3.43284e-05
3.43284e-05
3.43286e-05
3.43288e-05
3.43291e-05
3.43295e-05
3.43299e-05
3.43303e-05
3.43306e-05
3.4331e-05
3.43313e-05
3.43315e-05
3.43317e-05
3.43319e-05
3.43319e-05
3.43319e-05
3.43317e-05
3.43314e-05
3.43308e-05
3.43301e-05
3.4329e-05
3.43276e-05
3.43257e-05
3.4323e-05
0.00887076
0.00861969
0.00830195
0.00792706
0.00750807
0.00706114
0.0066027
0.00614488
0.0056933
0.00524908
0.00481339
0.00438966
0.00398299
0.00359801
0.00323827
0.00290654
0.00260472
0.00233309
0.00208991
0.00187158
0.00167327
0.00148934
0.00131398
0.00114133
0.00096553
0.000780293
0.00057881
0.000352392
0.000425654
3.43469e-05
3.43459e-05
3.43449e-05
3.43439e-05
3.4343e-05
3.43421e-05
3.43412e-05
3.43403e-05
3.43395e-05
3.43387e-05
3.43379e-05
3.43372e-05
3.43365e-05
3.43358e-05
3.43352e-05
3.43345e-05
3.43339e-05
3.43334e-05
3.43328e-05
3.43323e-05
3.43318e-05
3.43314e-05
3.4331e-05
3.43306e-05
3.43303e-05
3.433e-05
3.43297e-05
3.43294e-05
3.43292e-05
3.4329e-05
3.43288e-05
3.43286e-05
3.43285e-05
3.43284e-05
3.43283e-05
3.43283e-05
3.43284e-05
3.43285e-05
3.43286e-05
3.43288e-05
3.43291e-05
3.43295e-05
3.43299e-05
3.43302e-05
3.43306e-05
3.4331e-05
3.43313e-05
3.43316e-05
3.43318e-05
3.43319e-05
3.4332e-05
3.4332e-05
3.43318e-05
3.43315e-05
3.4331e-05
3.43302e-05
3.43292e-05
3.43278e-05
3.43258e-05
3.43231e-05
0.00874258
0.00853546
0.00825602
0.00791466
0.00752493
0.00710282
0.00666394
0.00621971
0.00577574
0.00533405
0.00489707
0.00446951
0.0040576
0.00366716
0.00330293
0.00296864
0.00266678
0.00239785
0.00216003
0.00194948
0.00176107
0.00158896
0.00142732
0.00127046
0.00111293
0.000949188
0.000773319
0.000578359
0.000355972
0.000432057
3.4348e-05
3.4347e-05
3.4346e-05
3.4345e-05
3.4344e-05
3.43431e-05
3.43421e-05
3.43412e-05
3.43404e-05
3.43396e-05
3.43388e-05
3.4338e-05
3.43372e-05
3.43365e-05
3.43358e-05
3.43352e-05
3.43346e-05
3.4334e-05
3.43334e-05
3.43329e-05
3.43324e-05
3.43319e-05
3.43315e-05
3.43311e-05
3.43307e-05
3.43303e-05
3.433e-05
3.43297e-05
3.43295e-05
3.43292e-05
3.4329e-05
3.43288e-05
3.43287e-05
3.43285e-05
3.43284e-05
3.43284e-05
3.43284e-05
3.43284e-05
3.43285e-05
3.43286e-05
3.43288e-05
3.43291e-05
3.43294e-05
3.43299e-05
3.43302e-05
3.43306e-05
3.4331e-05
3.43313e-05
3.43316e-05
3.43318e-05
3.4332e-05
3.43321e-05
3.4332e-05
3.43319e-05
3.43316e-05
3.43311e-05
3.43304e-05
3.43294e-05
3.43279e-05
3.4326e-05
3.43232e-05
0.00852281
0.00836572
0.00813003
0.00782683
0.00747012
0.0070757
0.0066585
0.00622942
0.00579434
0.00535642
0.00491952
0.00448975
0.00407454
0.00368096
0.00331489
0.00298094
0.00268208
0.00241893
0.00218941
0.00198931
0.00181309
0.00165465
0.00150802
0.00136761
0.00122827
0.00108506
0.000932933
0.000766199
0.000578029
0.000359879
0.000438482
3.43492e-05
3.43481e-05
3.43471e-05
3.4346e-05
3.4345e-05
3.43441e-05
3.43431e-05
3.43422e-05
3.43413e-05
3.43404e-05
3.43396e-05
3.43388e-05
3.4338e-05
3.43373e-05
3.43366e-05
3.43359e-05
3.43352e-05
3.43346e-05
3.4334e-05
3.43334e-05
3.43329e-05
3.43324e-05
3.43319e-05
3.43315e-05
3.43311e-05
3.43307e-05
3.43304e-05
3.43301e-05
3.43298e-05
3.43295e-05
3.43293e-05
3.4329e-05
3.43288e-05
3.43287e-05
3.43286e-05
3.43285e-05
3.43284e-05
3.43284e-05
3.43284e-05
3.43285e-05
3.43286e-05
3.43288e-05
3.43291e-05
3.43294e-05
3.43298e-05
3.43302e-05
3.43306e-05
3.4331e-05
3.43313e-05
3.43316e-05
3.43319e-05
3.4332e-05
3.43321e-05
3.43321e-05
3.4332e-05
3.43317e-05
3.43313e-05
3.43306e-05
3.43296e-05
3.43281e-05
3.43262e-05
3.43233e-05
0.00820016
0.00809948
0.00791326
0.00765314
0.00733346
0.0069698
0.00657656
0.00616441
0.00573981
0.00530725
0.00487218
0.00444226
0.00402621
0.00363234
0.00326764
0.00293755
0.0026454
0.00239169
0.00217399
0.00198752
0.00182626
0.00168375
0.00155385
0.00143104
0.00131041
0.00118745
0.00105782
0.000916866
0.000759267
0.000577966
0.000364285
0.000445
3.43504e-05
3.43493e-05
3.43482e-05
3.43471e-05
3.43461e-05
3.43451e-05
3.43441e-05
3.43432e-05
3.43422e-05
3.43413e-05
3.43405e-05
3.43396e-05
3.43388e-05
3.43381e-05