/*--------------------------------*- C++ -*----------------------------------*\
  =========                 |
  \\      /  F ield         | OpenFOAM: The Open Source CFD Toolbox
   \\    /   O peration     | Website:  https://openfoam.org
    \\  /    A nd           | Version:  7
     \\/     M anipulation  |
\*---------------------------------------------------------------------------*/
FoamFile
{
    version     2.0;
    format      ascii;
    class       volScalarField;
    location    "600";
    object      p;
}
// * * * * * * * * * * * * * * * * * * * * * * * * * * * * * * * * * * * * * //

dimensions      [0 2 -2 0 0 0 0];

internalField   nonuniform List<scalar> 
23064
(
13.5605
13.4707
13.3989
13.2233
13.2951
13.2367
13.2795
13.0389
13.1185
13.0743
13.3342
13.0969
12.8537
12.9408
12.9116
13.3245
13.1489
12.9136
12.6676
12.7622
12.7485
13.3086
13.1337
12.9627
12.7295
12.4808
12.5826
12.5851
13.2911
13.1123
12.9422
12.7756
12.5449
12.2933
12.4022
12.4215
13.259
13.0884
12.9153
12.7498
12.588
12.3597
12.1053
12.221
12.2578
13.2106
13.0486
12.885
12.7176
12.5567
12.3996
12.1741
11.9167
12.0391
12.0941
13.1463
12.9914
12.8375
12.681
12.5193
12.3631
12.2108
11.9881
11.7278
11.8567
11.9305
13.0643
12.9172
12.7715
12.6258
12.4763
12.3204
12.1689
12.0215
11.8018
11.5385
11.6736
11.7669
12.9624
12.824
12.6873
12.5509
12.4135
12.2712
12.1211
11.9744
11.8319
11.6153
11.3491
11.4901
11.6033
12.8387
12.7097
12.5831
12.4569
12.3299
12.2007
12.0656
11.9215
11.7795
11.642
11.4287
11.1596
11.3061
11.4402
12.6915
12.5724
12.4564
12.3416
12.226
12.1084
11.9875
11.8598
11.7216
11.5844
11.4519
11.2421
10.97
11.1218
11.2771
12.5191
12.4103
12.3055
12.2026
12.0996
11.9947
11.8866
11.7742
11.6538
11.5216
11.3893
11.2617
11.0555
10.7804
10.9372
11.1144
12.3196
12.2217
12.1286
12.0381
11.9484
11.8574
11.7632
11.6647
11.5607
11.4477
11.3216
11.1941
11.0715
10.8691
10.5911
10.7525
10.9521
12.0912
12.0046
11.9237
11.8464
11.7704
11.6939
11.6149
11.5316
11.4427
11.3473
11.2417
11.1217
10.999
10.8814
10.683
10.402
10.5676
10.7903
11.8322
11.7573
11.6891
11.6254
11.5638
11.5025
11.4393
11.3725
11.3001
11.2208
11.1339
11.0358
10.922
10.804
10.6915
10.4972
10.2132
10.3828
10.6291
11.5408
11.4778
11.4228
11.3732
11.3267
11.2812
11.2345
11.1847
11.1301
11.0687
10.9991
10.9208
10.8302
10.7225
10.6094
10.502
10.3118
10.025
10.198
10.4685
11.2154
11.1645
11.1229
11.0879
11.057
11.0279
10.9985
10.9666
10.9304
10.888
10.8375
10.7778
10.708
10.6249
10.5234
10.4151
10.3127
10.127
9.83726
10.0133
10.3084
10.8541
10.8156
10.7876
10.7676
10.7528
10.7408
10.7292
10.7159
10.699
10.6763
10.6462
10.6068
10.5568
10.4956
10.4201
10.3248
10.2213
10.1239
9.94273
9.65025
9.82893
10.149
10.4554
10.4293
10.4152
10.4104
10.4121
10.4177
10.4246
10.4307
10.4338
10.4317
10.4227
10.405
10.3767
10.3364
10.2839
10.2159
10.1268
10.0281
9.93578
9.75928
9.46399
9.64486
9.99053
10.0177
10.0039
10.0039
10.0146
10.0331
10.0567
10.0827
10.1088
10.1327
10.1521
10.1651
10.1698
10.1644
10.1472
10.1168
10.0728
10.0124
9.92962
9.83575
9.74834
9.57663
9.27858
9.46114
9.83301
9.53929
9.53787
9.55191
9.57827
9.61387
9.65585
9.70147
9.74816
9.79352
9.8352
9.87108
9.89913
9.91755
9.9246
9.91849
9.89794
9.86264
9.80979
9.73331
9.64415
9.56169
9.39493
9.0942
9.27799
9.67646
9.01864
9.02945
9.05752
9.09962
9.15255
9.21321
9.27885
9.34668
9.41417
9.47885
9.53846
9.59087
9.63407
9.66627
9.68576
9.6908
9.68009
9.65342
9.60813
9.53791
9.45348
9.37594
9.21426
8.91089
9.09539
9.52093
8.45417
8.47702
8.51908
8.57691
8.64726
8.72695
8.81291
8.90235
8.99256
9.08093
9.16507
9.24268
9.31167
9.37005
9.41605
9.44803
9.46421
9.46336
9.44532
9.40759
9.34364
9.26396
9.1912
9.0347
8.72883
8.91349
9.36635
7.84436
7.87896
7.93486
8.00845
8.09626
8.19505
8.30171
8.41315
8.52658
8.63927
8.74865
8.85232
8.94801
9.03363
9.10724
9.16709
9.21155
9.2389
9.2479
9.23846
9.20828
9.15066
9.07561
9.00759
8.85643
8.54804
8.73229
9.21297
7.18762
7.2337
7.30319
7.39246
7.49776
7.61582
7.7433
7.8771
8.01417
8.15175
8.28705
8.41752
8.5408
8.65465
8.75696
8.84582
8.91954
8.9765
9.01501
9.03385
9.033
9.01034
8.959
8.88857
8.82527
8.67949
8.36871
8.55198
9.06089
6.48249
6.53966
6.62248
6.72717
6.84995
6.98733
7.13581
7.29218
7.45335
7.61626
7.77806
7.93608
8.08775
8.23072
8.36276
8.48181
8.58598
8.67358
8.74303
8.79271
8.82138
8.82907
8.81391
8.76881
8.70299
8.64425
8.50402
8.19091
8.3727
8.90998
5.72745
5.79525
5.89107
6.01098
6.15113
6.30776
6.47738
6.65658
6.84206
7.03073
7.21958
7.40575
7.58659
7.75955
7.92229
8.07259
8.2084
8.32789
8.42938
8.51132
8.57215
8.61061
8.62684
8.61913
8.58028
8.51894
8.46474
8.33009
8.0148
8.19433
8.76049
-554.202
4.92095
4.99891
5.10738
5.24223
5.39952
5.57533
5.76614
5.96826
6.17834
6.39313
6.60947
6.82438
7.03507
7.23881
7.43314
7.61568
7.78429
7.93692
8.07174
8.18711
8.28155
8.35349
8.40173
8.42645
8.42614
8.39349
8.33666
8.28682
8.15783
7.84038
8.01708
8.61249
-554.206
-568.76
4.06143
4.14904
4.2697
4.41921
4.59338
4.78833
5.0002
5.22535
5.46025
5.70143
5.94565
6.18979
6.43091
6.66621
6.89296
7.10873
7.31116
7.4981
7.66755
7.8177
7.94696
8.05387
8.13692
8.19489
8.22803
8.23509
8.20861
8.1562
8.11062
7.98737
7.66786
7.84104
8.4662
-554.187
-568.757
-580.461
3.1474
3.24405
3.37645
3.54021
3.73102
3.94483
4.1778
4.42595
4.68574
4.9536
5.22605
5.49986
5.772
6.03947
6.29945
6.54929
6.78656
7.00889
7.21421
7.40051
7.566
7.70913
7.82847
7.92258
7.99024
8.03177
8.04612
8.02577
7.9777
7.93623
7.81878
7.4973
7.66637
8.32131
-554.152
-568.726
-580.453
-589.755
2.17717
2.28237
2.42598
2.60356
2.81069
3.04322
3.29704
3.56828
3.853
4.1476
4.44862
4.75251
5.05611
5.35633
5.65024
5.935
6.20802
6.46682
6.70913
6.93283
7.13598
7.3168
7.47379
7.60553
7.71065
7.78796
7.83781
7.85939
7.8451
7.80125
7.76378
7.65218
7.32887
7.49299
8.17789
-554.128
-568.677
-580.415
-589.739
-597.546
1.14926
1.26225
1.41654
1.60755
1.83066
2.0816
2.3562
2.65029
2.96008
3.28158
3.61127
3.94556
4.2811
4.61463
4.94308
5.2635
5.57314
5.8694
6.14982
6.4121
6.6542
6.87418
7.07032
7.24113
7.38525
7.50133
7.58822
7.64631
7.67503
7.66676
7.62708
7.59342
7.48766
7.16261
7.321
8.0361
-554.12
-568.63
-580.353
-589.695
-597.523
-604.756
0.0619789
0.182104
0.346528
0.550394
0.78912
1.05822
1.35334
1.67029
2.00493
2.35348
2.71203
3.07698
3.44479
3.81212
4.17569
4.53244
4.87955
5.21412
5.53365
5.8357
6.118
6.37851
6.61533
6.82677
7.01135
7.1678
7.29479
7.39118
7.45744
7.49321
7.49088
7.4553
7.42526
7.3254
6.9987
7.15062
7.89629
-554.133
-568.594
-580.287
-589.626
-597.472
-604.726
-612.418
-1.08638
-0.959762
-0.785828
-0.569545
-0.315692
-0.028771
0.286584
0.62621
0.98577
1.3613
1.74889
2.14468
2.5451
2.94662
3.34584
3.73958
4.1248
4.49859
4.85819
5.20107
5.52476
5.82709
6.106
6.35964
6.58635
6.78466
6.95337
7.0912
7.19704
7.27136
7.31409
7.31762
7.28601
7.25942
7.1654
6.8372
6.9819
7.75841
-554.169
-568.573
-580.225
-589.547
-597.398
-604.67
-612.379
-621.223
-2.29748
-2.16518
-1.98237
-1.75418
-1.4856
-1.18127
-0.845902
-0.483839
-0.0993928
0.303147
0.719787
1.1467
1.57993
2.01596
2.45135
2.88256
3.3066
3.72036
4.12094
4.50562
4.87186
5.21723
5.53958
5.83689
6.10734
6.34926
6.56125
6.74216
6.89075
7.00595
7.08824
7.13781
7.14711
7.11936
7.09596
7.00782
6.67821
6.81479
7.62221
-554.231
-568.569
-580.171
-589.466
-597.309
-604.591
-612.318
-621.178
-631.784
-3.57326
-3.4359
-3.24484
-3.0054
-2.72258
-2.40116
-2.04603
-1.66168
-1.25255
-0.823065
-0.377253
0.0807592
0.547133
1.018
1.48986
1.95921
2.42264
2.8771
3.31945
3.74686
4.15666
4.54629
4.91338
5.25574
5.57143
5.85863
6.11572
6.34134
6.53438
6.69366
6.81809
6.90825
6.96456
6.97951
6.9555
6.93511
6.85277
6.52185
6.64937
7.48775
-554.323
-568.585
-580.127
-589.385
-597.213
-604.497
-612.236
-621.112
-631.733
-644.514
-4.91548
-4.77384
-4.57527
-4.32507
-4.0284
-3.69038
-3.31576
-2.90938
-2.47568
-2.01929
-1.5443
-1.05501
-0.55544
-0.0493688
0.459377
0.967179
1.47059
1.96637
2.45126
2.92231
3.37665
3.8116
4.22463
4.61341
4.97581
5.30985
5.61375
5.88597
6.12515
6.33021
6.50008
6.63368
6.73158
6.79447
6.81497
6.79458
6.77695
6.70034
6.36827
6.48586
7.35537
-554.441
-568.625
-580.094
-589.307
-597.112
-604.39
-612.136
-621.026
-631.661
-644.457
-659.756
-6.32617
-6.18104
-5.97557
-5.71513
-5.40516
-5.05083
-4.65707
-4.22889
-3.77083
-3.28749
-2.78348
-2.26275
-1.72974
-1.18842
-0.64245
-0.0957585
0.448162
0.985875
1.51401
2.02947
2.52928
3.01057
3.4707
3.90715
4.31762
4.7
5.05237
5.37295
5.66021
5.91288
6.1299
6.31025
6.45288
6.55839
6.62773
6.65364
6.63672
6.62159
6.55065
6.21753
6.32419
7.22498
-554.584
-568.692
-580.076
-589.234
-597.008
-604.276
-612.021
-620.921
-631.57
-644.376
-659.691
-677.786
-7.80727
-7.65954
-7.44774
-7.1777
-6.85484
-6.48465
-6.07215
-5.62233
-5.14008
-4.63003
-4.09675
-3.54471
-2.97805
-2.40113
-1.81773
-1.23179
-0.646884
-0.0667718
0.505304
1.06591
1.61202
2.14064
2.6489
3.13425
3.59414
4.02628
4.42863
4.79926
5.13645
5.4387
5.70475
5.93362
6.12433
6.27589
6.38887
6.46449
6.49568
6.48207
6.46914
6.40376
6.06971
6.16451
7.09622
-554.747
-568.786
-580.078
-589.167
-596.904
-604.154
-611.895
-620.799
-631.46
-644.278
-659.603
-677.714
-698.867
-9.36106
-9.21131
-8.99394
-8.71489
-8.37983
-7.99398
-7.56303
-7.09189
-6.58555
-6.04885
-5.48642
-4.90285
-4.30264
-3.68982
-3.06874
-2.44313
-1.81694
-1.19375
-0.57724
0.0292439
0.622421
1.19923
1.75667
2.29198
2.80252
3.28583
3.73964
4.16191
4.55076
4.9045
5.22164
5.50098
5.74159
5.94256
6.10289
6.22319
6.30492
6.34123
6.33078
6.31977
6.25978
5.925
6.00677
6.9699
-554.925
-568.903
-580.104
-589.111
-596.799
-604.027
-611.759
-620.664
-631.331
-644.162
-659.496
-677.616
-698.783
-722.963
-10.9896
-10.8386
-10.6164
-10.3289
-9.98194
-9.58117
-9.13193
-8.63968
-8.1095
-7.54618
-6.95471
-6.33962
-5.7056
-5.05684
-4.39767
-3.73222
-3.0642
-2.39758
-1.736
-1.08305
-0.441972
0.183868
0.791382
1.37773
1.94007
2.47581
2.98253
3.45796
3.90013
4.30713
4.67732
5.00928
5.30182
5.55404
5.7651
5.93408
6.06154
6.1492
6.19046
6.18299
6.17357
6.11884
5.78342
5.85104
6.84562
-555.111
-569.038
-580.154
-589.072
-596.698
-603.895
-611.613
-620.515
-631.185
-644.024
-659.371
-677.5
-698.673
-722.868
-750.108
-12.6952
-12.5438
-12.3175
-12.0221
-11.6637
-11.2483
-10.7813
-10.268
-9.71411
-9.12429
-8.5037
-7.85712
-7.18911
-6.50425
-5.80687
-5.10102
-4.39099
-3.68041
-2.97328
-2.2732
-1.58363
-0.907971
-0.249469
0.388872
1.00412
1.59348
2.1544
2.68451
3.18155
3.64353
4.06861
4.45518
4.80186
5.10747
5.37118
5.59221
5.76965
5.9041
5.99749
6.04352
6.03885
6.03067
5.98101
5.6451
5.69747
6.72304
-555.302
-569.186
-580.225
-589.054
-596.605
-603.759
-611.459
-620.355
-631.025
-643.869
-659.225
-677.365
-698.543
-722.744
-749.999
-780.325
-14.4804
-14.3295
-14.0995
-13.7969
-13.4276
-12.9977
-12.5133
-11.9794
-11.4018
-10.7856
-10.136
-9.45768
-8.7556
-8.03458
-7.29858
-6.55218
-5.7995
-5.04473
-4.2915
-3.54371
-2.80497
-2.07876
-1.36844
-0.6772
-0.00804567
0.636087
1.25252
1.83864
2.39206
2.91067
3.39239
3.83549
4.23834
4.59963
4.91818
5.19323
5.42406
5.60982
5.75107
5.84998
5.90057
5.8985
5.8912
5.84639
5.51012
5.54606
6.60289
-555.488
-569.342
-580.311
-589.056
-596.528
-603.627
-611.296
-620.182
-630.849
-643.696
-659.057
-677.21
-698.396
-722.598
-749.86
-780.199
-813.585
-16.3477
-16.1979
-15.9653
-15.6558
-15.276
-14.8323
-14.3303
-13.7762
-13.1752
-12.5325
-11.8537
-11.1438
-10.4076
-9.64986
-8.87528
-8.08796
-7.29251
-6.49272
-5.69305
-4.89704
-4.10847
-3.33099
-2.56809
-1.823
-1.09899
-0.39904
0.274049
0.917489
1.52874
2.10549
2.64559
3.14698
3.608
4.02704
4.40279
4.73417
5.02041
5.26088
5.45478
5.60262
5.70683
5.76177
5.76208
5.75528
5.71505
5.37862
5.39677
6.48496
-555.667
-569.497
-580.406
-589.076
-596.47
-603.505
-611.132
-619.998
-630.658
-643.504
-658.869
-677.029
-698.225
-722.433
-749.696
-780.044
-813.44
-849.484
-18.3
-18.1522
-17.9171
-17.6016
-17.2117
-16.7544
-16.2355
-15.6608
-15.0365
-14.3676
-13.6596
-12.918
-12.1474
-11.3529
-10.5391
-9.71078
-8.87191
-8.02717
-7.18027
-6.33553
-5.49656
-4.66716
-3.8509
-3.05121
-2.27134
-1.51454
-0.783697
-0.0817444
0.588691
1.2251
1.82511
2.38659
2.9076
3.38644
3.82154
4.21164
4.55569
4.85296
5.1029
5.30473
5.45897
5.56822
5.62728
5.62975
5.62303
5.58711
5.25065
5.24975
6.36907
-555.83
-569.646
-580.506
-589.107
-596.427
-603.398
-610.975
-619.809
-630.453
-643.295
-658.662
-676.827
-698.03
-722.245
-749.513
-779.863
-813.265
-849.318
-887.862
-20.3401
-20.195
-19.9583
-19.6369
-19.2376
-18.7667
-18.2312
-17.6364
-16.9886
-16.2935
-15.5564
-14.7827
-13.9775
-13.1462
-12.293
-11.423
-10.5406
-9.65008
-8.75579
-7.86164
-6.97167
-6.08973
-5.21937
-4.36426
-3.52771
-2.71306
-1.92344
-1.16176
-0.430894
0.266486
0.927958
1.55113
2.13397
2.67451
3.17106
3.6221
4.02642
4.38298
4.69111
4.95032
5.15989
5.32029
5.43434
5.49727
5.50165
5.49458
5.46263
5.12632
5.10494
6.2546
-555.971
-569.784
-580.604
-589.145
-596.398
-603.307
-610.83
-619.624
-630.243
-643.071
-658.435
-676.602
-697.81
-722.032
-749.306
-779.66
-813.064
-849.124
-887.672
-928.366
-22.4707
-22.3292
-22.0914
-21.7648
-21.3561
-20.8725
-20.32
-19.7055
-19.0344
-18.3127
-17.5464
-16.7406
-15.9007
-15.032
-14.1394
-13.2275
-12.3009
-11.3644
-10.422
-9.47798
-8.53627
-7.60116
-6.67603
-5.76478
-4.87069
-3.99729
-3.14788
-2.32538
-1.53292
-0.773174
-0.0488341
0.637632
1.28396
1.88803
2.44798
2.96211
3.42898
3.84737
4.21629
4.53509
4.80338
5.02047
5.1868
5.30536
5.37188
5.37794
5.37006
5.3417
5.00578
4.96233
6.14243
-556.082
-569.902
-580.694
-589.184
-596.376
-603.227
-610.698
-619.449
-630.036
-642.843
-658.194
-676.359
-697.568
-721.795
-749.074
-779.433
-812.841
-848.904
-887.455
-928.15
-970.862
-24.6958
-24.5583
-24.3199
-23.9886
-23.571
-23.0745
-22.5056
-21.8709
-21.1766
-20.4287
-19.6328
-18.7947
-17.9198
-17.0136
-16.0807
-15.1266
-14.1556
-13.1724
-12.1815
-11.1869
-10.1932
-9.20397
-8.22351
-7.25515
-6.30279
-5.3698
-4.45951
-3.57527
-2.72004
-1.89673
-1.10818
-0.356974
0.354442
1.02382
1.64907
2.22832
2.75993
3.24247
3.67477
4.05586
4.38516
4.66231
4.88668
5.0587
5.18148
5.2513
5.25875
5.24958
5.22439
4.88907
4.82197
6.03228
-556.157
-569.993
-580.769
-589.22
-596.359
-603.155
-610.575
-619.283
-629.835
-642.616
-657.95
-676.106
-697.311
-721.54
-748.824
-779.186
-812.594
-848.66
-887.214
-927.911
-970.617
-1015.17
-27.0185
-26.8853
-26.6473
-26.3112
-25.8853
-25.3763
-24.7911
-24.1363
-23.4185
-22.644
-21.8185
-20.9477
-20.0376
-19.0934
-18.1203
-17.1231
-16.1073
-15.077
-14.0368
-12.9913
-11.9447
-10.901
-9.86416
-8.83824
-7.82672
-6.83317
-5.86121
-4.91411
-3.995
-3.10699
-2.25294
-1.4356
-0.65757
0.0787598
0.771058
1.41736
2.01579
2.56476
3.06283
3.50887
3.90196
4.24155
4.52732
4.75875
4.93617
5.06288
5.13568
5.14425
5.13326
5.11078
4.77624
4.68388
5.92396
-556.184
-570.049
-580.821
-589.245
-596.341
-603.089
-610.461
-619.125
-629.641
-642.393
-657.706
-675.848
-697.046
-721.272
-748.555
-778.918
-812.325
-848.396
-886.951
-927.65
-970.352
-1014.9
-1061.37
-29.4424
-29.3144
-29.0763
-28.7365
-28.3023
-27.7808
-27.1793
-26.5046
-25.7634
-24.9619
-24.1065
-23.203
-22.2573
-21.2745
-20.2605
-19.2204
-18.1587
-17.0808
-15.9909
-14.8938
-13.7936
-12.6945
-11.6009
-10.5163
-9.44486
-8.39013
-7.35553
-6.34456
-5.36056
-4.40673
-3.4859
-2.60113
-1.75507
-0.950291
-0.189191
0.525989
1.19325
1.81075
2.3769
2.89035
3.34995
3.75485
4.1045
4.39867
4.63689
4.81945
4.94973
5.02519
5.03457
5.02123
5.00093
4.66747
4.54799
5.81713
-556.156
-570.06
-580.843
-589.253
-596.317
-603.024
-610.352
-618.975
-629.454
-642.175
-657.463
-675.588
-696.774
-720.995
-748.275
-778.635
-812.039
-848.107
-886.661
-927.363
-970.07
-1014.61
-1061.07
-1109.48
-31.9712
-31.8492
-31.6117
-31.2682
-30.8258
-30.292
-29.6739
-28.9792
-28.2146
-27.386
-26.5003
-25.5638
-24.5819
-23.5604
-22.5048
-21.4207
-20.3132
-19.1869
-18.0465
-16.8969
-15.7425
-14.5876
-13.4361
-12.2925
-11.1602
-10.0432
-8.9451
-7.86936
-6.81944
-5.79861
-4.80995
-3.85649
-2.941
-2.06627
-1.23482
-0.449039
0.28892
0.976978
1.61343
2.19664
2.72528
3.19828
3.61479
3.97427
4.27661
4.52134
4.70873
4.84226
4.92
4.92988
4.91363
4.89491
4.56278
4.41435
5.71211
-556.062
-570.018
-580.826
-589.238
-596.282
-602.958
-610.246
-618.83
-629.272
-641.961
-657.222
-675.327
-696.498
-720.709
-747.985
-778.34
-811.736
-847.8
-886.351
-927.051
-969.755
-1014.3
-1060.75
-1109.13
-1159.76
-34.6092
-34.4933
-34.2574
-33.9103
-33.4597
-32.9135
-32.279
-31.564
-30.7755
-29.9198
-29.0034
-28.0331
-27.0146
-25.9539
-24.8563
-23.7279
-22.5733
-21.3982
-20.2067
-19.004
-17.7945
-16.5828
-15.3729
-14.169
-12.9752
-11.795
-10.6326
-9.4912
-8.37433
-7.28552
-6.22781
-5.20439
-4.21824
-3.27219
-2.36886
-1.51081
-0.700439
0.060134
0.768937
1.42416
2.02429
2.56795
3.05414
3.48203
3.85113
4.16134
4.41231
4.60422
4.74063
4.82028
4.83032
4.81056
4.79279
4.46229
4.28296
5.60875
-555.89
-569.911
-580.761
-589.19
-596.229
-602.884
-610.141
-618.69
-629.096
-641.752
-656.984
-675.067
-696.22
-720.42
-747.685
-778.033
-811.418
-847.476
-886.019
-926.714
-969.416
-1013.96
-1060.41
-1108.78
-1159.38
-1212.49
-37.361
-37.2518
-37.0173
-36.6664
-36.2079
-35.6491
-34.9984
-34.2632
-33.4501
-32.5666
-31.6194
-30.615
-29.5593
-28.4584
-27.3184
-26.1447
-24.9427
-23.7175
-22.4744
-21.2176
-19.9525
-18.6831
-17.4139
-16.1491
-14.8926
-13.6486
-12.4206
-11.2126
-10.0278
-8.87001
-7.74219
-6.64773
-5.58969
-4.57093
-3.59434
-2.6625
-1.77798
-0.943088
-0.159981
0.569399
1.24325
1.86011
2.41863
2.91782
3.35686
3.73533
4.05314
4.31004
4.50615
4.64505
4.72619
4.73605
4.71216
4.69461
4.36611
4.15381
5.50703
-555.628
-569.728
-580.637
-589.102
-596.151
-602.799
-610.034
-618.553
-628.925
-641.549
-656.75
-674.808
-695.94
-720.125
-747.378
-777.715
-811.087
-847.134
-885.666
-926.354
-969.049
-1013.59
-1060.03
-1108.41
-1158.99
-1212.06
-1267.97
-40.231
-40.1286
-39.8959
-39.5418
-39.0753
-38.5039
-37.8362
-37.0804
-36.2424
-35.3312
-34.3522
-33.3129
-32.2196
-31.0779
-29.8946
-28.6747
-27.4245
-26.1489
-24.8527
-23.5414
-22.2193
-20.8916
-19.562
-18.2352
-16.9154
-15.6065
-14.3122
-13.0366
-11.7829
-10.5549
-9.35594
-8.18926
-7.05811
-5.96543
-4.91416
-3.90707
-2.94687
-2.03592
-1.17665
-0.37114
0.378682
1.07103
1.70445
2.27764
2.7896
3.23956
3.62712
3.95226
4.21477
4.41473
4.55573
4.63792
4.64721
4.61855
4.60041
4.27432
4.02686
5.40653
-555.261
-569.457
-580.443
-588.963
-596.041
-602.696
-609.919
-618.415
-628.758
-641.351
-656.523
-674.554
-695.663
-719.83
-747.069
-777.39
-810.746
-846.778
-885.297
-925.973
-968.656
-1013.19
-1059.63
-1108.01
-1158.58
-1211.63
-1267.49
-1326.49
-43.2247
-43.1291
-42.8979
-42.5405
-42.0658
-41.4818
-40.7973
-40.0199
-39.157
-38.2168
-37.2061
-36.1309
-34.9991
-33.8162
-32.5885
-31.3219
-30.0223
-28.695
-27.3453
-25.9782
-24.5987
-23.2112
-21.8205
-20.4307
-19.0465
-17.6715
-16.3101
-14.9657
-13.6421
-12.3429
-11.0717
-9.83177
-8.62624
-7.45843
-6.33124
-5.24749
-4.21005
-3.22152
-2.28433
-1.40078
-0.572979
0.197114
0.907801
1.5576
2.14525
2.66976
3.13042
3.5268
3.85894
4.12674
4.33019
4.47285
4.55563
4.56396
4.52987
4.51026
4.18703
3.90203
5.307
-554.776
-569.082
-580.166
-588.763
-595.89
-602.57
-609.794
-618.276
-628.595
-641.16
-656.302
-674.308
-695.391
-719.538
-746.759
-777.061
-810.393
-846.407
-884.906
-925.566
-968.237
-1012.76
-1059.19
-1107.56
-1158.14
-1211.19
-1267.01
-1325.95
-1388.68
-46.3477
-46.2588
-46.0291
-45.6678
-45.1848
-44.5873
-43.8855
-43.0865
-42.1981
-41.2286
-40.1846
-39.0735
-37.9022
-36.677
-35.4041
-34.0899
-32.74
-31.3601
-29.9556
-28.5317
-27.0932
-25.6453
-24.1923
-22.7387
-21.2888
-19.8469
-18.417
-17.0029
-15.6084
-14.237
-12.8924
-11.578
-10.2971
-9.05286
-7.84843
-6.68672
-5.57065
-4.50297
-3.48616
-2.52279
-1.61511
-0.765196
0.0250548
0.753901
1.41988
2.02177
2.55862
3.02969
3.43461
3.77345
4.04619
4.25276
4.39663
4.4795
4.48647
4.44624
4.42423
4.10432
3.77928
5.20826
-554.157
-568.589
-579.794
-588.49
-595.688
-602.413
-609.653
-618.133
-628.435
-640.977
-656.093
-674.071
-695.127
-719.252
-746.451
-776.73
-810.037
-846.026
-884.501
-925.139
-967.79
-1012.3
-1058.72
-1107.08
-1157.65
-1210.7
-1266.53
-1325.43
-1388.08
-1455.46
-49.6056
-49.5234
-49.2949
-48.9297
-48.4375
-47.8269
-47.1061
-46.2852
-45.3705
-44.3707
-43.2929
-42.1448
-40.933
-39.6645
-38.3455
-36.9824
-35.5814
-34.1477
-32.6873
-31.2052
-29.7071
-28.1971
-26.6809
-25.1622
-23.6457
-22.1355
-20.6362
-19.1513
-17.6846
-16.2398
-14.8209
-13.4309
-12.0733
-10.7514
-9.46861
-8.22762
-7.0315
-5.8832
-4.78533
-3.74047
-2.75103
-1.81934
-0.947433
-0.137196
0.609634
1.29161
1.90753
2.45647
2.93769
3.35086
3.69608
3.97336
4.18265
4.32728
4.40972
4.41488
4.36782
4.34226
4.02629
3.65851
5.11066
-553.388
-567.964
-579.31
-588.132
-595.427
-602.217
-609.491
-617.981
-628.277
-640.802
-655.896
-673.849
-694.878
-718.977
-746.151
-776.402
-809.676
-845.634
-884.078
-924.69
-967.319
-1011.81
-1058.21
-1106.56
-1157.12
-1210.17
-1265.99
-1324.89
-1387.49
-1454.77
-1526.77
-53.0043
-52.9287
-52.7009
-52.3313
-51.8294
-51.2047
-50.4652
-49.621
-48.6795
-47.6481
-46.536
-45.3498
-44.0963
-42.7836
-41.4172
-40.004
-38.5503
-37.0619
-35.5442
-34.003
-32.4433
-30.8708
-29.2895
-27.7046
-26.1202
-24.5408
-22.9706
-21.4137
-19.8736
-18.3545
-16.8598
-15.3931
-13.9578
-12.5571
-11.1946
-9.87301
-8.59565
-7.36527
-6.18481
-5.05687
-3.98399
-2.96866
-2.0131
-1.11931
-0.289292
0.475331
1.17311
1.80285
2.36362
2.85472
3.27583
3.62706
3.90853
4.12012
4.26502
4.34645
4.34936
4.29472
4.26445
3.95308
3.53989
5.01319
-552.451
-567.189
-578.701
-587.675
-595.093
-601.973
-609.301
-617.819
-628.12
-640.636
-655.713
-673.644
-694.645
-718.717
-745.863
-776.083
-809.318
-845.238
-883.644
-924.223
-966.82
-1011.28
-1057.67
-1106.01
-1156.55
-1209.58
-1265.39
-1324.29
-1386.89
-1454.11
-1525.98
-1601.11
-56.5514
-56.4812
-56.2539
-55.8789
-55.3668
-54.7269
-53.9679
-53.0995
-52.1297
-51.0665
-49.919
-48.6928
-47.3974
-46.0383
-44.6235
-43.1593
-41.6516
-40.1067
-38.5307
-36.9289
-35.307
-33.6695
-32.0223
-30.3696
-28.7159
-27.0659
-25.4238
-23.7933
-22.1787
-20.5839
-19.0122
-17.4675
-15.9533
-14.4726
-13.0292
-11.6258
-10.2658
-8.9521
-7.68756
-6.47504
-5.31716
-4.21645
-3.17532
-2.196
-1.28055
-0.430879
0.351339
1.06473
1.70805
2.28038
2.78108
3.2098
3.56668
3.85194
4.0654
4.21007
4.28989
4.29006
4.22712
4.19079
3.88477
3.42333
4.91604
-551.33
-566.247
-577.95
-587.105
-594.676
-601.674
-609.079
-617.641
-627.962
-640.481
-655.548
-673.462
-694.437
-718.48
-745.593
-775.775
-808.964
-844.839
-883.198
-923.736
-966.296
-1010.73
-1057.09
-1105.41
-1155.94
-1208.95
-1264.74
-1323.63
-1386.22
-1453.44
-1525.24
-1600.21
-1681.56
-60.2535
-60.1885
-59.9603
-59.5794
-59.0561
-58.4
-57.6205
-56.7271
-55.7278
-54.6316
-53.4467
-52.1799
-50.8404
-49.4348
-47.9698
-46.4528
-44.8895
-43.287
-41.6506
-39.9869
-38.301
-36.598
-34.8827
-33.1609
-31.4364
-29.7142
-27.9985
-26.2934
-24.603
-22.931
-21.2813
-19.6575
-18.0628
-16.5009
-14.9752
-13.4889
-12.045
-10.6466
-9.29662
-7.99804
-6.75362
-5.56589
-4.43744
-3.37062
-2.36772
-1.43077
-0.561638
0.238039
0.966779
1.62344
2.20708
2.71707
3.15308
3.51525
3.80386
4.01873
4.16263
4.24022
4.23715
4.16514
4.1213
3.82156
3.30861
4.81887
-550.009
-565.122
-577.041
-586.408
-594.163
-601.308
-608.816
-617.445
-627.803
-640.337
-655.404
-673.306
-694.256
-718.27
-745.348
-775.486
-808.621
-844.441
-882.746
-923.233
-965.748
-1010.15
-1056.47
-1104.76
-1155.27
-1208.27
-1264.05
-1322.91
-1385.49
-1452.69
-1524.49
-1599.35
-1680.62
-1738.31
-64.1185
-64.0576
-63.8279
-63.4397
-62.904
-62.2308
-61.4294
-60.5092
-59.4798
-58.3489
-57.1253
-55.8167
-54.4316
-52.9777
-51.4611
-49.8894
-48.2691
-46.6071
-44.9092
-43.1817
-41.4299
-39.6594
-37.8751
-36.0819
-34.2855
-32.4896
-30.699
-28.9177
-27.1498
-25.3993
-23.67
-21.9655
-20.2893
-18.6449
-17.0357
-15.4651
-13.9358
-12.4515
-11.0148
-9.62883
-8.29634
-7.02005
-5.80261
-4.64655
-3.55426
-2.52793
-1.56958
-0.681147
0.135716
0.87964
1.54937
2.14405
2.66302
3.10596
3.47302
3.76456
3.98037
4.12295
4.19764
4.19078
4.10899
4.05598
3.76343
3.19589
4.7213
-548.476
-563.8
-575.96
-585.569
-593.542
-600.866
-608.507
-617.228
-627.642
-640.207
-655.285
-673.182
-694.112
-718.094
-745.132
-775.221
-808.294
-844.05
-882.289
-922.715
-965.177
-1009.53
-1055.82
-1104.08
-1154.56
-1207.53
-1263.29
-1322.13
-1384.69
-1451.87
-1523.65
-1598.49
-1679.66
-1737.12
-1757.67
-68.155
-68.0967
-67.8639
-67.4675
-66.9181
-66.226
-65.4014
-64.4532
-63.3912
-62.2241
-60.9607
-59.6088
-58.1766
-56.6723
-55.1025
-53.4746
-51.7955
-50.0726
-48.3112
-46.518
-44.6985
-42.8587
-41.0033
-39.1379
-37.267
-35.3959
-33.5284
-31.6695
-29.8227
-27.9922
-26.1817
-24.3951
-22.6359
-20.9077
-19.2137
-17.5572
-15.9416
-14.3699
-12.8451
-11.3703
-9.94832
-8.58195
-7.27398
-6.02701
-4.84345
-3.72579
-2.67617
-1.69665
-0.789115
0.0447812
0.803616
1.48617
2.09161
2.61925
3.06875
3.44031
3.73431
3.95057
4.09126
4.16233
4.15113
4.05881
3.9948
3.71066
3.08512
4.62334
-546.72
-562.269
-574.694
-584.577
-592.802
-600.34
-608.145
-616.985
-627.479
-640.093
-655.195
-673.095
-694.007
-717.958
-744.953
-774.985
-807.986
-843.668
-881.829
-922.186
-964.583
-1008.88
-1055.12
-1103.35
-1153.8
-1206.74
-1262.47
-1321.29
-1383.81
-1450.97
-1522.72
-1597.54
-1678.65
-1736.22
-1756.45
-1776.87
-72.3717
-72.3148
-72.0773
-71.6706
-71.106
-70.3935
-69.5436
-68.5662
-67.4701
-66.265
-64.9593
-63.5623
-62.0815
-60.5244
-58.8997
-57.2138
-55.4741
-53.6878
-51.8613
-50.0006
-48.1116
-46.2005
-44.2722
-42.3322
-40.3856
-38.4371
-36.4912
-34.5525
-32.6251
-30.7127
-28.8197
-26.9493
-25.1058
-23.2921
-21.5119
-19.7684
-18.0649
-16.4045
-14.7903
-13.2253
-11.7125
-10.2547
-8.85459
-7.51506
-6.23863
-5.02778
-3.88487
-2.81212
-1.81161
-0.885155
-0.0344375
0.739089
1.43424
2.05011
2.58608
3.0418
3.41742
3.71341
3.9296
4.06781
4.1345
4.11836
4.01476
3.93777
3.66337
2.97641
4.52367
-544.742
-560.525
-573.235
-583.422
-591.935
-599.722
-607.724
-616.713
-627.312
-639.994
-655.136
-673.049
-693.948
-717.868
-744.815
-774.783
-807.703
-843.299
-881.373
-921.649
-963.971
-1008.21
-1054.39
-1102.57
-1152.98
-1205.89
-1261.59
-1320.37
-1382.87
-1449.99
-1521.71
-1596.48
-1677.54
-1735.13
-1755.54
-1775.68
-1796.56
-76.7784
-76.7208
-76.477
-76.0582
-75.476
-74.7414
-73.8644
-72.8552
-71.7235
-70.4783
-69.1289
-67.6836
-66.1521
-64.5414
-62.8587
-61.1132
-59.3109
-57.4594
-55.5652
-53.6351
-51.6744
-49.6898
-47.6864
-45.6699
-43.6455
-41.6177
-39.5912
-37.571
-35.5607
-33.5652
-31.5876
-29.6322
-27.7021
-25.8016
-23.9338
-22.1017
-20.3088
-18.5583
-16.8533
-15.1968
-13.5917
-12.041
-10.5474
-9.11385
-7.74289
-6.43716
-5.19912
-4.03112
-2.93543
-1.91403
-0.968856
-0.101569
0.686403
1.39386
2.01989
2.56386
3.0254
3.40465
3.70213
3.91772
4.05284
4.11437
4.09261
3.97712
3.88484
3.62172
2.86955
4.42335
-542.554
-558.571
-571.583
-582.1
-590.934
-599.006
-607.242
-616.41
-627.14
-639.913
-655.109
-673.045
-693.936
-717.822
-744.718
-774.616
-807.446
-842.945
-880.92
-921.103
-963.341
-1007.51
-1053.63
-1101.76
-1152.12
-1204.99
-1260.64
-1319.39
-1381.85
-1448.93
-1520.6
-1595.32
-1676.3
-1733.91
-1754.46
-1774.8
-1795.36
-1816.02
-81.386
-81.3252
-81.0724
-80.6396
-80.0376
-79.2782
-78.3721
-77.3289
-76.159
-74.8717
-73.4761
-71.9814
-70.3961
-68.7287
-66.9865
-65.1786
-63.3118
-61.393
-59.4288
-57.4264
-55.392
-53.3314
-51.251
-49.1555
-47.0508
-44.9416
-42.8328
-40.7289
-38.6343
-36.5529
-34.4892
-32.4465
-30.4288
-28.4395
-26.4821
-24.5601
-22.6764
-20.8344
-19.0371
-17.2876
-15.589
-13.9439
-12.3554
-10.8264
-9.35935
-7.95708
-6.62217
-5.35708
-4.16416
-3.04562
-2.00358
-1.03987
-0.156204
0.64597
1.36545
2.00133
2.55293
3.0199
3.40233
3.70079
3.91521
4.04661
4.10213
4.07409
3.94605
3.836
3.58592
2.7648
4.32138
-540.187
-556.429
-569.75
-580.618
-589.802
-598.192
-606.694
-616.073
-626.961
-639.844
-655.11
-673.078
-693.964
-717.819
-744.659
-774.48
-807.213
-842.608
-880.474
-920.553
-962.697
-1006.78
-1052.83
-1100.9
-1151.2
-1204.03
-1259.63
-1318.33
-1380.75
-1447.79
-1519.4
-1594.06
-1674.95
-1732.56
-1753.25
-1773.73
-1794.45
-1814.86
-1835.94
-86.2047
-86.1387
-85.8745
-85.4244
-84.8004
-84.0137
-83.0754
-81.9959
-80.7852
-79.4529
-78.0088
-76.4617
-74.8207
-73.0938
-71.2899
-69.4173
-67.4825
-65.4937
-63.4576
-61.3807
-59.2697
-57.131
-54.9709
-52.7944
-50.6069
-48.4144
-46.2203
-44.0306
-41.8493
-39.6805
-37.5284
-35.3967
-33.289
-31.2093
-29.1608
-27.1469
-25.1708
-23.2357
-21.3447
-19.5008
-17.707
-15.9663
-14.2815
-12.6554
-11.0909
-9.59057
-8.15722
-6.79327
-5.50125
-4.28357
-3.14239
-2.07986
-1.09784
-0.197997
0.618153
1.34939
1.99479
2.55365
3.02564
3.41079
3.70969
3.92235
4.04938
4.09802
4.06292
3.92183
3.79113
3.55612
2.66232
4.21655
-537.697
-554.143
-567.766
-578.994
-588.547
-597.283
-606.08
-615.697
-626.767
-639.779
-655.129
-673.136
-694.021
-717.843
-744.625
-774.366
-806.996
-842.281
-880.029
-919.998
-962.039
-1006.03
-1052
-1099.99
-1150.24
-1203.01
-1258.56
-1317.21
-1379.57
-1446.55
-1518.1
-1592.69
-1673.46
-1731.07
-1751.91
-1772.54
-1793.37
-1813.99
-1834.79
-1856.12
-91.2476
-91.1726
-90.8939
-90.4238
-89.7746
-88.9578
-87.9845
-86.8654
-85.611
-84.2311
-82.7354
-81.1331
-79.4335
-77.6452
-75.7766
-73.8354
-71.8304
-69.7691
-67.6575
-65.5038
-63.3142
-61.0947
-58.8518
-56.5922
-54.3193
-52.0405
-49.7594
-47.4811
-45.2106
-42.9521
-40.7091
-38.4861
-36.2867
-34.1145
-31.973
-29.8654
-27.7952
-25.7653
-23.779
-21.8393
-19.949
-18.1111
-16.3285
-14.6041
-12.9406
-11.3408
-9.80729
-8.34291
-6.95006
-5.63131
-4.38899
-3.22533
-2.14247
-1.1423
-0.226526
0.603344
1.34603
2.00062
2.56641
3.04298
3.43036
3.72915
3.93943
4.06143
4.10225
4.05929
3.90467
3.75022
3.53259
2.56201
4.10948
-535.106
-551.754
-565.672
-577.258
-587.19
-596.287
-605.401
-615.278
-626.547
-639.704
-655.147
-673.202
-694.088
-717.877
-744.598
-774.253
-806.776
-841.945
-879.575
-919.428
-961.362
-1005.26
-1051.14
-1099.06
-1149.24
-1201.93
-1257.42
-1316.01
-1378.3
-1445.23
-1516.71
-1591.21
-1671.85
-1729.43
-1750.45
-1771.22
-1792.17
-1812.94
-1833.92
-1854.97
-1876.45
-96.5276
-96.4403
-96.1432
-95.6496
-94.9714
-94.1209
-93.1095
-91.9476
-90.646
-89.2152
-87.6648
-86.0042
-84.2428
-82.3896
-80.4533
-78.4418
-76.3633
-74.2257
-72.0366
-69.8023
-67.5309
-65.2284
-62.9003