/*--------------------------------*- C++ -*----------------------------------*\
  =========                 |
  \\      /  F ield         | OpenFOAM: The Open Source CFD Toolbox
   \\    /   O peration     | Website:  https://openfoam.org
    \\  /    A nd           | Version:  7
     \\/     M anipulation  |
\*---------------------------------------------------------------------------*/
FoamFile
{
    version     2.0;
    format      ascii;
    class       surfaceScalarField;
    location    "600";
    object      phi;
}
// * * * * * * * * * * * * * * * * * * * * * * * * * * * * * * * * * * * * * //

dimensions      [0 3 -1 0 0 0 0];

internalField   nonuniform List<scalar> 
45818
(
0.07563
0.146572
0.072458
0.140098
0.075726
0.149895
0.0694167
0.133919
0.0725475
0.143277
0.0758022
0.153211
0.0665046
0.128007
0.0695047
0.136962
0.0726187
0.14646
0.07586
0.156518
0.0637049
0.122372
0.0665876
0.130924
0.0695793
0.140001
0.0726883
0.149632
0.0759079
0.159822
0.0610295
0.116953
0.0638048
0.125155
0.0666657
0.133838
0.0696523
0.143037
0.0727446
0.152795
0.0759409
0.163123
0.0584699
0.111781
0.0611378
0.11962
0.0638863
0.127934
0.0667422
0.136748
0.0697071
0.146075
0.072776
0.15596
0.0759506
0.166433
0.0560197
0.106853
0.0585583
0.11436
0.0611994
0.122306
0.0639479
0.130729
0.066782
0.139673
0.0697335
0.149117
0.072794
0.159116
0.0759453
0.169727
0.0536696
0.102137
0.056109
0.109303
0.0586418
0.116918
0.0612744
0.12498
0.0640011
0.13351
0.0668352
0.142571
0.0697683
0.152143
0.0727922
0.16227
0.0759301
0.173017
0.0514182
0.0976263
0.0537606
0.104485
0.0561942
0.11175
0.0587204
0.119472
0.0613396
0.127641
0.0640478
0.136297
0.0668685
0.145471
0.0697615
0.155174
0.0727671
0.165433
0.0759
0.176286
0.0492659
0.0933183
0.0515101
0.0998768
0.0538418
0.106838
0.0562619
0.114209
0.0587756
0.122036
0.0613813
0.130308
0.0640762
0.139089
0.0668651
0.148368
0.0697665
0.158174
0.0727636
0.168569
0.0758332
0.179555
0.0472029
0.0892034
0.049351
0.0954773
0.0515943
0.102124
0.0539175
0.109182
0.056327
0.116657
0.0588258
0.124592
0.0614182
0.132966
0.0640996
0.141855
0.0668702
0.151264
0.0697265
0.161211
0.0726953
0.171707
0.0757599
0.18282
0.0452214
0.0852731
0.0472898
0.0912646
0.0494384
0.0976333
0.0516633
0.104378
0.0539757
0.111534
0.0563753
0.119108
0.0588612
0.127149
0.0614217
0.135644
0.0640897
0.144635
0.0668469
0.154143
0.0696982
0.164209
0.0726354
0.174832
0.0756633
0.186064
0.0433342
0.0815099
0.0453115
0.0872514
0.0473704
0.0933326
0.0495069
0.0997897
0.0517273
0.106627
0.0540263
0.113883
0.0564102
0.121559
0.0588781
0.129692
0.0614436
0.13829
0.0640883
0.147394
0.0668271
0.157015
0.0696417
0.167202
0.0725471
0.177948
0.0755468
0.189313
0.0415163
0.0779265
0.0434161
0.0834053
0.0453952
0.0892265
0.047442
0.0953975
0.0495741
0.101943
0.051781
0.108872
0.0540742
0.116219
0.056442
0.123995
0.0589036
0.132232
0.0614323
0.140946
0.0640586
0.150162
0.0667606
0.159896
0.0695618
0.170187
0.0724524
0.181042
0.0754154
0.19254
0.039784
0.0744916
0.041605
0.0797376
0.0434967
0.0853038
0.0454637
0.0912049
0.047511
0.0974606
0.0496259
0.104098
0.0518172
0.111129
0.0540969
0.118564
0.0564539
0.126445
0.0588823
0.134782
0.061411
0.143593
0.0640055
0.152917
0.0666942
0.162763
0.0694671
0.173173
0.072316
0.184142
0.0752607
0.195753
0.0381198
0.0712227
0.0398632
0.0762333
0.0416824
0.0815518
0.0435746
0.0871929
0.0455309
0.093185
0.0475574
0.0995291
0.0496679
0.106247
0.0518569
0.113369
0.0541133
0.120904
0.0564568
0.12887
0.0588879
0.137305
0.0613798
0.146219
0.0639609
0.155651
0.0666162
0.165614
0.0693524
0.176136
0.0721746
0.187228
0.0750945
0.19894
0.0365249
0.0680949
0.0382008
0.0728851
0.0399461
0.0779696
0.0417572
0.0833692
0.0436337
0.0890901
0.0455854
0.095157
0.0476125
0.101585
0.0497045
0.1084
0.0518765
0.115606
0.0541207
0.12324
0.0564394
0.131319
0.0588334
0.139852
0.0613203
0.14886
0.063878
0.158389
0.06652
0.168447
0.0692328
0.179078
0.0720167
0.190306
0.0748733
0.202132
0.035002
0.0651017
0.0366077
0.069688
0.0382806
0.0745507
0.0400128
0.079714
0.0418181
0.0851848
0.04369
0.0909854
0.0456287
0.0971408
0.0476423
0.103647
0.0497285
0.110548
0.0518834
0.117843
0.0541154
0.125564
0.0564208
0.133731
0.0588007
0.142371
0.0612424
0.151495
0.0637902
0.161119
0.0663904
0.171289
0.069075
0.18202
0.0718405
0.193338
0.0746638
0.205293
0.0335435
0.0622531
0.035079
0.0666304
0.0366843
0.0712842
0.0383477
0.0762158
0.0400818
0.0814503
0.0418726
0.0870022
0.0437352
0.092879
0.0456716
0.0991114
0.0476672
0.105708
0.0497399
0.112691
0.0518776
0.120081
0.0540963
0.127889
0.0563832
0.136149
0.0587447
0.144869
0.0611764
0.154109
0.063669
0.16384
0.0662509
0.174113
0.0688988
0.184961
0.0716261
0.196376
0.0744211
0.20844
0.0321408
0.0595292
0.033616
0.0637161
0.0351561
0.0681586
0.0367569
0.072875
0.0384122
0.0778854
0.0401332
0.0831897
0.0419259
0.0888115
0.0437776
0.094773
0.0456947
0.101084
0.0476867
0.107761
0.04974
0.114829
0.0518693
0.122308
0.0540595
0.130212
0.0563267
0.138567
0.0586604
0.147385
0.0610737
0.156705
0.063543
0.166548
0.0660916
0.17692
0.0687195
0.187868
0.0713968
0.1994
0.0741536
0.211574
0.0308022
0.0569259
0.0322138
0.0609314
0.0336936
0.0651786
0.0352206
0.0696949
0.0368133
0.0744739
0.0384718
0.0795469
0.040187
0.0849286
0.0419652
0.0906239
0.0438075
0.0966602
0.0457174
0.103053
0.0476886
0.109813
0.0497298
0.116968
0.051837
0.124531
0.0540188
0.13252
0.0562575
0.140969
0.0585755
0.149883
0.0609511
0.159296
0.0634104
0.169229
0.0659222
0.179718
0.0684951
0.19077
0.0711391
0.202415
0.0738494
0.214689
0.0295169
0.0544443
0.0308723
0.0582674
0.0322919
0.0623332
0.0337586
0.0666406
0.0352874
0.0712208
0.036872
0.0760736
0.0385161
0.0812178
0.0402245
0.0866694
0.0419919
0.0924394
0.0438247
0.0985529
0.0457238
0.105018
0.0476843
0.111858
0.049707
0.119098
0.0518021
0.126747
0.0539541
0.134824
0.0561794
0.143366
0.0584627
0.152372
0.060827
0.16188
0.0632411
0.17191
0.0657281
0.182485
0.0682776
0.193631
0.0708834
0.205381
0.073547
0.217773
0.0282876
0.0520723
0.0295865
0.0557301
0.0309445
0.0596148
0.032356
0.0637358
0.0338209
0.0681071
0.035343
0.0727499
0.0369245
0.0776652
0.0385667
0.0828755
0.040263
0.0883983
0.042021
0.0942432
0.043838
0.100439
0.0457177
0.106985
0.047661
0.113904
0.0496766
0.121224
0.0517446
0.128957
0.0538782
0.137125
0.0560837
0.145745
0.0583446
0.154854
0.0606577
0.164463
0.0630469
0.174592
0.0655021
0.18526
0.0680085
0.196506
0.0705676
0.20836
0.073193
0.220838
0.0271087
0.049807
0.0283569
0.0533019
0.0296642
0.0570104
0.0310154
0.0609553
0.0324152
0.0651416
0.0338784
0.0695718
0.0353973
0.0742771
0.0369657
0.0792663
0.0385908
0.0845478
0.0402803
0.090139
0.0420288
0.0960524
0.0438413
0.102315
0.0457075
0.108938
0.0476401
0.115941
0.049625
0.123343
0.0516768
0.131158
0.0537933
0.139415
0.0559628
0.148126
0.0582016
0.15731
0.0604953
0.167015
0.0628612
0.177232
0.0652647
0.188004
0.0677294
0.199344
0.0702686
0.211285
0.0728375
0.223872
0.0259817
0.0476436
0.0271795
0.0509844
0.0284283
0.0545378
0.0297229
0.0583029
0.0310724
0.0622981
0.0324767
0.0665432
0.0339268
0.0710423
0.0354376
0.0758051
0.0370029
0.0808541
0.0386262
0.0862019
0.0402999
0.0918679
0.0420389
0.0978547
0.0438294
0.104193
0.0456811
0.110897
0.0475902
0.117976
0.0495666
0.125453
0.0515977
0.133354
0.0536894
0.141689
0.0558355
0.150492
0.0580419
0.159764
0.060323
0.169553
0.0626238
0.179873
0.064999
0.190734
0.0674254
0.202187
0.0698947
0.214227
0.0724254
0.226906
0.0249
0.04558
0.0260493
0.0487738
0.027245
0.0521677
0.0284875
0.0557732
0.0297818
0.0595935
0.0311259
0.0636489
0.0325207
0.0679493
0.0339739
0.072506
0.0354717
0.0773363
0.0370288
0.0824515
0.0386377
0.0878641
0.0403069
0.0936
0.0420252
0.0996589
0.0438111
0.106063
0.0456507
0.112837
0.0475441
0.119998
0.0494934
0.127558
0.0515047
0.135539
0.053568
0.143956
0.055693
0.152841
0.0578697
0.162217
0.0600991
0.172078
0.0623899
0.182483
0.0647268
0.193433
0.0671066
0.204976
0.0695376
0.217115
0.0720167
0.229893
0.0238663
0.0436083
0.0249676
0.0466616
0.0261154
0.0499034
0.0273065
0.0533487
0.0285505
0.0570045
0.029838
0.0608814
0.0311789
0.0649907
0.0325683
0.069355
0.0340085
0.0739691
0.0355044
0.0788607
0.0370471
0.0840421
0.0386528
0.0895181
0.0403076
0.0953175
0.0420151
0.101455
0.0437789
0.107935
0.0455991
0.114781
0.0474753
0.122016
0.0494049
0.129658
0.0513891
0.137717
0.0534276
0.146222
0.0555229
0.155188
0.0576735
0.164643
0.0598652
0.174602
0.0621177
0.185092
0.064408
0.196131
0.0667628
0.20775
0.0691423
0.219989
0.0715682
0.232854
0.0228747
0.0417265
0.0239302
0.0446457
0.0250306
0.0477465
0.0261744
0.0510355
0.0273713
0.0545279
0.0286022
0.0582402
0.0298893
0.062171
0.0312234
0.0663356
0.0326111
0.0707524
0.0340381
0.0754354
0.0355232
0.0803845
0.0370642
0.0856308
0.0386491
0.0911766
0.0402894
0.0970432
0.0419874
0.103246
0.0437355
0.109799
0.0455372
0.11672
0.0473913
0.12403
0.0493051
0.131742
0.0512645
0.139881
0.0532783
0.148466
0.0553452
0.157516
0.0574548
0.167053
0.0596248
0.177095
0.0618222
0.187677
0.0640876
0.198807
0.0663774
0.210515
0.068727
0.222831
0.071083
0.235799
0.0219252
0.0399297
0.0229378
0.042719
0.0239932
0.0456831
0.0250911
0.0488298
0.0262352
0.0521716
0.0274158
0.0557143
0.0286576
0.0594719
0.0299365
0.0634579
0.0312603
0.0676863
0.0326335
0.072157
0.0340624
0.0768963
0.0355372
0.0819115
0.0370672
0.0872126
0.0386441
0.092822
0.0402736
0.0987571
0.0419508
0.105031
0.0436844
0.111652
0.0454654
0.118645
0.047301
0.126034
0.0491863
0.13382
0.0511223
0.142037
0.0531127
0.150699
0.0551435
0.159828
0.0572271
0.169451
0.0593517
0.179566
0.0615286
0.190236
0.0637339
0.20145
0.0659755
0.213267
0.0682552
0.225658
0.0705814
0.238704
0.0210153
0.038214
0.021987
0.0408805
0.0229985
0.0437136
0.024052
0.0467222
0.0251475
0.0499175
0.0262865
0.0533009
0.0274704
0.0569015
0.0286955
0.060713
0.029969
0.0647492
0.0312946
0.0690252
0.032666
0.0735535
0.0340832
0.0783503
0.0355484
0.0834303
0.037059
0.0887976
0.0386214
0.0944741
0.0402378
0.10047
0.0419043
0.106811
0.0436144
0.113502
0.0453832
0.120563
0.0471981
0.128022
0.049055
0.135887
0.0509676
0.144182
0.0529232
0.152919
0.0549279
0.162127
0.0569754
0.171827
0.0590581
0.182036
0.0611933
0.192777
0.0633553
0.20407
0.0655637
0.215958
0.0677902
0.22845
0.0700365
0.241589
5.56537e-06
-5.38343e-05
0.0201439
0.0365775
0.0210743
0.0391266
0.022046
0.0418331
0.0230556
0.04471
0.0241076
0.047762
0.0252016
0.0510024
0.0263339
0.0544374
0.0275137
0.0580833
0.028737
0.061945
0.0300087
0.0660351
0.0313212
0.07037
0.0326759
0.0749608
0.034085
0.0798137
0.0355407
0.0849487
0.0370446
0.0903745
0.0385962
0.0961158
0.0401954
0.102179
0.0418424
0.108583
0.0435381
0.115348
0.0452798
0.122481
0.0470712
0.130006
0.0489147
0.13794
0.0507939
0.146311
0.0527184
0.155128
0.0546898
0.164412
0.0567012
0.174184
0.0587515
0.184478
0.060838
0.195294
0.0629568
0.206677
0.0651036
0.218645
0.0672785
0.231208
0.069485
0.244415
1.15052e-05
-6.26234e-05
6.02585e-06
-5.98601e-05
0.019309
0.0350119
0.0202031
0.0374488
0.0211335
0.0400391
0.0221003
0.0427884
0.0231098
0.0457079
0.0241588
0.0488048
0.0252445
0.0520918
0.0263777
0.0555734
0.0275557
0.0592645
0.0287723
0.0631814
0.0300309
0.0673255
0.031338
0.0717079
0.0326945
0.0763512
0.0340905
0.081264
0.0355331
0.0864601
0.0370212
0.0919494
0.0385583
0.097753
0.0401445
0.103877
0.0417743
0.110347
0.0434479
0.11718
0.0451725
0.12438
0.0469368
0.131984
0.0487468
0.139987
0.0506012
0.148428
0.0524987
0.157319
0.0544327
0.166681
0.0564031
0.176532
0.0584161
0.1869
0.0604495
0.197802
0.0625301
0.209251
0.0646286
0.221295
0.0667454
0.233947
0.068877
0.247231
1.71165e-05
-6.80064e-05
1.25151e-05
-6.91127e-05
5.78548e-06
-6.56456e-05
0.0185101
0.0335204
0.0193651
0.0358499
0.0202586
0.0383237
0.0211875
0.0409519
0.0221551
0.043743
0.0231612
0.0467055
0.0242058
0.0498435
0.0252911
0.0531785
0.0264189
0.0567103
0.0275902
0.0604466
0.0287999
0.0644124
0.0300531
0.0686103
0.0313521
0.0730502
0.0326919
0.0777498
0.034077
0.0827201
0.0355116
0.0879698
0.0369865
0.0935212
0.0385105
0.0993869
0.0400746
0.105577
0.0416886
0.112106
0.043345
0.119007
0.0450439
0.126273
0.0467847
0.133946
0.0485677
0.142021
0.0503973
0.15053
0.0522587
0.159493
0.054158
0.168926
0.0560924
0.178856
0.0580567
0.189293
0.0600496
0.200282
0.0620685
0.211811
0.0641104
0.22393
0.0661706
0.236654
0.0682441
0.250014
2.21515e-05
-7.25587e-05
1.89893e-05
-7.44806e-05
1.20155e-05
-7.53427e-05
5.30409e-06
-7.09497e-05
0.0177438
0.0320956
0.0185645
0.034321
0.0194203
0.0366882
0.0203113
0.0391998
0.0212396
0.0418675
0.0222052
0.044699
0.0232078
0.0477034
0.0242515
0.0508831
0.0253328
0.0542646
0.0264574
0.057843
0.027612
0.0616346
0.0288213
0.0656443
0.0300678
0.0698947
0.0313536
0.0743885
0.0326889
0.0791379
0.034065
0.0841667
0.0354837
0.0894726
0.0369492
0.0950825
0.0384511
0.10101
0.0400007
0.107265
0.0415889
0.113862
0.0432259
0.120825
0.0449013
0.128157
0.0466187
0.135895
0.0483732
0.144045
0.0501645
0.152624
0.0519948
0.161656
0.0538594
0.171159
0.0557564
0.181156
0.057681
0.191661
0.0596333
0.202717
0.0615969
0.214324
0.0635857
0.226515
0.0655927
0.239305
0.0675947
0.252755
2.66259e-05
-7.71063e-05
2.5176e-05
-7.87454e-05
1.86414e-05
-8.11064e-05
1.09069e-05
-8.09455e-05
4.75768e-06
-7.57073e-05
0.0170099
0.0307341
0.0177978
0.0328622
0.0186179
0.0351234
0.0194727
0.0375269
0.0203631
0.0400763
0.0212894
0.0427833
0.0222516
0.0456553
0.0232513
0.0487036
0.0242846
0.0519312
0.0253691
0.055353
0.0264797
0.0589752
0.0276402
0.0628157
0.0288364
0.0668756
0.0300748
0.0711736
0.0313539
0.0757235
0.0326774
0.0805255
0.0340426
0.0856078
0.0354447
0.0909771
0.0368893
0.0966442
0.0383831
0.102628
0.0399119
0.108942
0.0414844
0.115604
0.0430979
0.122628
0.0447462
0.130029
0.0464365
0.137831
0.0481662
0.146043
0.049924
0.154695
0.051721
0.163795
0.0535432
0.173372
0.0553942
0.183443
0.0572701
0.194025
0.0591734
0.205141
0.0610955
0.216815
0.0630177
0.22909
0.0649532
0.241947
0.0669021
0.25545
3.05756e-05
-8.19493e-05
3.09176e-05
-8.28478e-05
2.52707e-05
-8.53747e-05
1.71146e-05
-8.73141e-05
9.83189e-06
-8.60197e-05
4.41683e-06
-8.01241e-05
0.0163075
0.0294345
0.0170618
0.0314701
0.0178491
0.033631
0.0186686
0.0359275
0.0195237
0.0383663
0.0204098
0.0409559
0.0213336
0.0437013
0.0222932
0.0466133
0.0232899
0.0496983
0.0243292
0.0529711
0.0253933
0.0564394
0.0265071
0.0601083
0.0276595
0.0639926
0.0288453
0.068105
0.0300755
0.0724519
0.0313479
0.0770531
0.0326519
0.0819162
0.0340041
0.0870484
0.0353966
0.0924699
0.0368282
0.0981991
0.0383011
0.104239
0.0398128
0.110613
0.0413645
0.117337
0.0429523
0.124422
0.0445784
0.131887
0.0462416
0.139756
0.0479316
0.148035
0.0496647
0.156751
0.0514156
0.165922
0.0532017
0.175565
0.0550167
0.185697
0.0568453
0.196353
0.05869
0.207546
0.0605424
0.21929
0.0624298
0.231613
0.0642987
0.24455
0.0661712
0.258106
3.40828e-05
-8.71984e-05
3.61889e-05
-8.72206e-05
3.17602e-05
-8.93374e-05
2.36754e-05
-9.19355e-05
1.54818e-05
-9.29639e-05
9.14162e-06
-9.07444e-05
4.19499e-06
-8.43191e-05
0.0156332
0.0281945
0.0163577
0.0301386
0.0171128
0.0322064
0.0178971
0.0344025
0.0187175
0.0367337
0.0195686
0.0392074
0.020456
0.0418334
0.0213772
0.0446173
0.0223346
0.0475687
0.0233273
0.0507002
0.0243548
0.0540096
0.0254234
0.0575231
0.0265255
0.0612422
0.0276675
0.0651704
0.0288452
0.0693354
0.030065
0.0737348
0.0313242
0.0783808
0.0326265
0.0832937
0.0339629
0.0884821
0.0353373
0.0939607
0.0367531
0.0997472
0.0382066
0.105845
0.0396988
0.112279
0.0412297
0.11906
0.042789
0.126212
0.0443867
0.133742
0.0460215
0.141666
0.0476844
0.150016
0.0493777
0.158789
0.0511025
0.168022
0.0528453
0.177736
0.054608
0.187934
0.0563893
0.198653
0.0581916
0.209897
0.0599962
0.221723
0.0618036
0.234108
0.0636095
0.247112
0.0654005
0.260735
3.72342e-05
-9.29186e-05
4.10215e-05
-9.2031e-05
3.79539e-05
-9.34143e-05
3.03426e-05
-9.60045e-05
2.17138e-05
-9.81675e-05
1.43515e-05
-9.81738e-05
8.64413e-06
-9.51935e-05
4.06585e-06
-8.83849e-05
0.0149887
0.0270088
0.0156826
0.0288696
0.0164051
0.0308463
0.0171596
0.032944
0.0179457
0.0351742
0.0187626
0.0375398
0.0196136
0.0400498
0.020497
0.0427136
0.0214164
0.0455355
0.0223661
0.0485299
0.023357
0.051698
0.0243791
0.0550539
0.0254373
0.0586113
0.0265354
0.0623743
0.0276692
0.0663464
0.0288452
0.0705552
0.0300582
0.0750008
0.031303
0.0797043
0.0325858
0.0846707
0.0339068
0.0899126
0.0352704
0.0954434
0.0366717
0.101282
0.0381044
0.107439
0.0395722
0.113936
0.0410747
0.120774
0.0426182
0.12798
0.0441888
0.135575
0.0457901
0.14356
0.0474232
0.15197
0.0490768
0.160815
0.0507583
0.170109
0.0524636
0.179881
0.054179
0.190144
0.0559143
0.200931
0.0576518
0.212242
0.0594054
0.224122
0.0611426
0.236575
0.0628903
0.249622
0.0646232
0.263311
4.0085e-05
-9.91077e-05
4.54523e-05
-9.73494e-05
4.38662e-05
-9.79432e-05
3.7049e-05
-0.000100121
2.82726e-05
-0.000102563
2.01478e-05
-0.000103964
1.35899e-05
-0.00010312
8.44423e-06
-9.95719e-05
4.08276e-06
-9.24677e-05
0.0143702
0.0258791
0.0150345
0.0276569
0.0157293
0.0295454
0.0164526
0.0315533
0.0172055
0.0336842
0.017991
0.0359458
0.0188063
0.0383471
0.0196553
0.0408915
0.0205347
0.0435953
0.0214506
0.046451
0.0224013
0.0494855
0.0233818
0.0526952
0.0243985
0.0560928
0.025455
0.0596918
0.0265449
0.0634986
0.0276684
0.0675232
0.0288339
0.0717795
0.0300275
0.0762763
0.0312655
0.0810246
0.0325366
0.0860409
0.0338467
0.0913363
0.0351909
0.0969243
0.0365678
0.102819
0.0379847
0.109027
0.0394353
0.115576
0.0409133
0.122479
0.0424297
0.129739
0.0439732
0.137392
0.0455411
0.145443
0.0471358
0.153911
0.0487547
0.162818
0.0503951
0.172177
0.0520531
0.182006
0.0537237
0.192335
0.0554091
0.203173
0.0570956
0.214551
0.0587803
0.226484
0.0604701
0.238995
0.0621279
0.252117
0.0637794
0.26585
4.27508e-05
-0.000105833
4.96009e-05
-0.000103256
4.94802e-05
-0.000102963
4.36072e-05
-0.000104501
3.50175e-05
-0.000106865
2.64603e-05
-0.000108876
1.91345e-05
-0.000109508
1.32876e-05
-0.000107963
8.40425e-06
-0.000103893
4.04742e-06
-9.65151e-05
0.0137777
0.0247989
0.0144153
0.0264982
0.0150814
0.0283048
0.0157751
0.0302229
0.0164978
0.032261
0.0172511
0.0344241
0.0180331
0.036719
0.0188473
0.0391551
0.0196919
0.0417343
0.0205722
0.0444737
0.02148
0.0473723
0.0224239
0.0504434
0.023399
0.0536947
0.0244167
0.0571311
0.0254614
0.0607753
0.0265409
0.064626
0.0276612
0.0686958
0.0288087
0.0729984
0.0300005
0.0775413
0.0312204
0.0823408
0.032482
0.0874056
0.0337741
0.0927531
0.0351001
0.0983919
0.0364626
0.104341
0.0378537
0.110608
0.0392799
0.117209
0.0407394
0.124169
0.0422187
0.131494
0.0437351
0.139198
0.0452732
0.147305
0.0468345
0.155831
0.0484186
0.164795
0.0500143
0.174216
0.0516276
0.184103
0.0532496
0.194494
0.054874
0.205395
0.0565055
0.216826
0.0581304
0.228824
0.0597409
0.241382
0.0613356
0.254561
0.062919
0.268342
4.52471e-05
-0.000113078
5.34897e-05
-0.000109722
5.48355e-05
-0.000108612
5.00603e-05
-0.000109416
4.19052e-05
-0.000111389
3.31433e-05
-0.000113548
2.52192e-05
-0.000114961
1.86371e-05
-0.000114858
1.31916e-05
-0.00011275
8.46397e-06
-0.00010831
4.13257e-06
-0.000100648
0.0132096
0.023768
0.0138216
0.0253926
0.0144601
0.0271196
0.0151246
0.0289552
0.0158186
0.0309021
0.0165402
0.0329719
0.0172914
0.0351658
0.0180728
0.0374935
0.0188845
0.0399625
0.0197264
0.0425801
0.0205994
0.0453543
0.0215067
0.0482895
0.0224452
0.0513972
0.0234213
0.05469
0.0244208
0.0581716
0.0254665
0.0618498
0.0265393
0.0657479
0.0276442
0.0698603
0.0287885
0.0742103
0.0299623
0.0787994
0.0311754
0.0836475
0.0324126
0.0887671
0.0336915
0.0941617
0.0350018
0.0998527
0.0363384
0.105856
0.0377101
0.112178
0.0391128
0.118836
0.0405429
0.125845
0.0420001
0.133229
0.0434817
0.140989
0.0449827
0.149157
0.0465106
0.157739
0.04805
0.166759
0.0496096
0.176234
0.0511705
0.186182
0.0527465
0.196622
0.0543186
0.207582
0.0558866
0.21907
0.0574492
0.231115
0.0589922
0.243726
0.0605318
0.256948
0.0620154
0.270799
4.76864e-05
-0.000120956
5.72331e-05
-0.000116821
5.99846e-05
-0.000114871
5.63539e-05
-0.000114905
4.88228e-05
-0.000116334
4.01091e-05
-0.000118355
3.1735e-05
-0.000120064
2.45018e-05
-0.000120825
1.83839e-05
-0.00012005
1.31824e-05
-0.000117469
8.53996e-06
-0.000112717
4.19764e-06
-0.000104845
0.0126669
0.022782
0.0132533
0.0243363
0.0138647
0.025988
0.0145021
0.0277421
0.0151679
0.0296059
0.0158608
0.0315815
0.0165818
0.0336816
0.0173304
0.0359082
0.0181098
0.0382682
0.0189189
0.04077
0.0197594
0.0434201
0.0206288
0.0462322
0.0215308
0.049204
0.0224653
0.0523532
0.0234296
0.0556813
0.0244301
0.0592081
0.025459
0.06293
0.0265251
0.0668671
0.0276219
0.0710269
0.0287508
0.0754218
0.0299128
0.0800621
0.0311051
0.0849549
0.0323355
0.090123
0.0335936
0.0955699
0.0348858
0.101305
0.036208
0.107358
0.0375589
0.113732
0.0389322
0.120447
0.0403388
0.127506
0.0417625
0.134948
0.0432084
0.142764
0.044681
0.150987
0.0461677
0.159622
0.0476674
0.168701
0.0491773
0.178227
0.0506922
0.188236
0.0522122
0.198728
0.0537343
0.209734
0.055245
0.221274
0.0567391
0.233368
0.0582163
0.246041
0.0596614
0.259302
0.061072
0.273206
5.01087e-05
-0.000129492
6.08711e-05
-0.000124594
6.49596e-05
-0.000121796
6.25652e-05
-0.000121082
5.58008e-05
-0.000121883
4.72981e-05
-0.000123523
3.86498e-05
-0.00012527
3.09161e-05
-0.000126479
2.41491e-05
-0.00012659
1.83656e-05
-0.000125233
1.33361e-05
-0.000122265
8.703e-06
-0.000117223
4.24576e-06
-0.000109091
0.0121461
0.021842
0.012707
0.0233283
0.0132943
0.0249067
0.0139065
0.0265836
0.0145442
0.0283658
0.0152084
0.0302583
0.0158997
0.0322636
0.0166191
0.0343929
0.0173681
0.0366499
0.0181444
0.0390427
0.0189525
0.0415769
0.0197845
0.0442645
0.0206549
0.0471081
0.0215464
0.0501229
0.0224741
0.0533087
0.0234344
0.056677
0.0244231
0.060244
0.0254453
0.0640098
0.0264996
0.0679894
0.027586
0.0721917
0.0287055
0.0766291
0.0298543
0.0813129
0.0310413
0.0862492
0.0322522
0.0914644
0.0334922
0.0969634
0.0347622
0.102751
0.03606
0.108857
0.0373851
0.115279
0.0387412
0.122044
0.0401121
0.129157
0.04151
0.136646
0.0429261
0.144519
0.0443603
0.152794
0.0458036
0.161485
0.0472635
0.170615
0.0487261
0.180193
0.0501976
0.190251
0.0516626
0.2008
0.0531201
0.211859
0.0545622
0.223451
0.0559951
0.23559
0.0573961
0.248306
0.0587744
0.2616
0.0600986
0.27555
5.25781e-05
-0.000138713
6.44434e-05
-0.000133064
6.98723e-05
-0.000129507
6.87068e-05
-0.000127938
6.27822e-05
-0.000128064
5.46793e-05
-0.000129264
4.59816e-05
-0.000130855
3.78444e-05
-0.000132198
3.04635e-05
-0.000132793
2.40675e-05
-0.000132292
1.85369e-05
-0.000130434
1.35612e-05
-0.000127123
8.79999e-06
-0.000121777
4.20966e-06
-0.000113301
0.0116463
0.0209441
0.0121856
0.0223634
0.0127478
0.0238748
0.0133339
0.0254793
0.013946
0.0271818
0.0145835
0.0289907
0.0152485
0.0309095
0.0159377
0.0329449
0.016656
0.035105
0.0174001
0.0373942
0.0181743
0.0398209
0.0189744
0.042387
0.0198104
0.0451089
0.0206654
0.0479891
0.0215643
0.0510326
0.0224831
0.05426
0.0234366
0.0576635
0.0244199
0.0612694
0.0254303
0.0650791
0.0264792
0.0690961
0.0275525
0.0733447
0.0286552
0.0778282
0.029796
0.0825581
0.0309585
0.087543
0.03215
0.0928067
0.0333755
0.0983501
0.0346238
0.104187
0.0359044
0.110338
0.037205
0.116815
0.0385241
0.123632
0.0398678
0.130799
0.0412373
0.138335
0.0426176
0.146261
0.044012
0.154586
0.0454206
0.163328
0.0468308
0.17251
0.0482499
0.182141
0.0496664
0.192247
0.0510781
0.202842
0.0524756
0.213946
0.0538592
0.225587
0.0552198
0.237766
0.0565474
0.250534
0.0578299
0.263869
0.0590904
0.277851
5.51139e-05
-0.000148744
6.8073e-05
-0.000142343
7.47293e-05
-0.000137921
7.48004e-05
-0.0001356
6.98744e-05
-0.00013503
6.224e-05
-0.000135625
5.35738e-05
-0.000136856
4.51229e-05
-0.000138133
3.72797e-05
-0.000139014
3.02925e-05
-0.000139018
2.42305e-05
-0.000137986
1.88112e-05
-0.000135684
1.36789e-05
-0.000132002
8.76635e-06
-0.000126334
4.23869e-06
-0.000117539
0.0111693
0.0200849
0.0116846
0.0214451
0.0122232
0.0228879
0.0127872
0.0244215
0.0133742
0.0260511
0.0139856
0.0277798
0.014622
0.0296173
0.015283
0.0315642
0.0159735
0.0336275
0.0166887
0.0358164
0.0174321
0.0381364
0.0182023
0.0405929
0.0189995
0.043198
0.0198279
0.0459464
0.0206889
0.0488646
0.0215696
0.0519461
0.0224843
0.0552123
0.0234275
0.0586559
0.024404
0.0622957
0.0254091
0.0661492
0.0264399
0.0702088
0.0275014
0.0744985
0.0285974
0.0790268
0.029715
0.0838016
0.0308631
0.0888299
0.0320478
0.0941344
0.0332489
0.099725
0.034475
0.105617
0.0357275
0.111815
0.0370011
0.118338
0.0382993
0.125201
0.0396159
0.132421
0.0409497
0.140003
0.0422938
0.147979
0.0436511
0.156355
0.0450113
0.165148
0.0463804
0.17438
0.0477486
0.184059
0.0491104
0.194214
0.0504634
0.204854
0.0518036
0.216001
0.0531235
0.227683
0.0544044
0.239909
0.055662
0.252701
0.0568728
0.266086
0.0580339
0.280081
5.78769e-05
-0.000159662
7.17976e-05
-0.000152468
7.96559e-05
-0.00014727
8.09816e-05
-0.000144102
7.69949e-05
-0.000142721
6.99605e-05
-0.000142751
6.15117e-05
-0.000143562
5.29355e-05
-0.000144669
4.46903e-05
-0.000145544
3.71265e-05
-0.000145848
3.04802e-05
-0.000145268
2.44906e-05
-0.000143665
1.89931e-05
-0.000140998
1.37065e-05
-0.000136942
8.73498e-06
-0.00013083
4.10153e-06
-0.000121641
0.0107103
0.0192657
0.0112046
0.020565
0.0117216
0.0219467
0.012262
0.0234131
0.0128239
0.0249718
0.0134111
0.0266255
0.0140224
0.0283794
0.0146581
0.0302421
0.0153199
0.0322177
0.0160054
0.0343107
0.0167181
0.0365304
0.0174585
0.0388802
0.0182242
0.0413682
0.0190197
0.0440062
0.0198428
0.0467925
0.0206883
0.0497459
0.0215715
0.0528589
0.022478
0.0561617
0.0234157
0.0596442
0.0243819
0.0633228
0.0253752
0.0672139
0.0263943
0.0713159
0.0274491
0.0756468
0.0285269
0.0802149
0.0296315
0.0850331
0.0307678
0.0901099
0.0319217
0.0954616
0.0331034
0.101097
0.0343114
0.107033
0.0355431
0.113273
0.0367895
0.119848
0.0380583
0.126758
0.0393428
0.134027
0.0406367
0.14166
0.0419501
0.14968
0.0432627
0.158104
0.0445881
0.16694
0.0459088
0.17622
0.0472246
0.185945
0.0485354
0.196142
0.049831
0.206827
0.0511004
0.218025
0.0523517
0.229736
0.053569
0.242002
0.0547418
0.254832
0.0558665
0.268253
0.0569134
0.282266
6.08592e-05
-0.000171546
7.57082e-05
-0.000163572
8.46983e-05
-0.000157511
8.71996e-05
-0.000153487
8.42466e-05
-0.000151354
7.79241e-05
-0.000150684
6.9736e-05
-0.000150975
6.11077e-05
-0.000151735
5.25147e-05
-0.000152493
4.45397e-05
-0.000152957
3.73236e-05
-0.000152692
3.07984e-05
-0.000151575
2.4768e-05
-0.00014944
1.90636e-05
-0.000146355
1.36402e-05
-0.000141847
8.44054e-06
-0.000135169
3.92226e-06
-0.000125563
0.0102702
0.0184834
0.0107444
0.0197258
0.0112404
0.0210462
0.0117583
0.0224504
0.012298
0.023939
0.0128607
0.0255223
0.0134477
0.0272002
0.0140564
0.0289811
0.0146915
0.0308706
0.0153507
0.0328724
0.0160351
0.0349937
0.0167471
0.0372417
0.017484
0.0396204
0.0182486
0.0421393
0.0190387
0.0448102
0.0198527
0.0476281
0.0206979
0.0506194
0.0215693
0.0537677
0.0224718
0.0571057
0.0233992
0.060627
0.0243536
0.0643445
0.0253351
0.068273
0.0263474
0.0724176
0.0273855
0.0767882
0.0284502
0.0813962
0.029543
0.0862579
0.0306499
0.0913818
0.0317907
0.0967742
0.0329579
0.10245
0.0341401
0.108436
0.0353397
0.114723
0.0365617
0.121345
0.0378033
0.128298
0.0390507
0.135613
0.0403126
0.143297
0.0415825
0.151361
0.0428617
0.15983
0.0441373
0.168712
0.045407
0.178037
0.0466743
0.187806
0.0479278
0.198046
0.0491575
0.20877
0.0503731
0.220003
0.0515509
0.231754
0.0526933
0.24405
0.0537877
0.256911
0.0548276
0.270339
0.055808
0.284379
6.41888e-05
-0.000184545
7.98729e-05
-0.000175711
8.99356e-05
-0.00016881
9.36123e-05
-0.000163924
9.17142e-05
-0.000160955
8.61406e-05
-0.00015957
7.83337e-05
-0.000159282
6.97494e-05
-0.000159617
6.09708e-05
-0.000160191
5.25384e-05
-0.000160492
4.47452e-05
-0.000160379
3.76304e-05
-0.000159524
3.1043e-05
-0.00015785
2.48958e-05
-0.000155272
1.89444e-05
-0.00015166
1.32536e-05
-0.00014666
8.13766e-06
-0.000139384
3.78795e-06
-0.000129351
0.00985104
0.0177346
0.0103042
0.0189236
0.0107796
0.0201866
0.0112764
0.0215281
0.0117946
0.0229539
0.0123341
0.0244656
0.0128966
0.0260734
0.0134806
0.027776
0.0140915
0.0295812
0.0147235
0.0314978
0.0153811
0.0335265
0.0160634
0.0356774
0.0167695
0.0379563
0.0175018
0.0403673
0.0182589
0.0429191
0.0190464
0.0456165
0.0198601
0.048466
0.0207012
0.0514874
0.0215636
0.0546759
0.0224557
0.0580491
0.0233699
0.0616107
0.024319
0.0653606
0.0252938
0.0693266
0.0262893
0.0735137
0.0273143
0.0779241
0.0283609
0.0825783
0.0294306
0.0874771
0.030533
0.0926395
0.0316494
0.0980827
0.0327885
0.103802
0.0339463
0.109829
0.0351265
0.116158
0.0363226
0.122825
0.0375258
0.129823
0.0387461
0.13718
0.0399722
0.144908
0.0412037
0.153019
0.042433
0.161534
0.043659
0.17046
0.0448902
0.179821
0.0461002
0.189633
0.047294
0.199909
0.048465
0.210678
0.0496084
0.221946
0.0507139
0.233733
0.0517778
0.24606
0.052791
0.258948
0.0537448
0.272402
0.0546567
0.286443
6.79071e-05
-0.000198674
8.43393e-05
-0.000189012
9.54179e-05
-0.000181193
0.000100237
-0.000175435
9.94347e-05
-0.000171644
9.46084e-05
-0.000169423
8.73097e-05
-0.000168547
7.88518e-05
-0.000168384
6.99299e-05
-0.000168576
6.11058e-05
-0.000168758
5.28465e-05
-0.000168593
4.515e-05
-0.000167898
3.79699e-05
-0.000166451
3.12761e-05
-0.000164231
2.47915e-05
-0.00016112
1.85276e-05
-0.000156934
1.28069e-05
-0.00015133
7.85011e-06
-0.000143447
3.59207e-06
-0.000132943
0.00944569
0.0170211
0.00988234
0.0181565
0.0103373
0.019366
0.010814
0.020649
0.0113106
0.022012
0.0118285
0.0234595
0.0123679
0.0249942
0.0129302
0.0266238
0.013514
0.0283534
0.0141209
0.0301838
0.0147527
0.0321262
0.0154073
0.0341825
0.0160865
0.0363604
0.0167914
0.0386666
0.0175177
0.0411085
0.0182758
0.0436897
0.0190515
0.0464251
0.0198561
0.0493111
0.0206869
0.0523641
0.0215489
0.0555828
0.0224292
0.0589898
0.0233445
0.0625852
0.0242718
0.0663826
0.0252362
0.0703798
0.02622
0.074608
0.0272268
0.0790582
0.0282617
0.0837472
0.029322
0.0886881
0.0303976
0.0938913
0.0314946
0.0993767
0.0326066
0.105142
0.0337499
0.111206
0.0348942
0.117587
0.0360596
0.124292
0.0372321
0.131337
0.0384166
0.138735
0.0396028
0.146509
0.0407959
0.154656
0.0419832
0.16321
0.0431694
0.172181
0.0443395
0.181582
0.0454935
0.191434
0.0466312
0.201743
0.0477412
0.212545
0.048816
0.223844
0.0498493
0.235662
0.0508346
0.248017
0.0517631
0.26093
0.0526036
0.274455
0.0534032
0.288468
7.20558e-05
-0.000214174
8.92482e-05
-0.000203583