/*--------------------------------*- C++ -*----------------------------------*\
  =========                 |
  \\      /  F ield         | OpenFOAM: The Open Source CFD Toolbox
   \\    /   O peration     | Website:  https://openfoam.org
    \\  /    A nd           | Version:  7
     \\/     M anipulation  |
\*---------------------------------------------------------------------------*/
FoamFile
{
    version     2.0;
    format      ascii;
    class       volVectorField;
    location    "600";
    object      U;
}
// * * * * * * * * * * * * * * * * * * * * * * * * * * * * * * * * * * * * * //

dimensions      [0 1 -1 0 0 0 0];

internalField   nonuniform List<vector> 
23064
(
(49.7201 13.3328 -1.4623e-16)
(49.7216 13.3467 -7.65131e-18)
(49.7199 13.333 0)
(49.7256 13.3605 1.61789e-16)
(49.7216 13.3469 1.98165e-18)
(49.7196 13.3331 -1.67455e-17)
(49.7269 13.3743 1.55446e-16)
(49.7259 13.3607 -1.54464e-16)
(49.7216 13.347 1.64533e-16)
(49.7194 13.3333 7.92327e-18)
(49.7278 13.3879 5.42793e-18)
(49.7273 13.3745 -7.60423e-17)
(49.7261 13.3608 1.47805e-16)
(49.7216 13.3472 -8.73924e-18)
(49.7191 13.3335 8.10754e-18)
(49.7288 13.4011 0)
(49.7283 13.388 7.86337e-17)
(49.7277 13.3747 1.45556e-16)
(49.7263 13.361 -1.45642e-16)
(49.7216 13.3474 -8.63776e-18)
(49.7189 13.3337 0)
(49.7297 13.4143 5.929e-18)
(49.7296 13.4013 5.51007e-18)
(49.7289 13.3882 -8.26535e-17)
(49.7281 13.3748 -2.94387e-16)
(49.7266 13.3611 -1.39421e-16)
(49.7215 13.3475 8.25092e-18)
(49.7186 13.3339 -1.22755e-16)
(49.7303 13.4275 1.98188e-16)
(49.7307 13.4145 -1.15098e-17)
(49.7304 13.4015 0)
(49.7295 13.3883 1.63192e-16)
(49.7285 13.3749 1.39424e-16)
(49.7268 13.3612 2.64225e-16)
(49.7216 13.3477 0)
(49.7184 13.3341 2.47927e-16)
(49.7308 13.4408 1.93778e-16)
(49.7315 13.4277 -9.08256e-17)
(49.7317 13.4147 0)
(49.7312 13.4016 7.72997e-17)
(49.7301 13.3885 -1.46288e-16)
(49.7289 13.3751 -8.97409e-18)
(49.7271 13.3613 -2.6497e-16)
(49.7216 13.3479 -7.95438e-18)
(49.7181 13.3343 5.68396e-18)
(49.7311 13.4542 6.73945e-18)
(49.7322 13.4409 -1.07191e-16)
(49.7328 13.4278 9.2435e-17)
(49.7327 13.4148 8.05877e-17)
(49.732 13.4018 -8.13099e-17)
(49.7307 13.3886 9.38008e-18)
(49.7293 13.3752 0)
(49.7273 13.3614 2.49271e-16)
(49.7216 13.3481 -1.2956e-16)
(49.7178 13.3345 -8.73639e-17)
(49.7314 13.4678 0)
(49.7328 13.4543 1.09864e-16)
(49.7337 13.4411 -1.02275e-16)
(49.734 13.428 -1.75021e-16)
(49.7337 13.4149 -1.62922e-16)
(49.7328 13.4018 1.55415e-16)
(49.7312 13.3887 0)
(49.7297 13.3753 8.43016e-18)
(49.7276 13.3615 -2.0147e-18)
(49.7216 13.3482 1.0518e-16)
(49.7176 13.3348 -1.10116e-16)
(49.7316 13.4818 5.86918e-17)
(49.7334 13.4679 0)
(49.7346 13.4544 -1.95477e-16)
(49.7352 13.4412 9.47992e-17)
(49.7352 13.428 8.28239e-17)
(49.7347 13.415 8.22317e-17)
(49.7336 13.4019 -2.9461e-16)
(49.7318 13.3888 -1.4949e-16)
(49.7301 13.3754 0)
(49.7278 13.3616 -1.22343e-16)
(49.7216 13.3484 0)
(49.7173 13.335 1.08687e-16)
(49.7318 13.4962 0)
(49.7339 13.4819 5.56756e-17)
(49.7354 13.468 0)
(49.7363 13.4545 9.854e-17)
(49.7366 13.4412 -9.59766e-17)
(49.7365 13.4281 -8.42105e-17)
(49.7358 13.415 -9.33284e-17)
(49.7344 13.402 1.16408e-17)
(49.7324 13.3888 1.38781e-16)
(49.7305 13.3754 1.26629e-16)
(49.7281 13.3617 -7.39147e-18)
(49.7216 13.3486 -1.11863e-16)
(49.717 13.3353 1.20616e-17)
(49.732 13.5111 5.79213e-17)
(49.7343 13.4962 -3.61843e-18)
(49.7361 13.4819 -1.6577e-16)
(49.7373 13.468 -9.40896e-17)
(49.738 13.4545 9.96399e-17)
(49.7381 13.4412 8.90131e-17)
(49.7377 13.4281 8.30628e-17)
(49.7368 13.4151 -8.44162e-17)
(49.7352 13.402 1.35495e-16)
(49.733 13.3889 8.33486e-18)
(49.7309 13.3755 -1.17292e-16)
(49.7283 13.3618 -1.06284e-16)
(49.7217 13.3487 1.24003e-16)
(49.7168 13.3355 -1.1703e-17)
(49.7322 13.5266 5.08923e-20)
(49.7348 13.5111 -5.70552e-17)
(49.7369 13.4962 5.91444e-17)
(49.7384 13.4819 1.02632e-16)
(49.7393 13.468 1.85219e-18)
(49.7397 13.4545 -1.83064e-16)
(49.7396 13.4412 4.00436e-20)
(49.7389 13.4281 1.49727e-17)
(49.7378 13.4151 1.68832e-16)
(49.736 13.402 -1.46566e-16)
(49.7336 13.3889 0)
(49.7312 13.3756 3.35664e-20)
(49.7286 13.3619 9.79917e-17)
(49.7217 13.3489 -1.31086e-17)
(49.7165 13.3358 0)
(49.7324 13.5428 4.18558e-18)
(49.7353 13.5266 0)
(49.7377 13.511 -6.09855e-17)
(49.7394 13.4961 -1.11844e-16)
(49.7406 13.4818 6.29415e-18)
(49.7413 13.4679 9.56751e-17)
(49.7414 13.4544 9.49773e-17)
(49.7411 13.4411 -4.30439e-20)
(49.7402 13.428 -8.63947e-17)
(49.7388 13.415 1.43242e-16)
(49.7368 13.402 1.3609e-16)
(49.7342 13.3889 -7.8738e-18)
(49.7316 13.3756 -1.23352e-16)
(49.7288 13.362 1.20655e-16)
(49.7217 13.3491 -2.05405e-16)
(49.7162 13.3361 -2.03623e-16)
(49.7328 13.5599 0)
(49.736 13.5427 0)
(49.7385 13.5264 3.76165e-18)
(49.7405 13.5109 5.99882e-17)
(49.742 13.496 4.62839e-17)
(49.7429 13.4817 0)
(49.7433 13.4678 9.64139e-17)
(49.7432 13.4543 -5.38283e-18)
(49.7425 13.441 4.98716e-18)
(49.7414 13.4279 7.56902e-17)
(49.7398 13.4149 -2.71589e-16)
(49.7376 13.402 1.29822e-16)
(49.7348 13.3889 1.2904e-16)
(49.732 13.3756 1.14647e-16)
(49.7291 13.362 -2.09565e-16)
(49.7218 13.3493 2.03073e-16)
(49.7159 13.3364 1.90365e-16)
(49.7332 13.5778 1.04794e-16)
(49.7367 13.5597 6.07062e-17)
(49.7395 13.5425 0)
(49.7418 13.5262 -7.17995e-18)
(49.7434 13.5107 0)
(49.7446 13.4958 -9.98102e-17)
(49.7452 13.4815 -5.94551e-18)
(49.7453 13.4676 -9.4965e-17)
(49.7449 13.4541 -1.03639e-17)
(49.744 13.4409 -7.69668e-17)
(49.7427 13.4278 -9.11994e-18)
(49.7408 13.4148 1.37178e-16)
(49.7384 13.4019 -1.28228e-16)
(49.7354 13.3889 -1.19942e-16)
(49.7324 13.3757 1.09464e-16)
(49.7293 13.3621 1.15443e-16)
(49.7218 13.3494 0)
(49.7156 13.3367 -1.93956e-16)
(49.7338 13.5968 -3.42133e-17)
(49.7375 13.5776 -6.38849e-17)
(49.7406 13.5595 -1.25825e-16)
(49.7431 13.5423 3.71914e-18)
(49.745 13.526 0)
(49.7463 13.5104 3.20929e-18)
(49.7471 13.4955 9.83929e-17)
(49.7474 13.4812 5.74429e-18)
(49.7473 13.4674 5.38406e-18)
(49.7466 13.4539 -4.98279e-18)
(49.7455 13.4407 1.50506e-16)
(49.7439 13.4277 8.76253e-18)
(49.7418 13.4147 8.20555e-18)
(49.7392 13.4018 7.679e-18)
(49.736 13.3889 -1.14433e-16)
(49.7328 13.3757 -1.21564e-16)
(49.7296 13.3621 8.54676e-17)
(49.7218 13.3496 1.21125e-17)
(49.7154 13.337 1.91601e-16)
(49.7346 13.6169 -3.94918e-17)
(49.7385 13.5965 -2.11143e-18)
(49.7419 13.5773 0)
(49.7445 13.5591 5.74053e-17)
(49.7466 13.5419 0)
(49.7482 13.5256 -6.63752e-18)
(49.7492 13.5101 9.86843e-17)
(49.7497 13.4952 5.80468e-18)
(49.7497 13.4809 -8.7173e-17)
(49.7493 13.4671 -8.18157e-17)
(49.7483 13.4536 -7.68987e-17)
(49.7469 13.4404 -8.27439e-17)
(49.7451 13.4275 -8.57387e-18)
(49.7428 13.4146 1.18692e-16)
(49.74 13.4017 -1.11146e-16)
(49.7365 13.3888 2.31204e-16)
(49.7332 13.3757 1.29636e-17)
(49.7298 13.3622 -1.91823e-16)
(49.7219 13.3498 -1.17885e-17)
(49.7151 13.3373 0)
(49.7355 13.6382 3.64892e-17)
(49.7397 13.6165 -3.20365e-17)
(49.7433 13.5961 2.01134e-18)
(49.7462 13.5768 -5.66052e-17)
(49.7485 13.5586 -3.55724e-18)
(49.7502 13.5414 3.43162e-18)
(49.7514 13.5251 -5.04306e-17)
(49.7521 13.5096 -1.03371e-16)
(49.7522 13.4948 -5.59068e-18)
(49.752 13.4805 9.13697e-17)
(49.7512 13.4667 8.08298e-17)
(49.75 13.4533 8.05773e-17)
(49.7484 13.4402 0)
(49.7463 13.4272 1.39359e-16)
(49.7438 13.4144 -1.33003e-16)
(49.7408 13.4016 1.17176e-16)
(49.7371 13.3888 -1.16628e-16)
(49.7336 13.3757 0)
(49.73 13.3622 1.05706e-16)
(49.7219 13.35 1.77959e-16)
(49.7148 13.3377 1.88646e-16)
(49.7365 13.6609 0)
(49.7411 13.6377 -1.30412e-18)
(49.7449 13.616 3.16077e-17)
(49.748 13.5955 0)
(49.7505 13.5762 1.21072e-16)
(49.7524 13.5581 0)
(49.7538 13.5409 0)
(49.7546 13.5246 4.97262e-17)
(49.7549 13.5091 1.34449e-19)
(49.7548 13.4943 0)
(49.7542 13.4801 8.11616e-17)
(49.7532 13.4663 -4.86722e-18)
(49.7517 13.4529 7.1934e-17)
(49.7499 13.4398 -8.59194e-18)
(49.7475 13.427 -2.51837e-18)
(49.7448 13.4142 -1.50276e-17)
(49.7416 13.4014 1.18725e-16)
(49.7377 13.3887 0)
(49.7339 13.3757 5.87812e-20)
(49.7303 13.3622 -1.13655e-17)
(49.722 13.3501 -3.73803e-18)
(49.7145 13.3381 -3.31515e-16)
(49.7378 13.685 0)
(49.7427 13.6603 2.17372e-18)
(49.7468 13.6371 -6.88927e-17)
(49.7501 13.6153 -6.18312e-17)
(49.7528 13.5948 -5.83557e-17)
(49.7549 13.5756 -5.6915e-17)
(49.7564 13.5574 0)
(49.7573 13.5402 0)
(49.7578 13.524 9.89555e-17)
(49.7578 13.5085 0)
(49.7573 13.4937 0)
(49.7565 13.4795 -8.50155e-17)
(49.7552 13.4658 0)
(49.7534 13.4525 -7.1055e-17)
(49.7513 13.4395 -1.39157e-16)
(49.7487 13.4266 5.33042e-18)
(49.7458 13.4139 -1.15525e-16)
(49.7423 13.4012 -2.10212e-18)
(49.7382 13.3886 -1.28316e-17)
(49.7343 13.3756 1.18717e-17)
(49.7305 13.3623 -1.11749e-17)
(49.722 13.3503 -1.71198e-16)
(49.7142 13.3384 1.72603e-16)
(49.7393 13.7106 3.695e-17)
(49.7445 13.6843 -2.27116e-18)
(49.7489 13.6595 -2.86461e-17)
(49.7524 13.6363 3.42136e-17)
(49.7553 13.6145 6.09036e-17)
(49.7576 13.594 5.75001e-17)
(49.7592 13.5748 0)
(49.7603 13.5566 3.10112e-18)
(49.7609 13.5395 0)
(49.761 13.5233 -9.17408e-17)
(49.7606 13.5078 -5.2681e-18)
(49.7599 13.4931 -7.47685e-17)
(49.7587 13.479 0)
(49.7571 13.4653 0)
(49.7551 13.452 -5.02769e-17)
(49.7527 13.4391 2.4825e-16)
(49.7499 13.4263 -1.21715e-16)
(49.7468 13.4136 -4.78443e-18)
(49.7431 13.401 -1.07154e-16)
(49.7388 13.3884 -1.11063e-16)
(49.7347 13.3756 9.18737e-17)
(49.7308 13.3623 0)
(49.7221 13.3505 -1.05767e-17)
(49.7139 13.3388 -8.61935e-18)
(49.741 13.738 -3.86689e-17)
(49.7466 13.7098 -3.63622e-17)
(49.7512 13.6834 -4.1751e-18)
(49.755 13.6586 -6.14612e-19)
(49.7581 13.6354 3.11251e-17)
(49.7605 13.6136 3.45891e-18)
(49.7623 13.5931 5.27377e-17)
(49.7635 13.5739 4.68196e-17)
(49.7642 13.5558 4.75225e-17)
(49.7644 13.5387 0)
(49.7642 13.5225 8.57633e-17)
(49.7635 13.5071 0)
(49.7624 13.4924 7.88763e-17)
(49.7609 13.4783 0)
(49.759 13.4647 -4.48933e-18)
(49.7568 13.4515 2.04803e-16)
(49.7541 13.4386 -2.47975e-16)
(49.7511 13.4259 -1.08205e-16)
(49.7477 13.4133 1.1761e-16)
(49.7439 13.4008 1.29365e-17)
(49.7394 13.3883 9.76688e-17)
(49.735 13.3755 -1.68942e-16)
(49.731 13.3623 -1.04076e-17)
(49.7222 13.3507 0)
(49.7136 13.3392 0)
(49.7429 13.7671 1.1249e-18)
(49.7488 13.737 -1.06163e-18)
(49.7538 13.7088 4.1351e-18)
(49.7579 13.6824 0)
(49.7612 13.6576 2.85531e-17)
(49.7638 13.6343 -3.07641e-17)
(49.7657 13.6125 5.25948e-17)
(49.7671 13.5921 -5.1994e-17)
(49.7679 13.5729 -4.93694e-17)
(49.7681 13.5548 -9.22299e-17)
(49.768 13.5377 -4.29437e-17)
(49.7673 13.5216 -1.66535e-16)
(49.7663 13.5062 0)
(49.7649 13.4916 0)
(49.7631 13.4776 -7.46678e-17)
(49.761 13.4641 7.47545e-17)
(49.7584 13.4509 -1.28554e-16)
(49.7555 13.4381 1.21307e-16)
(49.7523 13.4255 2.19101e-16)
(49.7487 13.413 1.05276e-16)
(49.7446 13.4006 1.24101e-17)
(49.7399 13.3882 -2.3415e-17)
(49.7354 13.3755 -8.50008e-17)
(49.7312 13.3623 0)
(49.7222 13.3508 0)
(49.7134 13.3396 0)
(49.7451 13.7981 -1.17511e-18)
(49.7514 13.766 1.10905e-18)
(49.7567 13.7359 -2.0983e-18)
(49.7611 13.7076 0)
(49.7646 13.6812 0)
(49.7674 13.6564 2.54861e-17)
(49.7695 13.6331 0)
(49.7709 13.6113 -4.87651e-17)
(49.7718 13.5909 0)
(49.7722 13.5717 0)
(49.772 13.5537 4.76732e-17)
(49.7715 13.5367 4.77115e-17)
(49.7705 13.5206 1.59645e-16)
(49.7691 13.5053 0)
(49.7674 13.4908 4.4333e-18)
(49.7653 13.4768 6.06808e-17)
(49.7629 13.4634 -1.29841e-16)
(49.7601 13.4503 0)
(49.7569 13.4376 1.14872e-16)
(49.7534 13.4251 -2.1915e-16)
(49.7496 13.4126 -1.23544e-16)
(49.7453 13.4003 1.47303e-19)
(49.7404 13.388 1.01661e-16)
(49.7357 13.3754 1.71684e-16)
(49.7314 13.3623 -9.81267e-18)
(49.7223 13.351 0)
(49.7131 13.3401 0)
(49.7475 13.8311 -1.59114e-17)
(49.7542 13.7969 9.99759e-19)
(49.7599 13.7647 0)
(49.7646 13.7346 2.73829e-17)
(49.7684 13.7063 0)
(49.7713 13.6798 0)
(49.7736 13.655 -2.6885e-17)
(49.7752 13.6318 -3.22123e-18)
(49.7761 13.61 0)
(49.7765 13.5896 0)
(49.7765 13.5705 4.85191e-17)
(49.7759 13.5525 -5.35459e-18)
(49.775 13.5355 -7.8817e-17)
(49.7736 13.5195 -7.02387e-18)
(49.7719 13.5043 -4.63127e-18)
(49.7699 13.4898 0)
(49.7675 13.476 -6.5162e-17)
(49.7648 13.4626 6.3425e-17)
(49.7617 13.4497 0)
(49.7583 13.437 -1.1365e-16)
(49.7546 13.4246 1.2054e-16)
(49.7505 13.4123 1.17693e-16)
(49.7461 13.4 0)
(49.741 13.3878 9.18911e-18)
(49.736 13.3754 1.02475e-17)
(49.7316 13.3624 0)
(49.7223 13.3512 -1.5416e-16)
(49.7128 13.3405 0)
(49.7501 13.8662 -2.10507e-18)
(49.7573 13.8297 3.0992e-17)
(49.7633 13.7955 3.01816e-17)
(49.7684 13.7633 -2.61202e-17)
(49.7724 13.7331 -2.87491e-17)
(49.7756 13.7048 0)
(49.778 13.6783 1.53172e-18)
(49.7798 13.6535 0)
(49.7808 13.6303 0)
(49.7813 13.6085 -2.73052e-18)
(49.7813 13.5882 -5.41453e-18)
(49.7808 13.5691 -1.63552e-18)
(49.7798 13.5512 -4.85709e-18)
(49.7785 13.5343 8.27219e-17)
(49.7768 13.5183 -7.43869e-17)
(49.7747 13.5032 -6.4665e-17)
(49.7723 13.4888 6.58419e-17)
(49.7696 13.4751 7.22394e-17)
(49.7666 13.4618 -5.22855e-17)
(49.7633 13.4489 -7.07564e-18)
(49.7597 13.4364 -1.35752e-17)
(49.7557 13.4241 9.52163e-17)
(49.7514 13.4118 -1.03965e-16)
(49.7468 13.3997 9.00928e-17)
(49.7415 13.3876 -1.61164e-16)
(49.7364 13.3753 0)
(49.7318 13.3624 9.36863e-18)
(49.7224 13.3514 1.4398e-16)
(49.7125 13.341 1.37369e-16)
(49.7529 13.9036 1.61193e-17)
(49.7606 13.8648 -1.34863e-17)
(49.7671 13.8282 -1.60463e-17)
(49.7725 13.7938 -2.36621e-18)
(49.7769 13.7616 2.91539e-17)
(49.7803 13.7314 0)
(49.7829 13.7031 -2.53636e-17)
(49.7848 13.6766 -1.41523e-18)
(49.7859 13.6518 0)
(49.7865 13.6286 2.85258e-18)
(49.7865 13.6069 5.30703e-18)
(49.786 13.5866 -4.01323e-17)
(49.785 13.5676 -3.52523e-17)
(49.7837 13.5497 0)
(49.7819 13.5329 -7.62295e-17)
(49.7798 13.5171 -8.74251e-18)
(49.7774 13.502 6.81457e-17)
(49.7747 13.4878 -7.32569e-17)
(49.7717 13.4741 -6.07032e-17)
(49.7685 13.4609 -4.15848e-17)
(49.7649 13.4482 1.38448e-17)
(49.761 13.4357 0)
(49.7568 13.4235 -9.4419e-17)
(49.7523 13.4114 -1.81033e-19)
(49.7475 13.3994 -1.0055e-16)
(49.742 13.3874 1.73883e-18)
(49.7367 13.3752 -1.6389e-16)
(49.732 13.3624 -1.4095e-16)
(49.7225 13.3516 8.45765e-18)
(49.7122 13.3415 -1.52405e-16)
(49.756 13.9434 8.51096e-19)
(49.7643 13.902 -2.81148e-17)
(49.7712 13.8631 1.49291e-17)
(49.777 13.8264 2.44837e-17)
(49.7817 13.792 -4.99586e-17)
(49.7854 13.7597 -1.41416e-18)
(49.7882 13.7295 0)
(49.7902 13.7012 2.49019e-17)
(49.7915 13.6747 -1.30236e-18)
(49.7921 13.6499 0)
(49.7921 13.6268 3.74729e-17)
(49.7916 13.6052 2.39883e-18)
(49.7907 13.5849 3.96161e-17)
(49.7893 13.566 -3.66543e-17)
(49.7875 13.5482 4.63991e-18)
(49.7854 13.5315 7.53937e-17)
(49.7829 13.5157 0)
(49.7802 13.5008 -6.73099e-17)
(49.7771 13.4866 -7.85009e-18)
(49.7738 13.473 1.105e-16)
(49.7703 13.46 1.06894e-16)
(49.7664 13.4473 -6.59483e-18)
(49.7623 13.435 -1.00611e-16)
(49.7579 13.4229 -1.2157e-17)
(49.7532 13.4109 -7.8811e-17)
(49.7481 13.399 -8.49014e-17)
(49.7425 13.3872 8.19095e-17)
(49.737 13.3751 1.62317e-16)
(49.7322 13.3624 1.30979e-16)
(49.7225 13.3518 9.29548e-18)
(49.7119 13.342 -1.30621e-16)
(16.8471 -1.529 0)
(49.7593 13.9857 -1.4723e-17)
(49.7681 13.9417 -8.48866e-19)
(49.7756 13.9002 2.34702e-17)
(49.7818 13.8611 -1.03466e-17)
(49.7868 13.8244 -4.716e-17)
(49.7908 13.79 2.48449e-17)
(49.7939 13.7577 2.19266e-17)
(49.7961 13.7274 0)
(49.7975 13.6991 2.57591e-18)
(49.7982 13.6726 3.9014e-17)
(49.7982 13.6479 0)
(49.7977 13.6248 -4.21264e-17)
(49.7968 13.6033 3.87687e-17)
(49.7953 13.5831 -3.3427e-17)
(49.7935 13.5642 -2.71149e-18)
(49.7913 13.5465 -4.14399e-18)
(49.7888 13.5299 -6.51841e-17)
(49.7859 13.5143 7.99137e-18)
(49.7829 13.4994 -1.80668e-18)
(49.7795 13.4854 6.56363e-17)
(49.7759 13.4719 -1.13604e-16)
(49.7721 13.459 6.88764e-18)
(49.768 13.4465 0)
(49.7636 13.4343 2.3302e-18)
(49.7589 13.4223 -6.01196e-18)
(49.754 13.4104 8.92778e-17)
(49.7488 13.3987 1.76984e-16)
(49.7429 13.387 1.55383e-16)
(49.7373 13.375 9.15756e-18)
(49.7324 13.3624 8.57203e-18)
(49.7226 13.352 -1.29033e-16)
(49.7115 13.3425 1.16129e-16)
(18.9119 -1.65844 0)
(18.8441 -1.66915 2.52177e-15)
(49.7628 14.0307 1.01371e-17)
(49.7723 13.9838 6.06215e-19)
(49.7803 13.9397 0)
(49.787 13.8981 -1.18534e-17)
(49.7924 13.8589 1.43127e-18)
(49.7967 13.8222 3.98668e-17)
(49.8 13.7877 -2.0951e-17)
(49.8024 13.7554 -1.92522e-17)
(49.8039 13.7251 -1.26966e-18)
(49.8047 13.6968 -1.80449e-17)
(49.8048 13.6704 -4.06613e-17)
(49.8044 13.6457 0)
(49.8033 13.6227 3.23868e-17)
(49.8019 13.6012 -7.24826e-17)
(49.7999 13.5811 3.96271e-17)
(49.7977 13.5624 7.12805e-17)
(49.795 13.5448 6.37974e-17)
(49.7921 13.5283 6.03747e-17)
(49.789 13.5127 2.14307e-19)
(49.7855 13.498 -5.64577e-18)
(49.7818 13.4841 -5.77831e-17)
(49.7779 13.4707 5.54404e-17)
(49.7738 13.4579 0)
(49.7695 13.4455 0)
(49.7648 13.4335 1.84485e-16)
(49.76 13.4216 0)
(49.7549 13.4099 0)
(49.7494 13.3983 -1.19489e-17)
(49.7434 13.3867 -1.28584e-17)
(49.7376 13.3749 8.89256e-18)
(49.7326 13.3624 1.28818e-16)
(49.7227 13.3522 1.28087e-16)
(49.7112 13.3431 -1.30615e-17)
(19.8308 -1.69171 0)
(20.9749 -1.79985 -1.98239e-20)
(20.8531 -1.80181 8.71773e-21)
(49.7665 14.0784 -5.79418e-18)
(49.7767 14.0286 -3.11789e-18)
(49.7853 13.9817 0)
(49.7925 13.9374 0)
(49.7983 13.8957 -4.69003e-19)
(49.803 13.8565 9.28005e-18)
(49.8066 13.8197 -3.74041e-19)
(49.8092 13.7852 1.70782e-17)
(49.8109 13.7529 0)
(49.8118 13.7226 1.52394e-17)
(49.812 13.6944 2.83319e-18)
(49.8115 13.668 0)
(49.8105 13.6434 -3.43333e-17)
(49.8089 13.6204 -2.14622e-18)
(49.8069 13.599 3.37092e-17)
(49.8045 13.579 3.13716e-17)
(49.8018 13.5604 -3.23295e-17)
(49.7988 13.5429 -6.30635e-17)
(49.7955 13.5265 -5.14859e-17)
(49.7919 13.5111 5.73975e-17)
(49.7881 13.4965 5.75402e-17)
(49.7841 13.4827 6.65194e-18)
(49.7799 13.4695 0)
(49.7755 13.4568 0)
(49.7709 13.4446 0)
(49.7661 13.4326 -9.32519e-17)
(49.761 13.4209 0)
(49.7557 13.4094 0)
(49.7501 13.3979 -1.14504e-17)
(49.7439 13.3865 -1.25195e-17)
(49.7378 13.3748 0)
(49.7328 13.3624 -2.52884e-16)
(49.7227 13.3524 -1.50225e-17)
(49.7109 13.3437 -1.26641e-17)
(20.4437 -1.70433 0)
(21.7475 -1.81163 -4.7614e-16)
(23.0486 -1.94043 7.00118e-16)
(22.7073 -1.91174 -2.32113e-15)
(49.7705 14.129 -2.37021e-18)
(49.7813 14.0762 5.5613e-18)
(49.7906 14.0263 -1.31381e-17)
(49.7983 13.9792 5.66042e-18)
(49.8047 13.9348 6.37843e-18)
(49.8097 13.8931 0)
(49.8136 13.8538 -9.96715e-19)
(49.8165 13.817 -1.56576e-17)
(49.8184 13.7825 -1.36129e-17)
(49.8194 13.7502 1.0217e-18)
(49.8196 13.7199 -1.49717e-17)
(49.8192 13.6917 1.60399e-17)
(49.8181 13.6654 2.05155e-18)
(49.8165 13.6409 5.97521e-17)
(49.8144 13.618 -3.17436e-17)
(49.812 13.5967 0)
(49.8091 13.5768 -3.45737e-17)
(49.8059 13.5582 3.54087e-18)
(49.8025 13.5409 -7.27964e-18)
(49.7988 13.5246 1.14366e-16)
(49.7948 13.5093 -5.67859e-17)
(49.7907 13.4949 -6.94664e-18)
(49.7864 13.4812 -6.37356e-18)
(49.7819 13.4682 9.97507e-17)
(49.7772 13.4556 -5.95077e-18)
(49.7724 13.4435 -9.78024e-17)
(49.7673 13.4318 8.80138e-17)
(49.762 13.4202 0)
(49.7565 13.4088 8.96482e-17)
(49.7507 13.3974 -1.51991e-16)
(49.7443 13.3862 -3.17344e-18)
(49.7381 13.3747 8.38601e-18)
(49.7329 13.3624 1.39806e-16)
(49.7228 13.3526 1.45824e-17)
(49.7106 13.3443 1.41147e-17)
(20.9821 -1.71407 0)
(22.1403 -1.79437 0)
(23.8043 -1.95055 5.03588e-16)
(24.9478 -2.05845 3.49971e-20)
(24.3736 -1.99628 0)
(49.7746 14.1826 -1.59564e-18)
(49.7862 14.1266 1.37173e-18)
(49.7962 14.0737 -5.30642e-18)
(49.8045 14.0236 5.37646e-18)
(49.8114 13.9764 -5.37027e-18)
(49.8169 13.932 -5.79991e-18)
(49.8211 13.8901 0)
(49.8243 13.8509 0)
(49.8264 13.814 1.12042e-17)
(49.8275 13.7795 2.47002e-17)
(49.8279 13.7472 0)
(49.8274 13.717 1.31411e-17)
(49.8264 13.6889 -1.52685e-18)
(49.8247 13.6627 -2.45018e-17)
(49.8226 13.6382 -2.92098e-17)
(49.8199 13.6154 0)
(49.8169 13.5942 -2.36462e-17)
(49.8136 13.5744 -3.69804e-18)
(49.81 13.556 5.48435e-17)
(49.8061 13.5388 0)
(49.802 13.5226 -1.086e-16)
(49.7977 13.5075 3.19815e-18)
(49.7933 13.4932 1.29173e-17)
(49.7886 13.4797 4.34151e-17)
(49.7838 13.4668 -2.59628e-18)
(49.7789 13.4544 5.97191e-18)
(49.7738 13.4425 9.12595e-17)
(49.7684 13.4309 -9.25454e-17)
(49.7629 13.4195 -8.11776e-17)
(49.7572 13.4082 7.83065e-18)
(49.7512 13.397 1.6717e-18)
(49.7447 13.386 -1.4987e-16)
(49.7383 13.3746 8.14423e-18)
(49.733 13.3624 -3.0283e-17)
(49.7228 13.3528 -1.53058e-17)
(49.7103 13.3449 -1.15488e-16)
(21.52 -1.72811 0)
(22.4513 -1.77257 0)
(24.0757 -1.91935 -7.03304e-16)
(25.7868 -2.0791 5.24225e-16)
(26.6426 -2.14812 0)
(25.8955 -2.05978 -2.1297e-15)
(49.7789 14.2393 3.27103e-19)
(49.7914 14.1801 -1.00447e-18)
(49.8021 14.1239 9.44717e-19)
(49.8111 14.0708 0)
(49.8185 14.0207 -1.76085e-19)
(49.8245 13.9734 0)
(49.8291 13.9288 0)
(49.8325 13.887 0)
(49.8349 13.8477 6.36575e-18)
(49.8362 13.8108 -2.37922e-18)
(49.8367 13.7763 -1.061e-17)
(49.8363 13.7441 -7.6646e-19)
(49.8352 13.7139 -1.06507e-17)
(49.8335 13.6859 2.24235e-17)
(49.8313 13.6597 2.60375e-17)
(49.8285 13.6353 2.42532e-17)
(49.8254 13.6127 0)
(49.8219 13.5916 2.55408e-17)
(49.8181 13.5719 2.89551e-17)
(49.814 13.5536 -1.08097e-16)
(49.8097 13.5365 -5.08916e-17)
(49.8052 13.5206 -1.12684e-18)
(49.8006 13.5056 -6.53892e-18)
(49.7958 13.4914 6.37395e-18)
(49.7908 13.4781 -4.28573e-17)
(49.7857 13.4653 -1.87228e-16)
(49.7805 13.4531 8.91532e-17)
(49.7751 13.4414 5.52647e-18)
(49.7696 13.4299 0)
(49.7638 13.4187 -1.79322e-17)
(49.7579 13.4076 -7.64702e-17)
(49.7518 13.3966 8.1192e-17)
(49.7451 13.3857 -8.50139e-18)
(49.7385 13.3745 -1.10046e-16)
(49.7332 13.3625 1.14281e-16)
(49.7229 13.353 0)
(49.71 13.3456 2.52404e-16)
(22.0783 -1.74801 0)
(22.7838 -1.75627 0)
(24.2174 -1.87699 2.84663e-20)
(26.0472 -2.0486 -3.72535e-16)
(27.605 -2.18293 0)
(28.1901 -2.21323 6.64832e-16)
(27.3214 -2.10674 0)
(49.7833 14.2994 -2.87031e-18)
(49.7968 14.2367 3.08743e-18)
(49.8082 14.1772 0)
(49.8179 14.1209 3.18769e-19)
(49.826 14.0676 -1.94815e-19)
(49.8325 14.0174 0)
(49.8375 13.97 2.36916e-19)
(49.8413 13.9254 0)
(49.8439 13.8835 0)
(49.8455 13.8442 -1.11823e-17)
(49.8461 13.8073 -1.41035e-17)
(49.8458 13.7729 -3.73079e-19)
(49.8447 13.7407 -4.42816e-19)
(49.843 13.7106 -8.83048e-18)
(49.8406 13.6826 -2.21425e-17)
(49.8378 13.6566 1.94102e-17)
(49.8345 13.6323 -2.39648e-17)
(49.8308 13.6098 1.5865e-18)
(49.8268 13.5888 2.04462e-17)
(49.8225 13.5693 -2.48195e-17)
(49.818 13.5511 5.05434e-17)
(49.8133 13.5342 2.43837e-18)
(49.8084 13.5184 4.98856e-17)
(49.8034 13.5035 2.88402e-18)
(49.7982 13.4896 -5.69455e-18)
(49.7929 13.4764 4.54963e-17)
(49.7876 13.4638 9.13735e-17)
(49.7821 13.4518 -2.48192e-18)
(49.7764 13.4402 0)
(49.7707 13.4289 1.02235e-17)
(49.7647 13.4179 7.7986e-17)
(49.7586 13.407 -1.82865e-17)
(49.7523 13.3961 -6.00036e-17)
(49.7455 13.3854 -1.38192e-16)
(49.7387 13.3744 1.24927e-16)
(49.7333 13.3625 -1.1356e-16)
(49.723 13.3533 -2.78469e-17)
(49.7096 13.3463 -1.25065e-16)
(22.6607 -1.7735 1.16692e-16)
(23.1683 -1.74846 0)
(24.3709 -1.83735 2.00781e-16)
(26.1082 -1.99891 5.51546e-16)
(27.931 -2.16121 0)
(29.2648 -2.25939 -5.33919e-16)
(29.6452 -2.25995 6.41761e-16)
(28.6914 -2.13964 0)
(49.7879 14.3629 -8.30067e-18)
(49.8023 14.2966 -1.83912e-18)
(49.8147 14.2336 -2.36063e-18)
(49.8251 14.174 -2.27179e-19)
(49.8338 14.1175 5.7143e-18)
(49.8409 14.0641 0)
(49.8465 14.0138 -2.32886e-19)
(49.8506 13.9663 -2.47919e-18)
(49.8535 13.9217 0)
(49.8553 13.8798 -7.41619e-20)
(49.8561 13.8405 4.21464e-18)
(49.8559 13.8036 9.17024e-18)
(49.8548 13.7692 4.92242e-18)
(49.8531 13.7371 5.9899e-18)
(49.8507 13.7071 2.37603e-17)
(49.8477 13.6792 2.17841e-18)
(49.8443 13.6532 -2.4927e-18)
(49.8404 13.6291 -1.81361e-17)
(49.8362 13.6067 2.32758e-17)
(49.8316 13.5858 -1.99958e-17)
(49.8269 13.5665 0)
(49.8219 13.5485 0)
(49.8168 13.5317 4.74278e-17)
(49.8115 13.5161 -5.74953e-18)
(49.8061 13.5014 5.0843e-17)
(49.8006 13.4876 0)
(49.795 13.4746 -4.50826e-17)
(49.7893 13.4623 9.03935e-17)
(49.7836 13.4504 -8.51602e-17)
(49.7777 13.439 0)
(49.7717 13.4279 0)
(49.7656 13.4171 1.86126e-17)
(49.7593 13.4063 -8.96449e-18)
(49.7528 13.3956 1.51482e-16)
(49.7458 13.3851 1.08187e-17)
(49.7389 13.3743 1.11268e-16)
(49.7334 13.3625 1.21603e-16)
(49.723 13.3535 1.41293e-17)
(49.7093 13.347 -9.48451e-17)
(23.2666 -1.80387 1.38876e-20)
(23.6097 -1.74915 0)
(24.5872 -1.80573 0)
(26.1473 -1.9467 -2.14092e-16)
(27.991 -2.11382 0)
(29.6931 -2.24897 3.97541e-16)
(30.8178 -2.31392 -1.05055e-15)
(31.0513 -2.29139 0)
(30.0442 -2.1618 0)
(49.7926 14.43 2.01202e-18)
(49.8081 14.3599 5.09455e-18)
(49.8214 14.2934 4.53279e-18)
(49.8327 14.2302 5.79616e-18)
(49.8421 14.1704 0)
(49.8498 14.1138 -5.46614e-18)
(49.8558 14.0603 2.43116e-19)
(49.8604 14.0099 1.7094e-19)
(49.8637 13.9624 2.05214e-18)
(49.8657 13.9177 7.7433e-20)
(49.8667 13.8758 -2.58323e-19)
(49.8666 13.8365 -1.2581e-19)
(49.8656 13.7997 -2.94711e-18)
(49.8639 13.7653 -4.63604e-18)
(49.8614 13.7332 -6.739e-18)
(49.8583 13.7034 -4.08825e-18)
(49.8547 13.6756 0)
(49.8507 13.6497 -3.4064e-17)
(49.8462 13.6257 1.90395e-17)
(49.8415 13.6034 -2.01496e-17)
(49.8364 13.5828 0)
(49.8312 13.5636 4.03192e-17)
(49.8258 13.5457 -2.48247e-18)
(49.8202 13.5292 5.40194e-18)
(49.8145 13.5137 0)
(49.8088 13.4992 -8.71109e-17)
(49.8029 13.4856 5.16438e-18)
(49.797 13.4728 3.62697e-17)
(49.7911 13.4606 -8.44257e-17)
(49.7851 13.449 7.47858e-17)
(49.7789 13.4377 0)
(49.7727 13.4269 6.48482e-17)
(49.7664 13.4162 0)
(49.7599 13.4056 -2.01254e-19)
(49.7533 13.3952 4.67224e-17)
(49.7461 13.3848 1.33239e-16)
(49.7391 13.3743 -1.18009e-16)
(49.7335 13.3626 -2.11597e-16)
(49.7231 13.3537 -2.6327e-17)
(49.709 13.3477 1.88817e-18)
(23.8966 -1.83851 1.67912e-20)
(24.1045 -1.75748 0)
(24.8804 -1.78345 0)
(26.2376 -1.89943 1.72496e-16)
(27.9854 -2.05837 0)
(29.8071 -2.20861 0)
(31.3566 -2.31386 5.96827e-20)
(32.311 -2.35047 1.56292e-20)
(32.4416 -2.31131 0)
(31.3949 -2.17297 4.04415e-20)
(49.7975 14.5008 4.4754e-18)
(49.8141 14.4269 1.59129e-18)
(49.8284 14.3565 5.79316e-19)
(49.8405 14.2897 -5.20056e-19)
(49.8507 14.2264 -5.47318e-18)
(49.859 14.1664 0)
(49.8657 14.1097 6.94477e-19)
(49.8708 14.0561 0)
(49.8744 14.0056 0)
(49.8768 13.9581 3.89911e-19)
(49.8779 13.9134 8.65909e-18)
(49.878 13.8715 -5.66588e-18)
(49.8771 13.8322 -3.43481e-18)
(49.8754 13.7955 0)
(49.8729 13.7612 0)
(49.8697 13.7292 2.53493e-18)
(49.866 13.6994 -1.11855e-17)
(49.8617 13.6717 -5.44802e-19)
(49.857 13.646 2.39329e-18)
(49.852 13.6222 -1.45799e-17)
(49.8467 13.6 0)
(49.8412 13.5795 -2.03915e-18)
(49.8354 13.5605 -3.94925e-17)
(49.8296 13.5429 3.5866e-17)
(49.8236 13.5265 0)
(49.8175 13.5112 0)
(49.8114 13.4969 4.17559e-17)
(49.8052 13.4835 0)
(49.799 13.4709 -4.13823e-17)
(49.7928 13.4589 5.12877e-18)
(49.7865 13.4475 -7.90619e-17)
(49.7801 13.4365 0)
(49.7737 13.4258 -7.38728e-17)
(49.7671 13.4153 -6.94192e-17)
(49.7605 13.405 1.66677e-17)
(49.7538 13.3947 -1.36153e-16)
(49.7465 13.3845 0)
(49.7392 13.3742 1.40914e-17)
(49.7336 13.3626 1.17081e-16)
(49.7231 13.354 0)
(49.7086 13.3485 1.04468e-16)
(24.5523 -1.877 1.89899e-20)
(24.6474 -1.77251 0)
(25.2509 -1.77018 0)
(26.4076 -1.86002 -1.83379e-20)
(28.0066 -2.0039 0)
(29.8121 -2.15593 0)
(31.5523 -2.28199 3.08118e-16)
(32.9528 -2.35871 0)
(33.772 -2.37265 5.03686e-16)
(33.8316 -2.31997 1.1746e-15)
(32.759 -2.17492 0)
(49.8024 14.5755 0)
(49.8202 14.4975 6.65425e-19)
(49.8355 14.4233 -2.24197e-17)
(49.8487 14.3527 5.42692e-19)
(49.8597 14.2857 0)
(49.8687 14.2222 -8.52507e-18)
(49.876 14.1621 -7.24867e-19)
(49.8816 14.1052 8.44834e-19)
(49.8857 14.0516 0)
(49.8884 14.001 -1.0131e-18)
(49.8898 13.9534 0)
(49.8901 13.9088 -1.96706e-17)
(49.8893 13.8669 5.72066e-18)
(49.8876 13.8276 3.82551e-18)
(49.8851 13.791 0)
(49.8818 13.7568 -3.44272e-20)
(49.8779 13.7249 -1.31283e-18)
(49.8735 13.6952 -3.90774e-18)
(49.8686 13.6677 0)
(49.8633 13.6421 1.80797e-18)
(49.8577 13.6184 1.37398e-17)
(49.8519 13.5965 5.23997e-19)
(49.8458 13.5761 2.27762e-18)
(49.8396 13.5573 0)
(49.8333 13.5398 -3.81441e-17)
(49.8269 13.5236 0)
(49.8204 13.5086 3.73069e-17)
(49.8139 13.4945 0)
(49.8074 13.4813 3.84632e-17)
(49.8009 13.4689 7.6486e-17)
(49.7944 13.4571 0)
(49.7878 13.4459 4.54565e-18)
(49.7813 13.4351 7.19629e-17)
(49.7746 13.4246 6.06508e-17)
(49.7679 13.4144 6.0081e-17)
(49.7611 13.4043 8.18356e-18)
(49.7542 13.3942 1.29268e-16)
(49.7467 13.3843 -1.3034e-16)
(49.7394 13.3741 0)
(49.7336 13.3627 -9.85811e-17)
(49.7232 13.3543 -1.1844e-17)
(49.7083 13.3493 9.90301e-18)
(25.2365 -1.919 2.05158e-20)
(25.2364 -1.79343 0)
(25.6932 -1.76514 0)
(26.6657 -1.82924 -2.43331e-16)
(28.0968 -1.95459 0)
(29.815 -2.10045 0)
(31.6031 -2.23486 0)
(33.239 -2.33497 0)
(34.5014 -2.3869 -6.3039e-20)
(35.2231 -2.38204 -9.76214e-16)
(35.2396 -2.3184 0)
(34.1443 -2.16626 -1.80336e-15)
(49.8074 14.6542 7.60762e-18)
(49.8265 14.572 5.33948e-19)
(49.843 14.4937 0)
(49.8571 14.4192 2.57927e-17)
(49.869 14.3484 1.33958e-17)
(49.8789 14.2812 -7.26361e-19)
(49.8868 14.2176 8.39761e-18)
(49.893 14.1573 1.76592e-17)
(49.8976 14.1004 9.90558e-19)
(49.9006 14.0467 1.43479e-17)
(49.9023 13.9961 1.08104e-17)
(49.9028 13.9485 0)
(49.9022 13.9038 2.55503e-17)
(49.9005 13.862 -1.23738e-18)
(49.898 13.8228 8.17287e-18)
(49.8947 13.7862 5.797e-18)
(49.8907 13.7521 0)
(49.8861 13.7204 1.2844e-18)
(49.881 13.6908 4.59535e-18)
(49.8754 13.6634 5.58605e-19)
(49.8696 13.638 1.07679e-17)
(49.8634 13.6145 1.67598e-18)
(49.857 13.5927 0)
(49.8504 13.5726 1.23713e-17)
(49.8437 13.554 0)
(49.8369 13.5367 0)
(49.8301 13.5207 -4.74731e-18)
(49.8233 13.5059 -6.16972e-18)
(49.8164 13.492 -4.37279e-18)
(49.8096 13.479 -3.81407e-17)
(49.8028 13.4669 -2.68975e-18)
(49.796 13.4553 -4.74508e-18)
(49.7891 13.4443 -4.3722e-18)
(49.7823 13.4337 -1.40924e-16)
(49.7755 13.4235 -7.74758e-17)
(49.7686 13.4135 0)
(49.7616 13.4035 -7.94125e-18)
(49.7545 13.3937 -1.20935e-16)
(49.747 13.384 1.1498e-16)
(49.7395 13.3741 -1.06017e-16)
(49.7336 13.3628 1.10441e-16)
(49.7232 13.3546 -1.04177e-16)
(49.7079 13.3502 0)
(25.9523 -1.96428 2.13602e-20)
(25.8717 -1.81969 7.7049e-17)
(26.202 -1.76752 0)
(27.0114 -1.80684 1.05405e-16)
(28.2744 -1.9122 0)
(29.87 -2.0472 -1.57977e-16)
(31.6252 -2.18199 0)
(33.356 -2.29449 0)
(34.8793 -2.37052 -3.11347e-16)
(36.0252 -2.40006 6.40398e-20)
(36.6836 -2.37965 0)
(36.6667 -2.30605 7.02375e-20)
(35.5509 -2.14717 -8.90512e-16)
(49.8125 14.737 -7.12088e-19)
(49.8329 14.6506 -5.56983e-19)
(49.8506 14.5681 0)
(49.8658 14.4895 0)
(49.8787 14.4148 -1.46046e-17)
(49.8894 14.3437 -1.16363e-17)