/*--------------------------------*- C++ -*----------------------------------*\
  =========                 |
  \\      /  F ield         | OpenFOAM: The Open Source CFD Toolbox
   \\    /   O peration     | Website:  https://openfoam.org
    \\  /    A nd           | Version:  7
     \\/     M anipulation  |
\*---------------------------------------------------------------------------*/
FoamFile
{
    version     2.0;
    format      ascii;
    class       volScalarField;
    location    "600";
    object      yPlus;
}
// * * * * * * * * * * * * * * * * * * * * * * * * * * * * * * * * * * * * * //

dimensions      [0 0 0 0 0 0 0];

internalField   uniform 0;

boundaryField
{
    inlet-l
    {
        type            calculated;
        value           nonuniform 0();
    }
    airfoil-l1
    {
        type            calculated;
        value           nonuniform 0();
    }
    empty-1
    {
        type            empty;
    }
    empty-2
    {
        type            empty;
    }
    wall-l1
    {
        type            calculated;
        value           nonuniform 0();
    }
    airfoil-l2
    {
        type            calculated;
        value           nonuniform 0();
    }
    empty-3
    {
        type            empty;
    }
    empty-4
    {
        type            empty;
    }
    wall-l2
    {
        type            calculated;
        value           nonuniform 0();
    }
    outlet-l
    {
        type            calculated;
        value           nonuniform 0();
    }
    empty-5
    {
        type            empty;
    }
    empty-6
    {
        type            empty;
    }
    outlet-h
    {
        type            calculated;
        value           nonuniform 0();
    }
    wall-h2
    {
        type            calculated;
        value           nonuniform 0();
    }
    empty-7
    {
        type            empty;
    }
    empty-8
    {
        type            empty;
    }
    airfoil-h2
    {
        type            calculated;
        value           nonuniform List<scalar> 
33
(
31.4187
31.1706
30.9376
30.7022
30.4614
30.2217
29.9865
29.747
29.4968
29.2334
28.9585
28.6691
28.3553
28.0172
27.6528
27.2614
26.846
26.4066
25.9411
25.4609
24.9711
24.4722
23.9705
23.4681
22.958
22.4354
21.8944
21.3153
20.6812
19.9617
19.1293
18.186
17.1955
)
;
    }
    wall-h1
    {
        type            calculated;
        value           nonuniform List<scalar> 
33
(
78.4526
78.5264
78.5384
78.5328
78.5124
78.4725
78.4093
78.325
78.2193
78.0934
77.9458
77.7775
77.5878
77.3787
77.1452
76.8903
76.6132
76.3176
75.9949
75.6531
75.288
74.9035
74.4945
74.0632
73.6142
73.1394
72.6463
72.1285
71.5902
71.0348
70.4547
69.8582
69.2397
)
;
    }
    empty-9
    {
        type            empty;
    }
    empty-10
    {
        type            empty;
    }
    inlet-h
    {
        type            calculated;
        value           uniform 0;
    }
    airfoil-h1
    {
        type            calculated;
        value           nonuniform List<scalar> 
91
(
23.8665
23.66
23.4784
23.3314
23.2081
23.0992
23.0037
22.9282
22.8801
22.8506
22.8257
22.8251
22.8401
22.8586
22.8829
22.9181
22.9664
23.024
23.0915
23.1597
23.2415
23.3319
23.4321
23.5347
23.6416
23.7533
23.8731
23.9943
24.126
24.2574
24.3942
24.5304
24.6684
24.8193
24.9676
25.1138
25.2661
25.4191
25.5737
25.7345
25.8951
26.0551
26.2119
26.3725
26.5356
26.6984
26.8562
27.0203
27.1813
27.3433
27.5106
27.6693
27.8234
27.988
28.1461
28.2974
28.4502
28.6088
28.7625
28.9123
29.0577
29.2036
29.3504
29.4837
29.6222
29.7583
29.8887
30.0138
30.1387
30.2594
30.3813
30.4921
30.5984
30.703
30.8111
30.9062
30.9972
31.0767
31.1567
31.2286
31.2946
31.358
31.4121
31.4592
31.4988
31.5365
31.5581
31.5748
31.5884
31.5893
31.5782
)
;
    }
    empty-11
    {
        type            empty;
    }
    empty-12
    {
        type            empty;
    }
    procBoundary3to0
    {
        type            processor;
        value           uniform 0;
    }
    procBoundary3to2
    {
        type            processor;
        value           uniform 0;
    }
}


// ************************************************************************* //
