/*--------------------------------*- C++ -*----------------------------------*\
  =========                 |
  \\      /  F ield         | OpenFOAM: The Open Source CFD Toolbox
   \\    /   O peration     | Website:  https://openfoam.org
    \\  /    A nd           | Version:  7
     \\/     M anipulation  |
\*---------------------------------------------------------------------------*/
FoamFile
{
    version     2.0;
    format      ascii;
    class       volScalarField;
    location    "1800";
    object      nut;
}
// * * * * * * * * * * * * * * * * * * * * * * * * * * * * * * * * * * * * * //

dimensions      [0 2 -1 0 0 0 0];

internalField   nonuniform List<scalar> 
23064
(
5.20723e-06
5.20851e-06
5.20723e-06
5.20974e-06
5.20851e-06
5.20723e-06
5.21093e-06
5.20973e-06
5.2085e-06
5.20722e-06
5.21208e-06
5.21091e-06
5.20972e-06
5.20849e-06
5.20722e-06
5.2132e-06
5.21207e-06
5.2109e-06
5.20971e-06
5.20848e-06
5.20722e-06
5.21427e-06
5.21318e-06
5.21205e-06
5.21089e-06
5.20969e-06
5.20847e-06
5.20722e-06
5.21531e-06
5.21426e-06
5.21316e-06
5.21203e-06
5.21087e-06
5.20968e-06
5.20847e-06
5.20721e-06
5.21631e-06
5.2153e-06
5.21424e-06
5.21315e-06
5.21202e-06
5.21085e-06
5.20967e-06
5.20846e-06
5.20721e-06
5.21727e-06
5.2163e-06
5.21528e-06
5.21422e-06
5.21313e-06
5.212e-06
5.21084e-06
5.20965e-06
5.20845e-06
5.20721e-06
5.21819e-06
5.21726e-06
5.21628e-06
5.21527e-06
5.21421e-06
5.21311e-06
5.21198e-06
5.21082e-06
5.20964e-06
5.20844e-06
5.2072e-06
5.21907e-06
5.21818e-06
5.21724e-06
5.21627e-06
5.21525e-06
5.21419e-06
5.21309e-06
5.21196e-06
5.2108e-06
5.20962e-06
5.20842e-06
5.2072e-06
5.21991e-06
5.21906e-06
5.21817e-06
5.21723e-06
5.21625e-06
5.21523e-06
5.21417e-06
5.21307e-06
5.21194e-06
5.21078e-06
5.2096e-06
5.20841e-06
5.2072e-06
5.22071e-06
5.2199e-06
5.21905e-06
5.21816e-06
5.21722e-06
5.21624e-06
5.21521e-06
5.21415e-06
5.21305e-06
5.21191e-06
5.21076e-06
5.20959e-06
5.2084e-06
5.20719e-06
5.22147e-06
5.2207e-06
5.21989e-06
5.21904e-06
5.21814e-06
5.21721e-06
5.21622e-06
5.2152e-06
5.21413e-06
5.21303e-06
5.21189e-06
5.21074e-06
5.20957e-06
5.20839e-06
5.20719e-06
5.2222e-06
5.22147e-06
5.2207e-06
5.21989e-06
5.21903e-06
5.21813e-06
5.21719e-06
5.21621e-06
5.21518e-06
5.21411e-06
5.213e-06
5.21187e-06
5.21071e-06
5.20955e-06
5.20837e-06
5.20718e-06
5.2229e-06
5.2222e-06
5.22147e-06
5.2207e-06
5.21988e-06
5.21902e-06
5.21812e-06
5.21718e-06
5.21619e-06
5.21516e-06
5.21408e-06
5.21298e-06
5.21184e-06
5.21069e-06
5.20952e-06
5.20836e-06
5.20718e-06
5.22356e-06
5.2229e-06
5.2222e-06
5.22147e-06
5.22069e-06
5.21987e-06
5.21901e-06
5.21811e-06
5.21716e-06
5.21617e-06
5.21514e-06
5.21406e-06
5.21295e-06
5.21182e-06
5.21066e-06
5.2095e-06
5.20834e-06
5.20717e-06
5.22419e-06
5.22357e-06
5.2229e-06
5.2222e-06
5.22147e-06
5.22069e-06
5.21987e-06
5.219e-06
5.2181e-06
5.21715e-06
5.21615e-06
5.21511e-06
5.21404e-06
5.21293e-06
5.21179e-06
5.21064e-06
5.20948e-06
5.20833e-06
5.20717e-06
5.22479e-06
5.2242e-06
5.22357e-06
5.2229e-06
5.2222e-06
5.22146e-06
5.22068e-06
5.21986e-06
5.21899e-06
5.21808e-06
5.21713e-06
5.21613e-06
5.21509e-06
5.21401e-06
5.2129e-06
5.21176e-06
5.21061e-06
5.20945e-06
5.20831e-06
5.20716e-06
5.22536e-06
5.2248e-06
5.2242e-06
5.22357e-06
5.22291e-06
5.2222e-06
5.22146e-06
5.22068e-06
5.21985e-06
5.21898e-06
5.21807e-06
5.21711e-06
5.21611e-06
5.21507e-06
5.21399e-06
5.21287e-06
5.21173e-06
5.21058e-06
5.20943e-06
5.20829e-06
5.20716e-06
5.22591e-06
5.22537e-06
5.22481e-06
5.22421e-06
5.22358e-06
5.22291e-06
5.2222e-06
5.22146e-06
5.22067e-06
5.21984e-06
5.21897e-06
5.21805e-06
5.21709e-06
5.21609e-06
5.21504e-06
5.21396e-06
5.21284e-06
5.2117e-06
5.21055e-06
5.2094e-06
5.20827e-06
5.20715e-06
5.22642e-06
5.22592e-06
5.22538e-06
5.22481e-06
5.22421e-06
5.22358e-06
5.22291e-06
5.2222e-06
5.22145e-06
5.22067e-06
5.21983e-06
5.21896e-06
5.21804e-06
5.21708e-06
5.21607e-06
5.21502e-06
5.21393e-06
5.21281e-06
5.21167e-06
5.21052e-06
5.20937e-06
5.20825e-06
5.20714e-06
5.22692e-06
5.22643e-06
5.22593e-06
5.22539e-06
5.22482e-06
5.22422e-06
5.22358e-06
5.22291e-06
5.2222e-06
5.22145e-06
5.22066e-06
5.21983e-06
5.21895e-06
5.21802e-06
5.21706e-06
5.21605e-06
5.21499e-06
5.2139e-06
5.21278e-06
5.21163e-06
5.21048e-06
5.20934e-06
5.20823e-06
5.20713e-06
5.22738e-06
5.22693e-06
5.22644e-06
5.22593e-06
5.2254e-06
5.22483e-06
5.22422e-06
5.22359e-06
5.22291e-06
5.2222e-06
5.22145e-06
5.22065e-06
5.21982e-06
5.21894e-06
5.21801e-06
5.21704e-06
5.21602e-06
5.21496e-06
5.21387e-06
5.21274e-06
5.2116e-06
5.21045e-06
5.20931e-06
5.2082e-06
5.20712e-06
5.22783e-06
5.22739e-06
5.22694e-06
5.22645e-06
5.22594e-06
5.2254e-06
5.22483e-06
5.22423e-06
5.22359e-06
5.22291e-06
5.2222e-06
5.22144e-06
5.22065e-06
5.21981e-06
5.21892e-06
5.21799e-06
5.21702e-06
5.216e-06
5.21494e-06
5.21384e-06
5.21271e-06
5.21156e-06
5.21041e-06
5.20928e-06
5.20818e-06
5.20711e-06
5.22825e-06
5.22784e-06
5.22741e-06
5.22695e-06
5.22647e-06
5.22595e-06
5.22541e-06
5.22484e-06
5.22423e-06
5.22359e-06
5.22292e-06
5.2222e-06
5.22144e-06
5.22064e-06
5.2198e-06
5.21891e-06
5.21798e-06
5.217e-06
5.21597e-06
5.21491e-06
5.2138e-06
5.21267e-06
5.21152e-06
5.21037e-06
5.20924e-06
5.20815e-06
5.2071e-06
5.22865e-06
5.22826e-06
5.22785e-06
5.22742e-06
5.22696e-06
5.22648e-06
5.22596e-06
5.22542e-06
5.22485e-06
5.22424e-06
5.2236e-06
5.22292e-06
5.2222e-06
5.22144e-06
5.22064e-06
5.21979e-06
5.2189e-06
5.21796e-06
5.21697e-06
5.21595e-06
5.21488e-06
5.21377e-06
5.21263e-06
5.21148e-06
5.21033e-06
5.2092e-06
5.20812e-06
5.20709e-06
5.22903e-06
5.22866e-06
5.22827e-06
5.22786e-06
5.22743e-06
5.22697e-06
5.22649e-06
5.22597e-06
5.22543e-06
5.22485e-06
5.22425e-06
5.2236e-06
5.22292e-06
5.2222e-06
5.22143e-06
5.22063e-06
5.21978e-06
5.21888e-06
5.21794e-06
5.21695e-06
5.21592e-06
5.21485e-06
5.21373e-06
5.21259e-06
5.21143e-06
5.21028e-06
5.20916e-06
5.20809e-06
5.20708e-06
5.22939e-06
5.22904e-06
5.22867e-06
5.22829e-06
5.22788e-06
5.22744e-06
5.22698e-06
5.2265e-06
5.22598e-06
5.22544e-06
5.22486e-06
5.22425e-06
5.2236e-06
5.22292e-06
5.2222e-06
5.22143e-06
5.22062e-06
5.21977e-06
5.21887e-06
5.21792e-06
5.21693e-06
5.21589e-06
5.21481e-06
5.21369e-06
5.21255e-06
5.21139e-06
5.21024e-06
5.20912e-06
5.20806e-06
5.20707e-06
5.22973e-06
5.2294e-06
5.22905e-06
5.22869e-06
5.2283e-06
5.22789e-06
5.22746e-06
5.227e-06
5.22651e-06
5.22599e-06
5.22545e-06
5.22487e-06
5.22426e-06
5.22361e-06
5.22292e-06
5.2222e-06
5.22143e-06
5.22062e-06
5.21976e-06
5.21885e-06
5.2179e-06
5.21691e-06
5.21586e-06
5.21478e-06
5.21365e-06
5.2125e-06
5.21134e-06
5.21019e-06
5.20907e-06
5.20803e-06
5.20706e-06
0.000277312
5.23005e-06
5.22974e-06
5.22942e-06
5.22907e-06
5.2287e-06
5.22831e-06
5.2279e-06
5.22747e-06
5.22701e-06
5.22652e-06
5.226e-06
5.22546e-06
5.22488e-06
5.22426e-06
5.22361e-06
5.22292e-06
5.2222e-06
5.22142e-06
5.22061e-06
5.21975e-06
5.21884e-06
5.21788e-06
5.21688e-06
5.21583e-06
5.21474e-06
5.21361e-06
5.21246e-06
5.21129e-06
5.21014e-06
5.20903e-06
5.20799e-06
5.20704e-06
0.000291579
0.000281093
5.23036e-06
5.23007e-06
5.22976e-06
5.22943e-06
5.22908e-06
5.22872e-06
5.22833e-06
5.22792e-06
5.22748e-06
5.22702e-06
5.22653e-06
5.22602e-06
5.22547e-06
5.22489e-06
5.22427e-06
5.22362e-06
5.22293e-06
5.22219e-06
5.22142e-06
5.2206e-06
5.21974e-06
5.21882e-06
5.21786e-06
5.21686e-06
5.2158e-06
5.21471e-06
5.21357e-06
5.21241e-06
5.21124e-06
5.21008e-06
5.20898e-06
5.20795e-06
5.20702e-06
0.000539066
0.00029347
0.000284843
5.23065e-06
5.23037e-06
5.23008e-06
5.22977e-06
5.22945e-06
5.2291e-06
5.22873e-06
5.22834e-06
5.22793e-06
5.2275e-06
5.22704e-06
5.22655e-06
5.22603e-06
5.22548e-06
5.22489e-06
5.22428e-06
5.22362e-06
5.22293e-06
5.22219e-06
5.22142e-06
5.22059e-06
5.21973e-06
5.21881e-06
5.21784e-06
5.21683e-06
5.21577e-06
5.21467e-06
5.21353e-06
5.21236e-06
5.21118e-06
5.21003e-06
5.20892e-06
5.20791e-06
5.20701e-06
0.000786499
0.00054221
0.000295401
0.000288661
5.23093e-06
5.23067e-06
5.23039e-06
5.2301e-06
5.22979e-06
5.22946e-06
5.22912e-06
5.22875e-06
5.22836e-06
5.22795e-06
5.22751e-06
5.22705e-06
5.22656e-06
5.22604e-06
5.22549e-06
5.2249e-06
5.22428e-06
5.22363e-06
5.22293e-06
5.22219e-06
5.22141e-06
5.22059e-06
5.21971e-06
5.21879e-06
5.21782e-06
5.2168e-06
5.21574e-06
5.21463e-06
5.21348e-06
5.21231e-06
5.21112e-06
5.20997e-06
5.20887e-06
5.20786e-06
5.20699e-06
0.00103676
0.000790175
0.000545414
0.000297302
0.000292499
5.23119e-06
5.23094e-06
5.23068e-06
5.23041e-06
5.23011e-06
5.2298e-06
5.22948e-06
5.22913e-06
5.22876e-06
5.22837e-06
5.22796e-06
5.22753e-06
5.22706e-06
5.22657e-06
5.22605e-06
5.2255e-06
5.22491e-06
5.22429e-06
5.22363e-06
5.22293e-06
5.22219e-06
5.22141e-06
5.22058e-06
5.2197e-06
5.21878e-06
5.2178e-06
5.21678e-06
5.2157e-06
5.21459e-06
5.21343e-06
5.21225e-06
5.21106e-06
5.2099e-06
5.20881e-06
5.20782e-06
5.20697e-06
0.0012808
0.00104012
0.00079386
0.000548543
0.000299317
0.000296334
5.23144e-06
5.2312e-06
5.23096e-06
5.2307e-06
5.23042e-06
5.23013e-06
5.22982e-06
5.22949e-06
5.22915e-06
5.22878e-06
5.22839e-06
5.22798e-06
5.22754e-06
5.22708e-06
5.22658e-06
5.22606e-06
5.22551e-06
5.22492e-06
5.2243e-06
5.22364e-06
5.22294e-06
5.22219e-06
5.22141e-06
5.22057e-06
5.21969e-06
5.21876e-06
5.21778e-06
5.21675e-06
5.21567e-06
5.21454e-06
5.21338e-06
5.21219e-06
5.211e-06
5.20984e-06
5.20874e-06
5.20777e-06
5.20695e-06
0.00151329
0.00128303
0.00104346
0.00079759
0.0005519
0.000301353
0.000300242
5.23167e-06
5.23145e-06
5.23122e-06
5.23097e-06
5.23071e-06
5.23044e-06
5.23015e-06
5.22984e-06
5.22951e-06
5.22916e-06
5.2288e-06
5.22841e-06
5.22799e-06
5.22756e-06
5.22709e-06
5.2266e-06
5.22608e-06
5.22552e-06
5.22493e-06
5.22431e-06
5.22364e-06
5.22294e-06
5.22219e-06
5.2214e-06
5.22056e-06
5.21968e-06
5.21874e-06
5.21776e-06
5.21672e-06
5.21563e-06
5.2145e-06
5.21333e-06
5.21213e-06
5.21093e-06
5.20977e-06
5.20868e-06
5.20771e-06
5.20692e-06
0.00173153
0.0015137
0.00128516
0.00104677
0.000801404
0.000555099
0.000303419
0.000304153
5.23189e-06
5.23169e-06
5.23147e-06
5.23123e-06
5.23099e-06
5.23073e-06
5.23045e-06
5.23016e-06
5.22985e-06
5.22953e-06
5.22918e-06
5.22881e-06
5.22842e-06
5.22801e-06
5.22757e-06
5.22711e-06
5.22661e-06
5.22609e-06
5.22553e-06
5.22494e-06
5.22431e-06
5.22365e-06
5.22294e-06
5.22219e-06
5.2214e-06
5.22056e-06
5.21967e-06
5.21873e-06
5.21773e-06
5.21669e-06
5.21559e-06
5.21445e-06
5.21327e-06
5.21207e-06
5.21086e-06
5.20969e-06
5.2086e-06
5.20765e-06
5.2069e-06
0.00193417
0.00172956
0.00151393
0.00128719
0.00105008
0.000805076
0.00055851
0.000305553
0.000308158
5.2321e-06
5.23191e-06
5.2317e-06
5.23148e-06
5.23125e-06
5.23101e-06
5.23075e-06
5.23047e-06
5.23018e-06
5.22987e-06
5.22954e-06
5.2292e-06
5.22883e-06
5.22844e-06
5.22803e-06
5.22759e-06
5.22712e-06
5.22663e-06
5.2261e-06
5.22554e-06
5.22495e-06
5.22432e-06
5.22366e-06
5.22295e-06
5.22219e-06
5.2214e-06
5.22055e-06
5.21965e-06
5.21871e-06
5.21771e-06
5.21666e-06
5.21556e-06
5.21441e-06
5.21322e-06
5.212e-06
5.21079e-06
5.20961e-06
5.20853e-06
5.20759e-06
5.20687e-06
0.00212033
0.00192933
0.00172731
0.00151395
0.00128911
0.00105326
0.000808879
0.000561896
0.000307614
0.000312181
5.2323e-06
5.23212e-06
5.23192e-06
5.23172e-06
5.2315e-06
5.23127e-06
5.23102e-06
5.23076e-06
5.23049e-06
5.2302e-06
5.22989e-06
5.22956e-06
5.22922e-06
5.22885e-06
5.22846e-06
5.22804e-06
5.2276e-06
5.22714e-06
5.22664e-06
5.22612e-06
5.22556e-06
5.22496e-06
5.22433e-06
5.22366e-06
5.22295e-06
5.22219e-06
5.22139e-06
5.22054e-06
5.21964e-06
5.21869e-06
5.21768e-06
5.21663e-06
5.21551e-06
5.21436e-06
5.21316e-06
5.21194e-06
5.21071e-06
5.20953e-06
5.20845e-06
5.20753e-06
5.20684e-06
0.00228924
0.00211218
0.00192412
0.00172476
0.00151377
0.00129083
0.00105644
0.000812649
0.000565296
0.000309896
0.000316243
5.23249e-06
5.23232e-06
5.23213e-06
5.23194e-06
5.23173e-06
5.23152e-06
5.23128e-06
5.23104e-06
5.23078e-06
5.23051e-06
5.23022e-06
5.22991e-06
5.22958e-06
5.22923e-06
5.22886e-06
5.22847e-06
5.22806e-06
5.22762e-06
5.22715e-06
5.22666e-06
5.22613e-06
5.22557e-06
5.22497e-06
5.22434e-06
5.22367e-06
5.22295e-06
5.2222e-06
5.22139e-06
5.22053e-06
5.21963e-06
5.21867e-06
5.21766e-06
5.21659e-06
5.21547e-06
5.21431e-06
5.2131e-06
5.21186e-06
5.21063e-06
5.20945e-06
5.20836e-06
5.20745e-06
5.20681e-06
0.00244005
0.00227734
0.00210356
0.00191851
0.0017219
0.0015133
0.00129245
0.0010595
0.000816479
0.000568942
0.000312141
0.000320419
5.23267e-06
5.23251e-06
5.23233e-06
5.23215e-06
5.23196e-06
5.23175e-06
5.23153e-06
5.2313e-06
5.23106e-06
5.2308e-06
5.23052e-06
5.23023e-06
5.22993e-06
5.2296e-06
5.22925e-06
5.22888e-06
5.22849e-06
5.22808e-06
5.22764e-06
5.22717e-06
5.22667e-06
5.22614e-06
5.22558e-06
5.22499e-06
5.22435e-06
5.22368e-06
5.22296e-06
5.2222e-06
5.22139e-06
5.22053e-06
5.21962e-06
5.21865e-06
5.21763e-06
5.21656e-06
5.21543e-06
5.21425e-06
5.21303e-06
5.21179e-06
5.21055e-06
5.20935e-06
5.20827e-06
5.20738e-06
5.20677e-06
0.00257181
0.00242396
0.00226484
0.00209443
0.00191247
0.00171866
0.00151262
0.00129384
0.00106256
0.000820392
0.00057241
0.00031449
0.00032467
5.23284e-06
5.23269e-06
5.23252e-06
5.23235e-06
5.23217e-06
5.23197e-06
5.23177e-06
5.23155e-06
5.23132e-06
5.23108e-06
5.23082e-06
5.23054e-06
5.23025e-06
5.22994e-06
5.22962e-06
5.22927e-06
5.2289e-06
5.22851e-06
5.2281e-06
5.22766e-06
5.22719e-06
5.22669e-06
5.22616e-06
5.2256e-06
5.225e-06
5.22436e-06
5.22368e-06
5.22296e-06
5.2222e-06
5.22138e-06
5.22052e-06
5.2196e-06
5.21863e-06
5.21761e-06
5.21652e-06
5.21539e-06
5.2142e-06
5.21297e-06
5.21171e-06
5.21046e-06
5.20926e-06
5.20818e-06
5.2073e-06
5.20673e-06
0.0026834
0.00255106
0.00240713
0.00225171
0.00208472
0.00190594
0.0017151
0.0015116
0.00129513
0.00106555
0.000824148
0.000576072
0.000316927
0.000328954
5.233e-06
5.23286e-06
5.2327e-06
5.23254e-06
5.23236e-06
5.23218e-06
5.23199e-06
5.23178e-06
5.23157e-06
5.23134e-06
5.23109e-06
5.23084e-06
5.23056e-06
5.23027e-06
5.22996e-06
5.22964e-06
5.22929e-06
5.22892e-06
5.22853e-06
5.22811e-06
5.22767e-06
5.2272e-06
5.22671e-06
5.22618e-06
5.22561e-06
5.22501e-06
5.22437e-06
5.22369e-06
5.22297e-06
5.2222e-06
5.22138e-06
5.22051e-06
5.21959e-06
5.21861e-06
5.21758e-06
5.21649e-06
5.21534e-06
5.21414e-06
5.2129e-06
5.21163e-06
5.21037e-06
5.20916e-06
5.20807e-06
5.20721e-06
5.20669e-06
0.00277356
0.00265749
0.00252941
0.00238952
0.00223789
0.00207441
0.00189897
0.00171107
0.00151037
0.00129622
0.00106837
0.000828047
0.000579831
0.000319451
0.000333392
5.23315e-06
5.23302e-06
5.23287e-06
5.23272e-06
5.23255e-06
5.23238e-06
5.2322e-06
5.232e-06
5.2318e-06
5.23158e-06
5.23135e-06
5.23111e-06
5.23085e-06
5.23058e-06
5.23029e-06
5.22998e-06
5.22966e-06
5.22931e-06
5.22894e-06
5.22855e-06
5.22813e-06
5.22769e-06
5.22722e-06
5.22672e-06
5.22619e-06
5.22563e-06
5.22502e-06
5.22438e-06
5.2237e-06
5.22297e-06
5.2222e-06
5.22138e-06
5.22051e-06
5.21958e-06
5.2186e-06
5.21755e-06
5.21645e-06
5.21529e-06
5.21408e-06
5.21283e-06
5.21155e-06
5.21027e-06
5.20905e-06
5.20797e-06
5.20712e-06
5.20664e-06
0.00284088
0.00274196
0.00263052
0.00250682
0.00237107
0.00222331
0.00206352
0.0018914
0.00170671
0.0015088
0.00129705
0.00107117
0.000831946
0.000583624
0.00032203
0.000337964
5.2333e-06
5.23317e-06
5.23303e-06
5.23288e-06
5.23273e-06
5.23257e-06
5.2324e-06
5.23221e-06
5.23202e-06
5.23182e-06
5.2316e-06
5.23137e-06
5.23113e-06
5.23087e-06
5.2306e-06
5.23031e-06
5.23e-06
5.22968e-06
5.22933e-06
5.22896e-06
5.22857e-06
5.22815e-06
5.22771e-06
5.22724e-06
5.22674e-06
5.22621e-06
5.22564e-06
5.22504e-06
5.2244e-06
5.22371e-06
5.22298e-06
5.2222e-06
5.22138e-06
5.2205e-06
5.21957e-06
5.21858e-06
5.21753e-06
5.21641e-06
5.21525e-06
5.21402e-06
5.21275e-06
5.21146e-06
5.21017e-06
5.20894e-06
5.20785e-06
5.20701e-06
5.20662e-06
0.00288379
0.00280305
0.00270914
0.00260242
0.00248322
0.00235169
0.00220796
0.00205188
0.00188333
0.00170186
0.00150686
0.00129773
0.00107385
0.000835782
0.00058741
0.000324715
0.000342553
5.23343e-06
5.23331e-06
5.23318e-06
5.23304e-06
5.2329e-06
5.23275e-06
5.23258e-06
5.23241e-06
5.23223e-06
5.23204e-06
5.23184e-06
5.23162e-06
5.23139e-06
5.23115e-06
5.23089e-06
5.23062e-06
5.23033e-06
5.23002e-06
5.2297e-06
5.22935e-06
5.22898e-06
5.22859e-06
5.22818e-06
5.22773e-06
5.22726e-06
5.22676e-06
5.22623e-06
5.22566e-06
5.22505e-06
5.22441e-06
5.22372e-06
5.22299e-06
5.22221e-06
5.22138e-06
5.22049e-06
5.21955e-06
5.21856e-06
5.2175e-06
5.21638e-06
5.2152e-06
5.21396e-06
5.21268e-06
5.21137e-06
5.21006e-06
5.20882e-06
5.20773e-06
5.20692e-06
5.20663e-06
0.00290058
0.00283915
0.0027638
0.00267499
0.00257313
0.00245851
0.00233137
0.00219171
0.00203956
0.00187463
0.0016965
0.0015046
0.00129813
0.00107638
0.000839649
0.000591571
0.000327527
0.000347279
5.23356e-06
5.23345e-06
5.23332e-06
5.23319e-06
5.23306e-06
5.23291e-06
5.23276e-06
5.2326e-06
5.23243e-06
5.23225e-06
5.23206e-06
5.23185e-06
5.23164e-06
5.23141e-06
5.23117e-06
5.23091e-06
5.23064e-06
5.23035e-06
5.23004e-06
5.22972e-06
5.22937e-06
5.229e-06
5.22861e-06
5.2282e-06
5.22775e-06
5.22728e-06
5.22678e-06
5.22624e-06
5.22567e-06
5.22507e-06
5.22442e-06
5.22373e-06
5.223e-06
5.22221e-06
5.22138e-06
5.22049e-06
5.21954e-06
5.21854e-06
5.21747e-06
5.21634e-06
5.21515e-06
5.2139e-06
5.2126e-06
5.21127e-06
5.20995e-06
5.20869e-06
5.2076e-06
5.20687e-06
5.20667e-06
0.00288935
0.00284852
0.00279287
0.00272301
0.00263943
0.00254253
0.00243266
0.00230997
0.0021746
0.00202644
0.00186525
0.00169064
0.00150192
0.00129823
0.00107881
0.00084366
0.000595635
0.000330448
0.000352195
5.23368e-06
5.23357e-06
5.23346e-06
5.23334e-06
5.23321e-06
5.23307e-06
5.23293e-06
5.23278e-06
5.23262e-06
5.23245e-06
5.23227e-06
5.23208e-06
5.23187e-06
5.23166e-06
5.23143e-06
5.23119e-06
5.23093e-06
5.23066e-06
5.23037e-06
5.23007e-06
5.22974e-06
5.22939e-06
5.22903e-06
5.22864e-06
5.22822e-06
5.22778e-06
5.2273e-06
5.2268e-06
5.22626e-06
5.22569e-06
5.22508e-06
5.22443e-06
5.22374e-06
5.223e-06
5.22222e-06
5.22138e-06
5.22048e-06
5.21953e-06
5.21852e-06
5.21744e-06
5.2163e-06
5.21509e-06
5.21383e-06
5.21252e-06
5.21117e-06
5.20983e-06
5.20856e-06
5.20747e-06
5.20685e-06
5.20672e-06
0.00284813
0.00282924
0.00279458
0.00274482
0.00268058
0.00260234
0.00251056
0.00240553
0.00228749
0.0021565
0.00201246
0.00185518
0.00168419
0.00149877
0.00129809
0.00108114
0.000847495
0.000599697
0.000333523
0.00035727
5.2338e-06
5.2337e-06
5.23359e-06
5.23347e-06
5.23335e-06
5.23322e-06
5.23309e-06
5.23295e-06
5.23279e-06
5.23263e-06
5.23246e-06
5.23228e-06
5.23209e-06
5.23189e-06
5.23168e-06
5.23145e-06
5.23121e-06
5.23096e-06
5.23068e-06
5.2304e-06
5.23009e-06
5.22976e-06
5.22942e-06
5.22905e-06
5.22866e-06
5.22824e-06
5.2278e-06
5.22733e-06
5.22682e-06
5.22628e-06
5.22571e-06
5.2251e-06
5.22445e-06
5.22375e-06
5.22301e-06
5.22222e-06
5.22138e-06
5.22048e-06
5.21952e-06
5.2185e-06
5.21741e-06
5.21626e-06
5.21504e-06
5.21376e-06
5.21243e-06
5.21107e-06
5.20971e-06
5.20842e-06
5.20735e-06
5.20686e-06
5.20678e-06
0.00277477
0.00277929
0.00276698
0.00273862
0.00269488
0.00263638
0.00256364
0.00247709
0.00237707
0.00226379
0.0021373
0.00199758
0.00184434
0.0016771
0.00149519
0.00129763
0.00108318
0.000851284
0.000604013
0.000336741
0.000362521
5.23391e-06
5.23381e-06
5.23371e-06
5.2336e-06
5.23349e-06
5.23337e-06
5.23324e-06
5.2331e-06
5.23296e-06
5.23281e-06
5.23265e-06
5.23248e-06
5.2323e-06
5.23211e-06
5.23191e-06
5.2317e-06
5.23147e-06
5.23123e-06
5.23098e-06
5.23071e-06
5.23042e-06
5.23011e-06
5.22979e-06
5.22944e-06
5.22907e-06
5.22868e-06
5.22827e-06
5.22782e-06
5.22735e-06
5.22684e-06
5.22631e-06
5.22573e-06
5.22512e-06
5.22447e-06
5.22377e-06
5.22302e-06
5.22223e-06
5.22138e-06
5.22047e-06
5.21951e-06
5.21848e-06
5.21738e-06
5.21622e-06
5.21499e-06
5.21369e-06
5.21234e-06
5.21096e-06
5.20958e-06
5.20827e-06
5.20723e-06
5.20692e-06
5.20686e-06
0.0026671
0.00269654
0.00270804
0.00270244
0.00268051
0.00264292
0.0025903
0.00252319
0.00244203
0.00234715
0.00223877
0.00211697
0.00198169
0.00183263
0.00166935
0.00149108
0.0012967
0.001085
0.000855142
0.000608413
0.00034013
0.000367964
5.23401e-06
5.23392e-06
5.23382e-06
5.23372e-06
5.23361e-06
5.2335e-06
5.23338e-06
5.23325e-06
5.23312e-06
5.23298e-06
5.23283e-06
5.23267e-06
5.2325e-06
5.23232e-06
5.23213e-06
5.23193e-06
5.23172e-06
5.23149e-06
5.23125e-06
5.231e-06
5.23073e-06
5.23044e-06
5.23014e-06
5.22981e-06
5.22947e-06
5.2291e-06
5.22871e-06
5.22829e-06
5.22785e-06
5.22737e-06
5.22687e-06
5.22633e-06
5.22575e-06
5.22514e-06
5.22448e-06
5.22378e-06
5.22303e-06
5.22223e-06
5.22138e-06
5.22047e-06
5.2195e-06
5.21846e-06
5.21735e-06
5.21618e-06
5.21493e-06
5.21362e-06
5.21225e-06
5.21085e-06
5.20945e-06
5.20812e-06
5.20715e-06
5.20701e-06
5.20695e-06
0.00252288
0.00257878
0.00261561
0.00263423
0.00263546
0.00262008
0.00258878
0.00254219
0.00248086
0.00240523
0.00231565
0.00221233
0.00209539
0.0019647
0.00182002
0.00166084
0.00148631
0.00129539
0.00108668
0.000858924
0.000612926
0.000343703
0.000373568
5.23411e-06
5.23402e-06
5.23393e-06
5.23384e-06
5.23374e-06
5.23363e-06
5.23352e-06
5.2334e-06
5.23327e-06
5.23314e-06
5.233e-06
5.23285e-06
5.23269e-06
5.23252e-06
5.23234e-06
5.23215e-06
5.23195e-06
5.23174e-06
5.23152e-06
5.23128e-06
5.23102e-06
5.23075e-06
5.23047e-06
5.23016e-06
5.22984e-06
5.22949e-06
5.22912e-06
5.22873e-06
5.22832e-06
5.22787e-06
5.2274e-06
5.22689e-06
5.22635e-06
5.22577e-06
5.22516e-06
5.2245e-06
5.2238e-06
5.22304e-06
5.22224e-06
5.22138e-06
5.22047e-06
5.21949e-06
5.21844e-06
5.21732e-06
5.21613e-06
5.21487e-06
5.21355e-06
5.21216e-06
5.21073e-06
5.2093e-06
5.20796e-06
5.20712e-06
5.20713e-06
5.20704e-06
0.00233995
0.00242383
0.00248748
0.00253182
0.00255767
0.00256586
0.00255717
0.0025323
0.00249189
0.00243649
0.00236655
0.00228244
0.00218437
0.00207242
0.00194653
0.00180639
0.00165145
0.00148092
0.00129368
0.00108807
0.000862668
0.000617569
0.00034751
0.000379487
5.2342e-06
5.23412e-06
5.23404e-06
5.23395e-06
5.23385e-06
5.23375e-06
5.23364e-06
5.23353e-06
5.23341e-06
5.23329e-06
5.23315e-06
5.23301e-06
5.23286e-06
5.23271e-06
5.23254e-06
5.23236e-06
5.23218e-06
5.23198e-06
5.23176e-06
5.23154e-06
5.2313e-06
5.23105e-06
5.23078e-06
5.23049e-06
5.23019e-06
5.22986e-06
5.22952e-06
5.22915e-06
5.22876e-06
5.22834e-06
5.2279e-06
5.22742e-06
5.22691e-06
5.22637e-06
5.2258e-06
5.22518e-06
5.22452e-06
5.22381e-06
5.22306e-06
5.22225e-06
5.22139e-06
5.22046e-06
5.21947e-06
5.21842e-06
5.21729e-06
5.21609e-06
5.21482e-06
5.21347e-06
5.21206e-06
5.21061e-06
5.20915e-06
5.20782e-06
5.20712e-06
5.20727e-06
5.20715e-06
0.00211632
0.00222959
0.00232152
0.00239304
0.00244497
0.00247817
0.00249345
0.00249159
0.0024733
0.00243921
0.00238991
0.00232584
0.00224737
0.00215472
0.00204797
0.00192704
0.00179161
0.00164116
0.00147487
0.00129142
0.00108917
0.000866294
0.000622292
0.000351507
0.000385718
5.23429e-06
5.23421e-06
5.23413e-06
5.23405e-06
5.23396e-06
5.23386e-06
5.23376e-06
5.23366e-06
5.23355e-06
5.23343e-06
5.2333e-06
5.23317e-06
5.23303e-06
5.23288e-06
5.23273e-06
5.23256e-06
5.23238e-06
5.2322e-06
5.232e-06
5.23179e-06
5.23156e-06
5.23132e-06
5.23107e-06
5.2308e-06
5.23052e-06
5.23021e-06
5.22989e-06
5.22954e-06
5.22918e-06
5.22879e-06
5.22837e-06
5.22792e-06
5.22745e-06
5.22694e-06
5.2264e-06
5.22582e-06
5.2252e-06
5.22454e-06
5.22383e-06
5.22307e-06
5.22226e-06
5.22139e-06
5.22046e-06
5.21947e-06
5.2184e-06
5.21726e-06
5.21605e-06
5.21476e-06
5.21339e-06
5.21197e-06
5.21049e-06
5.209e-06
5.20768e-06
5.20717e-06
5.20744e-06
5.20728e-06
0.00185037
0.00199416
0.0021157
0.00221579
0.00229521
0.00235485
0.00239551
0.00241801
0.00242312
0.00241157
0.00238399
0.00234095
0.00228292
0.00221027
0.00212323
0.00202188
0.0019061
0.00177561
0.0016299
0.00146797
0.00128858
0.00108989
0.000869784
0.000627022
0.0003558
0.000392199
5.23437e-06
5.2343e-06
5.23423e-06
5.23415e-06
5.23406e-06
5.23397e-06
5.23388e-06
5.23378e-06
5.23367e-06
5.23356e-06
5.23344e-06
5.23332e-06
5.23319e-06
5.23305e-06
5.2329e-06
5.23275e-06
5.23258e-06
5.23241e-06
5.23222e-06
5.23202e-06
5.23181e-06
5.23159e-06
5.23135e-06
5.2311e-06
5.23083e-06
5.23054e-06
5.23024e-06
5.22992e-06
5.22957e-06
5.2292e-06
5.22881e-06
5.2284e-06
5.22795e-06
5.22748e-06
5.22697e-06
5.22642e-06
5.22584e-06
5.22522e-06
5.22456e-06
5.22385e-06
5.22308e-06
5.22227e-06
5.2214e-06
5.22046e-06
5.21946e-06
5.21838e-06
5.21723e-06
5.21601e-06
5.2147e-06
5.21332e-06
5.21186e-06
5.21036e-06
5.20883e-06
5.20756e-06
5.20726e-06
5.20763e-06
5.20741e-06
0.0015409
0.00171608
0.00186826
0.00199814
0.00210636
0.00219379
0.00226122
0.00230946
0.00233931
0.00235156
0.00234689
0.00232598
0.00228939
0.0022376
0.00217097
0.00208973
0.00199396
0.00188357
0.00175829
0.00161745
0.00146018
0.00128505
0.00109018
0.000873145
0.000632147
0.000360384
0.000398959
5.23445e-06
5.23438e-06
5.23431e-06
5.23424e-06
5.23416e-06
5.23407e-06
5.23399e-06
5.23389e-06
5.23379e-06
5.23369e-06
5.23358e-06
5.23346e-06
5.23334e-06
5.23321e-06
5.23307e-06
5.23292e-06
5.23277e-06
5.2326e-06
5.23243e-06
5.23224e-06
5.23204e-06
5.23183e-06
5.23161e-06
5.23137e-06
5.23112e-06
5.23085e-06
5.23057e-06
5.23027e-06
5.22994e-06
5.2296e-06
5.22923e-06
5.22884e-06
5.22843e-06
5.22798e-06
5.2275e-06
5.22699e-06
5.22645e-06
5.22587e-06
5.22525e-06
5.22458e-06
5.22387e-06
5.2231e-06
5.22228e-06
5.2214e-06
5.22046e-06
5.21945e-06
5.21836e-06
5.2172e-06
5.21596e-06
5.21464e-06
5.21324e-06
5.21176e-06
5.21022e-06
5.20867e-06
5.20746e-06
5.20739e-06
5.20784e-06
5.20755e-06
0.00118725
0.00139443
0.00157795
0.0017385
0.0018766
0.00199305
0.00208853
0.00216384
0.00221977
0.00225712
0.00227662
0.00227902
0.00226496
0.00223501
0.00218964
0.00212922
0.002054
0.00196405
0.00185931
0.00173939
0.00160373
0.00145134
0.00128078
0.00109004
0.000876473
0.000637308
0.000365337
0.000406137
5.23453e-06
5.23446e-06
5.2344e-06
5.23432e-06
5.23425e-06
5.23417e-06
5.23409e-06
5.234e-06
5.23391e-06
5.23381e-06
5.2337e-06
5.23359e-06
5.23348e-06
5.23336e-06
5.23323e-06
5.23309e-06
5.23294e-06
5.23279e-06
5.23262e-06
5.23245e-06
5.23226e-06
5.23207e-06
5.23186e-06
5.23164e-06
5.2314e-06
5.23115e-06
5.23088e-06
5.2306e-06
5.2303e-06
5.22997e-06
5.22963e-06
5.22926e-06
5.22887e-06
5.22846e-06
5.22801e-06
5.22753e-06
5.22702e-06
5.22648e-06
5.2259e-06
5.22527e-06
5.2246e-06
5.22389e-06
5.22312e-06
5.22229e-06
5.22141e-06
5.22046e-06
5.21944e-06
5.21835e-06
5.21717e-06
5.21592e-06
5.21458e-06
5.21315e-06
5.21165e-06
5.21008e-06
5.2085e-06
5.20741e-06
5.20755e-06
5.20807e-06
5.20772e-06
0.000786374
0.00102839
0.00124399
0.00143581
0.00160455
0.00175096
0.00187559
0.00197916
0.00206243
0.00212617
0.00217112
0.00219807
0.00220769
0.00220066
0.00217753
0.00213879
0.00208481
0.00201583
0.00193195
0.00183305
0.00171881
0.00158857
0.00144137
0.00127569
0.00108943
0.000879504
0.000642556
0.000370722
0.000413879
5.2346e-06
5.23454e-06
5.23447e-06
5.23441e-06
5.23434e-06
5.23426e-06
5.23418e-06
5.2341e-06
5.23401e-06
5.23392e-06
5.23382e-06
5.23372e-06
5.23361e-06
5.2335e-06
5.23337e-06
5.23325e-06
5.23311e-06
5.23296e-06
5.23281e-06
5.23265e-06
5.23247e-06
5.23229e-06
5.23209e-06
5.23188e-06
5.23166e-06
5.23143e-06
5.23118e-06
5.23091e-06
5.23063e-06
5.23032e-06
5.23e-06
5.22966e-06
5.22929e-06
5.2289e-06
5.22849e-06
5.22804e-06
5.22756e-06
5.22705e-06
5.22651e-06
5.22593e-06
5.2253e-06
5.22463e-06
5.22391e-06
5.22314e-06
5.22231e-06
5.22142e-06
5.22046e-06
5.21944e-06
5.21833e-06
5.21715e-06
5.21588e-06
5.21452e-06
5.21307e-06
5.21154e-06
5.20993e-06
5.20834e-06
5.2074e-06
5.20774e-06
5.20833e-06
5.2079e-06
0.000353701
0.000613278
0.000864693
0.00108938
0.00128936
0.00146632
0.00162089
0.0017537
0.00186542
0.00195673
0.00202834
0.00208106
0.00211558
0.0021326
0.00213278
0.00211667
0.00208477
0.00203745
0.00197496
0.00189737
0.00180461
0.0016963
0.00157181
0.00143012
0.00126968
0.00108814
0.000882254
0.000647813
0.000376558
0.0004221
5.23466e-06
5.23461e-06
5.23455e-06
5.23448e-06
5.23442e-06
5.23435e-06
5.23427e-06
5.2342e-06
5.23412e-06
5.23403e-06
5.23394e-06
5.23384e-06
5.23374e-06
5.23363e-06
5.23351e-06
5.23339e-06
5.23326e-06
5.23313e-06
5.23298e-06
5.23283e-06
5.23267e-06
5.2325e-06
5.23231e-06
5.23212e-06
5.23191e-06
5.23169e-06
5.23145e-06
5.2312e-06
5.23094e-06
5.23066e-06
5.23036e-06
5.23003e-06
5.22969e-06
5.22933e-06
5.22894e-06
5.22852e-06
5.22807e-06
5.2276e-06
5.22709e-06
5.22654e-06
5.22596e-06
5.22533e-06
5.22465e-06
5.22393e-06
5.22316e-06
5.22232e-06
5.22143e-06
5.22047e-06
5.21943e-06
5.21832e-06
5.21712e-06
5.21583e-06
5.21446e-06
5.21299e-06
5.21142e-06
5.20977e-06
5.20819e-06
5.20743e-06
5.20796e-06
5.2086e-06
5.2081e-06
4.14821e-05
0.000209519
0.000441486
0.000695469
0.000930012
0.00113844
0.00132348
0.00148618
0.00162713
0.001747
0.00184638
0.001926
0.00198658
0.00202882
0.00205341
0.00206097
0.00205209
0.00202725
0.00198682
0.00193106
0.00186005
0.0017737
0.00167165
0.00155325
0.00141743
0.00126253
0.00108612
0.000884632
0.000653356
0.000382994
0.000430766
5.23473e-06
5.23467e-06
5.23462e-06
5.23456e-06
5.23449e-06
5.23443e-06
5.23436e-06
5.23429e-06
5.23421e-06
5.23413e-06
5.23404e-06
5.23395e-06
5.23386e-06
5.23375e-06
5.23365e-06
5.23353e-06
5.23341e-06
5.23329e-06
5.23315e-06
5.23301e-06
5.23285e-06
5.23269e-06
5.23252e-06
5.23234e-06
5.23214e-06
5.23194e-06
5.23172e-06
5.23148e-06
5.23123e-06
5.23097e-06
5.23069e-06
5.23039e-06
5.23007e-06
5.22972e-06
5.22936e-06
5.22897e-06
5.22855e-06
5.22811e-06
5.22763e-06
5.22712e-06
5.22657e-06
5.22599e-06
5.22536e-06
5.22468e-06
5.22396e-06
5.22318e-06
5.22234e-06
5.22144e-06
5.22047e-06
5.21943e-06
5.2183e-06
5.21709e-06
5.21579e-06
5.21439e-06
5.2129e-06
5.2113e-06
5.20961e-06
5.20806e-06
5.20751e-06
5.2082e-06
5.2089e-06
5.20832e-06
8.05969e-08
2.52148e-06
9.49016e-05
0.000283289
0.000522965
0.000764912
0.000982621
0.0011758
0.00134654
0.00149561
0.00162359
0.00173109
0.00181877
0.00188732
0.00193741
0.00196972
0.00198487
0.00198342
0.00196586
0.00193257
0.00188381
0.00181967
0.00174005
0.00164458
0.00153263
0.00140303
0.0012541
0.00108325
0.000886794
0.000659158
0.000390136
0.00044014
5.23479e-06
5.23473e-06
5.23468e-06
5.23463e-06
5.23457e-06
5.23451e-06
5.23444e-06
5.23437e-06
5.2343e-06
5.23422e-06
5.23414e-06
5.23406e-06
5.23397e-06
5.23387e-06
5.23377e-06
5.23367e-06
5.23355e-06
5.23343e-06
5.23331e-06
5.23317e-06