/*--------------------------------*- C++ -*----------------------------------*\
  =========                 |
  \\      /  F ield         | OpenFOAM: The Open Source CFD Toolbox
   \\    /   O peration     | Website:  https://openfoam.org
    \\  /    A nd           | Version:  7
     \\/     M anipulation  |
\*---------------------------------------------------------------------------*/
FoamFile
{
    version     2.0;
    format      ascii;
    class       volScalarField;
    location    "1800";
    object      nuTilda;
}
// * * * * * * * * * * * * * * * * * * * * * * * * * * * * * * * * * * * * * //

dimensions      [0 2 -1 0 0 0 0];

internalField   nonuniform List<scalar> 
23064
(
3.43222e-05
3.43246e-05
3.43222e-05
3.43269e-05
3.43246e-05
3.43222e-05
3.43291e-05
3.43269e-05
3.43246e-05
3.43222e-05
3.43313e-05
3.43291e-05
3.43269e-05
3.43246e-05
3.43222e-05
3.43333e-05
3.43312e-05
3.43291e-05
3.43268e-05
3.43246e-05
3.43222e-05
3.43353e-05
3.43333e-05
3.43312e-05
3.4329e-05
3.43268e-05
3.43245e-05
3.43222e-05
3.43373e-05
3.43353e-05
3.43333e-05
3.43312e-05
3.4329e-05
3.43268e-05
3.43245e-05
3.43222e-05
3.43391e-05
3.43372e-05
3.43353e-05
3.43332e-05
3.43311e-05
3.4329e-05
3.43268e-05
3.43245e-05
3.43222e-05
3.43409e-05
3.43391e-05
3.43372e-05
3.43352e-05
3.43332e-05
3.43311e-05
3.43289e-05
3.43267e-05
3.43245e-05
3.43222e-05
3.43426e-05
3.43409e-05
3.43391e-05
3.43372e-05
3.43352e-05
3.43332e-05
3.43311e-05
3.43289e-05
3.43267e-05
3.43245e-05
3.43222e-05
3.43442e-05
3.43426e-05
3.43408e-05
3.4339e-05
3.43371e-05
3.43352e-05
3.43331e-05
3.4331e-05
3.43289e-05
3.43267e-05
3.43245e-05
3.43222e-05
3.43458e-05
3.43442e-05
3.43426e-05
3.43408e-05
3.4339e-05
3.43371e-05
3.43351e-05
3.43331e-05
3.4331e-05
3.43288e-05
3.43266e-05
3.43244e-05
3.43222e-05
3.43473e-05
3.43458e-05
3.43442e-05
3.43425e-05
3.43408e-05
3.4339e-05
3.43371e-05
3.43351e-05
3.43331e-05
3.43309e-05
3.43288e-05
3.43266e-05
3.43244e-05
3.43222e-05
3.43487e-05
3.43473e-05
3.43458e-05
3.43442e-05
3.43425e-05
3.43408e-05
3.43389e-05
3.4337e-05
3.43351e-05
3.4333e-05
3.43309e-05
3.43288e-05
3.43266e-05
3.43244e-05
3.43222e-05
3.43501e-05
3.43487e-05
3.43473e-05
3.43458e-05
3.43442e-05
3.43425e-05
3.43407e-05
3.43389e-05
3.4337e-05
3.4335e-05
3.4333e-05
3.43309e-05
3.43287e-05
3.43265e-05
3.43244e-05
3.43222e-05
3.43513e-05
3.43501e-05
3.43487e-05
3.43473e-05
3.43457e-05
3.43441e-05
3.43425e-05
3.43407e-05
3.43389e-05
3.4337e-05
3.4335e-05
3.43329e-05
3.43308e-05
3.43287e-05
3.43265e-05
3.43243e-05
3.43221e-05
3.43526e-05
3.43513e-05
3.43501e-05
3.43487e-05
3.43472e-05
3.43457e-05
3.43441e-05
3.43425e-05
3.43407e-05
3.43389e-05
3.43369e-05
3.43349e-05
3.43329e-05
3.43308e-05
3.43286e-05
3.43265e-05
3.43243e-05
3.43221e-05
3.43537e-05
3.43526e-05
3.43514e-05
3.43501e-05
3.43487e-05
3.43472e-05
3.43457e-05
3.43441e-05
3.43424e-05
3.43407e-05
3.43388e-05
3.43369e-05
3.43349e-05
3.43328e-05
3.43307e-05
3.43286e-05
3.43264e-05
3.43243e-05
3.43221e-05
3.43549e-05
3.43538e-05
3.43526e-05
3.43514e-05
3.43501e-05
3.43487e-05
3.43472e-05
3.43457e-05
3.43441e-05
3.43424e-05
3.43406e-05
3.43388e-05
3.43368e-05
3.43348e-05
3.43328e-05
3.43307e-05
3.43285e-05
3.43264e-05
3.43242e-05
3.43221e-05
3.43559e-05
3.43549e-05
3.43538e-05
3.43526e-05
3.43514e-05
3.43501e-05
3.43487e-05
3.43472e-05
3.43457e-05
3.43441e-05
3.43424e-05
3.43406e-05
3.43387e-05
3.43368e-05
3.43348e-05
3.43327e-05
3.43306e-05
3.43285e-05
3.43263e-05
3.43242e-05
3.43221e-05
3.43569e-05
3.43559e-05
3.43549e-05
3.43538e-05
3.43526e-05
3.43514e-05
3.43501e-05
3.43487e-05
3.43472e-05
3.43457e-05
3.43441e-05
3.43424e-05
3.43406e-05
3.43387e-05
3.43368e-05
3.43347e-05
3.43327e-05
3.43305e-05
3.43284e-05
3.43263e-05
3.43242e-05
3.43221e-05
3.43579e-05
3.43569e-05
3.43559e-05
3.43549e-05
3.43538e-05
3.43526e-05
3.43514e-05
3.43501e-05
3.43487e-05
3.43472e-05
3.43457e-05
3.4344e-05
3.43423e-05
3.43405e-05
3.43387e-05
3.43367e-05
3.43347e-05
3.43326e-05
3.43305e-05
3.43283e-05
3.43262e-05
3.43241e-05
3.43221e-05
3.43588e-05
3.43579e-05
3.4357e-05
3.4356e-05
3.43549e-05
3.43538e-05
3.43526e-05
3.43514e-05
3.435e-05
3.43487e-05
3.43472e-05
3.43456e-05
3.4344e-05
3.43423e-05
3.43405e-05
3.43386e-05
3.43367e-05
3.43346e-05
3.43325e-05
3.43304e-05
3.43283e-05
3.43262e-05
3.43241e-05
3.43221e-05
3.43597e-05
3.43588e-05
3.43579e-05
3.4357e-05
3.4356e-05
3.43549e-05
3.43538e-05
3.43526e-05
3.43514e-05
3.435e-05
3.43487e-05
3.43472e-05
3.43456e-05
3.4344e-05
3.43423e-05
3.43405e-05
3.43386e-05
3.43366e-05
3.43346e-05
3.43325e-05
3.43304e-05
3.43282e-05
3.43261e-05
3.4324e-05
3.4322e-05
3.43605e-05
3.43597e-05
3.43588e-05
3.43579e-05
3.4357e-05
3.4356e-05
3.43549e-05
3.43538e-05
3.43526e-05
3.43514e-05
3.435e-05
3.43486e-05
3.43472e-05
3.43456e-05
3.4344e-05
3.43422e-05
3.43404e-05
3.43385e-05
3.43366e-05
3.43345e-05
3.43324e-05
3.43303e-05
3.43281e-05
3.4326e-05
3.4324e-05
3.4322e-05
3.43613e-05
3.43605e-05
3.43597e-05
3.43589e-05
3.4358e-05
3.4357e-05
3.4356e-05
3.43549e-05
3.43538e-05
3.43526e-05
3.43514e-05
3.435e-05
3.43486e-05
3.43472e-05
3.43456e-05
3.43439e-05
3.43422e-05
3.43404e-05
3.43385e-05
3.43365e-05
3.43345e-05
3.43323e-05
3.43302e-05
3.43281e-05
3.4326e-05
3.4324e-05
3.4322e-05
3.4362e-05
3.43613e-05
3.43605e-05
3.43597e-05
3.43589e-05
3.4358e-05
3.4357e-05
3.4356e-05
3.4355e-05
3.43538e-05
3.43526e-05
3.43514e-05
3.435e-05
3.43486e-05
3.43471e-05
3.43456e-05
3.43439e-05
3.43422e-05
3.43403e-05
3.43384e-05
3.43364e-05
3.43344e-05
3.43323e-05
3.43301e-05
3.4328e-05
3.43259e-05
3.43239e-05
3.4322e-05
3.43627e-05
3.4362e-05
3.43613e-05
3.43606e-05
3.43598e-05
3.43589e-05
3.4358e-05
3.43571e-05
3.4356e-05
3.4355e-05
3.43538e-05
3.43526e-05
3.43514e-05
3.435e-05
3.43486e-05
3.43471e-05
3.43456e-05
3.43439e-05
3.43421e-05
3.43403e-05
3.43384e-05
3.43364e-05
3.43343e-05
3.43322e-05
3.43301e-05
3.43279e-05
3.43258e-05
3.43238e-05
3.4322e-05
3.43634e-05
3.43627e-05
3.43621e-05
3.43613e-05
3.43606e-05
3.43598e-05
3.43589e-05
3.4358e-05
3.43571e-05
3.43561e-05
3.4355e-05
3.43539e-05
3.43527e-05
3.43514e-05
3.435e-05
3.43486e-05
3.43471e-05
3.43455e-05
3.43439e-05
3.43421e-05
3.43403e-05
3.43383e-05
3.43363e-05
3.43343e-05
3.43321e-05
3.433e-05
3.43278e-05
3.43257e-05
3.43238e-05
3.43219e-05
3.4364e-05
3.43634e-05
3.43628e-05
3.43621e-05
3.43614e-05
3.43606e-05
3.43598e-05
3.43589e-05
3.4358e-05
3.43571e-05
3.43561e-05
3.4355e-05
3.43539e-05
3.43527e-05
3.43514e-05
3.435e-05
3.43486e-05
3.43471e-05
3.43455e-05
3.43438e-05
3.43421e-05
3.43402e-05
3.43383e-05
3.43363e-05
3.43342e-05
3.4332e-05
3.43299e-05
3.43277e-05
3.43257e-05
3.43237e-05
3.43219e-05
0.000280163
3.43646e-05
3.4364e-05
3.43634e-05
3.43628e-05
3.43621e-05
3.43614e-05
3.43606e-05
3.43598e-05
3.4359e-05
3.43581e-05
3.43571e-05
3.43561e-05
3.4355e-05
3.43539e-05
3.43527e-05
3.43514e-05
3.435e-05
3.43486e-05
3.43471e-05
3.43455e-05
3.43438e-05
3.4342e-05
3.43402e-05
3.43382e-05
3.43362e-05
3.43341e-05
3.4332e-05
3.43298e-05
3.43276e-05
3.43256e-05
3.43237e-05
3.43219e-05
0.000294168
0.000283871
3.43652e-05
3.43646e-05
3.43641e-05
3.43635e-05
3.43628e-05
3.43621e-05
3.43614e-05
3.43607e-05
3.43599e-05
3.4359e-05
3.43581e-05
3.43571e-05
3.43561e-05
3.4355e-05
3.43539e-05
3.43527e-05
3.43514e-05
3.435e-05
3.43486e-05
3.43471e-05
3.43455e-05
3.43438e-05
3.4342e-05
3.43401e-05
3.43382e-05
3.43361e-05
3.4334e-05
3.43319e-05
3.43297e-05
3.43275e-05
3.43255e-05
3.43236e-05
3.43219e-05
0.000539841
0.000296028
0.000287551
3.43657e-05
3.43652e-05
3.43647e-05
3.43641e-05
3.43635e-05
3.43628e-05
3.43622e-05
3.43614e-05
3.43607e-05
3.43599e-05
3.4359e-05
3.43581e-05
3.43571e-05
3.43561e-05
3.4355e-05
3.43539e-05
3.43527e-05
3.43514e-05
3.435e-05
3.43486e-05
3.43471e-05
3.43455e-05
3.43438e-05
3.4342e-05
3.43401e-05
3.43381e-05
3.43361e-05
3.43339e-05
3.43318e-05
3.43296e-05
3.43274e-05
3.43254e-05
3.43235e-05
3.43218e-05
0.000786864
0.000542976
0.000297927
0.000291302
3.43662e-05
3.43658e-05
3.43652e-05
3.43647e-05
3.43641e-05
3.43635e-05
3.43629e-05
3.43622e-05
3.43615e-05
3.43607e-05
3.43599e-05
3.4359e-05
3.43581e-05
3.43572e-05
3.43561e-05
3.43551e-05
3.43539e-05
3.43527e-05
3.43514e-05
3.435e-05
3.43486e-05
3.43471e-05
3.43454e-05
3.43437e-05
3.43419e-05
3.434e-05
3.4338e-05
3.4336e-05
3.43339e-05
3.43317e-05
3.43295e-05
3.43273e-05
3.43253e-05
3.43234e-05
3.43218e-05
0.00103697
0.000790536
0.000546171
0.000299797
0.000295073
3.43667e-05
3.43663e-05
3.43658e-05
3.43653e-05
3.43647e-05
3.43642e-05
3.43635e-05
3.43629e-05
3.43622e-05
3.43615e-05
3.43607e-05
3.43599e-05
3.43591e-05
3.43582e-05
3.43572e-05
3.43562e-05
3.43551e-05
3.43539e-05
3.43527e-05
3.43514e-05
3.435e-05
3.43486e-05
3.4347e-05
3.43454e-05
3.43437e-05
3.43419e-05
3.434e-05
3.4338e-05
3.43359e-05
3.43338e-05
3.43316e-05
3.43294e-05
3.43272e-05
3.43252e-05
3.43233e-05
3.43218e-05
0.00128094
0.00104033
0.000794219
0.000549291
0.000301779
0.000298844
3.43672e-05
3.43668e-05
3.43663e-05
3.43658e-05
3.43653e-05
3.43648e-05
3.43642e-05
3.43636e-05
3.43629e-05
3.43623e-05
3.43615e-05
3.43608e-05
3.436e-05
3.43591e-05
3.43582e-05
3.43572e-05
3.43562e-05
3.43551e-05
3.43539e-05
3.43527e-05
3.43514e-05
3.435e-05
3.43486e-05
3.4347e-05
3.43454e-05
3.43437e-05
3.43418e-05
3.43399e-05
3.43379e-05
3.43358e-05
3.43337e-05
3.43315e-05
3.43292e-05
3.43271e-05
3.4325e-05
3.43232e-05
3.43217e-05
0.00151339
0.00128317
0.00104366
0.000797944
0.000552639
0.000303783
0.000302689
3.43676e-05
3.43672e-05
3.43668e-05
3.43663e-05
3.43658e-05
3.43653e-05
3.43648e-05
3.43642e-05
3.43636e-05
3.4363e-05
3.43623e-05
3.43616e-05
3.43608e-05
3.436e-05
3.43591e-05
3.43582e-05
3.43572e-05
3.43562e-05
3.43551e-05
3.4354e-05
3.43527e-05
3.43514e-05
3.435e-05
3.43486e-05
3.4347e-05
3.43454e-05
3.43436e-05
3.43418e-05
3.43399e-05
3.43379e-05
3.43357e-05
3.43336e-05
3.43314e-05
3.43291e-05
3.4327e-05
3.43249e-05
3.43231e-05
3.43217e-05
0.0017316
0.0015138
0.0012853
0.00104697
0.000801755
0.00055583
0.000305818
0.00030654
3.4368e-05
3.43676e-05
3.43672e-05
3.43668e-05
3.43664e-05
3.43659e-05
3.43654e-05
3.43648e-05
3.43642e-05
3.43636e-05
3.4363e-05
3.43623e-05
3.43616e-05
3.43608e-05
3.436e-05
3.43592e-05
3.43582e-05
3.43573e-05
3.43562e-05
3.43551e-05
3.4354e-05
3.43527e-05
3.43514e-05
3.435e-05
3.43486e-05
3.4347e-05
3.43453e-05
3.43436e-05
3.43418e-05
3.43398e-05
3.43378e-05
3.43357e-05
3.43335e-05
3.43312e-05
3.4329e-05
3.43268e-05
3.43248e-05
3.4323e-05
3.43216e-05
0.00193423
0.00172964
0.00151403
0.00128733
0.00105029
0.000805424
0.000559232
0.000307919
0.000310486
3.43684e-05
3.43681e-05
3.43677e-05
3.43673e-05
3.43668e-05
3.43664e-05
3.43659e-05
3.43654e-05
3.43649e-05
3.43643e-05
3.43637e-05
3.4363e-05
3.43623e-05
3.43616e-05
3.43609e-05
3.436e-05
3.43592e-05
3.43583e-05
3.43573e-05
3.43563e-05
3.43552e-05
3.4354e-05
3.43527e-05
3.43514e-05
3.435e-05
3.43486e-05
3.4347e-05
3.43453e-05
3.43436e-05
3.43417e-05
3.43398e-05
3.43377e-05
3.43356e-05
3.43334e-05
3.43311e-05
3.43289e-05
3.43267e-05
3.43247e-05
3.43229e-05
3.43216e-05
0.00212038
0.00192939
0.00172738
0.00151405
0.00128924
0.00105347
0.000809224
0.000562609
0.00030995
0.000314451
3.43688e-05
3.43685e-05
3.43681e-05
3.43677e-05
3.43673e-05
3.43669e-05
3.43664e-05
3.43659e-05
3.43654e-05
3.43649e-05
3.43643e-05
3.43637e-05
3.43631e-05
3.43624e-05
3.43617e-05
3.43609e-05
3.43601e-05
3.43592e-05
3.43583e-05
3.43573e-05
3.43563e-05
3.43552e-05
3.4354e-05
3.43528e-05
3.43514e-05
3.435e-05
3.43486e-05
3.4347e-05
3.43453e-05
3.43435e-05
3.43417e-05
3.43397e-05
3.43376e-05
3.43355e-05
3.43333e-05
3.4331e-05
3.43287e-05
3.43265e-05
3.43245e-05
3.43228e-05
3.43215e-05
0.00228928
0.00211224
0.00192418
0.00172484
0.00151387
0.00129097
0.00105664
0.000812991
0.000566001
0.000312199
0.000318457
3.43691e-05
3.43688e-05
3.43685e-05
3.43681e-05
3.43677e-05
3.43673e-05
3.43669e-05
3.43664e-05
3.4366e-05
3.43655e-05
3.43649e-05
3.43643e-05
3.43637e-05
3.43631e-05
3.43624e-05
3.43617e-05
3.43609e-05
3.43601e-05
3.43592e-05
3.43583e-05
3.43573e-05
3.43563e-05
3.43552e-05
3.4354e-05
3.43528e-05
3.43514e-05
3.435e-05
3.43485e-05
3.4347e-05
3.43453e-05
3.43435e-05
3.43416e-05
3.43396e-05
3.43376e-05
3.43354e-05
3.43331e-05
3.43309e-05
3.43286e-05
3.43264e-05
3.43243e-05
3.43227e-05
3.43214e-05
0.00244009
0.00227738
0.00210361
0.00191858
0.00172197
0.0015134
0.00129258
0.00105971
0.000816818
0.000569638
0.000314411
0.000322577
3.43695e-05
3.43692e-05
3.43688e-05
3.43685e-05
3.43681e-05
3.43678e-05
3.43674e-05
3.43669e-05
3.43665e-05
3.4366e-05
3.43655e-05
3.4365e-05
3.43644e-05
3.43638e-05
3.43631e-05
3.43624e-05
3.43617e-05
3.4361e-05
3.43601e-05
3.43593e-05
3.43583e-05
3.43574e-05
3.43563e-05
3.43552e-05
3.4354e-05
3.43528e-05
3.43515e-05
3.435e-05
3.43485e-05
3.43469e-05
3.43453e-05
3.43435e-05
3.43416e-05
3.43396e-05
3.43375e-05
3.43353e-05
3.4333e-05
3.43307e-05
3.43284e-05
3.43262e-05
3.43242e-05
3.43225e-05
3.43214e-05
0.00257184
0.002424
0.00226488
0.00209448
0.00191253
0.00171873
0.00151271
0.00129398
0.00106276
0.000820728
0.000573097
0.000316728
0.000326773
3.43698e-05
3.43695e-05
3.43692e-05
3.43689e-05
3.43685e-05
3.43682e-05
3.43678e-05
3.43674e-05
3.4367e-05
3.43665e-05
3.4366e-05
3.43655e-05
3.4365e-05
3.43644e-05
3.43638e-05
3.43632e-05
3.43625e-05
3.43618e-05
3.4361e-05
3.43602e-05
3.43593e-05
3.43584e-05
3.43574e-05
3.43564e-05
3.43552e-05
3.43541e-05
3.43528e-05
3.43515e-05
3.435e-05
3.43485e-05
3.43469e-05
3.43452e-05
3.43434e-05
3.43415e-05
3.43395e-05
3.43374e-05
3.43352e-05
3.43329e-05
3.43306e-05
3.43282e-05
3.4326e-05
3.4324e-05
3.43224e-05
3.43213e-05
0.00268343
0.00255109
0.00240717
0.00225176
0.00208477
0.001906
0.00171518
0.00151169
0.00129526
0.00106575
0.000824481
0.00057675
0.000319131
0.000331005
3.43701e-05
3.43698e-05
3.43695e-05
3.43692e-05
3.43689e-05
3.43686e-05
3.43682e-05
3.43678e-05
3.43674e-05
3.4367e-05
3.43665e-05
3.43661e-05
3.43656e-05
3.4365e-05
3.43645e-05
3.43638e-05
3.43632e-05
3.43625e-05
3.43618e-05
3.4361e-05
3.43602e-05
3.43593e-05
3.43584e-05
3.43574e-05
3.43564e-05
3.43553e-05
3.43541e-05
3.43528e-05
3.43515e-05
3.435e-05
3.43485e-05
3.43469e-05
3.43452e-05
3.43434e-05
3.43415e-05
3.43394e-05
3.43373e-05
3.43351e-05
3.43328e-05
3.43304e-05
3.43281e-05
3.43258e-05
3.43238e-05
3.43222e-05
3.43212e-05
0.00277359
0.00265752
0.00252945
0.00238956
0.00223793
0.00207446
0.00189904
0.00171115
0.00151047
0.00129635
0.00106857
0.000828376
0.000580501
0.000321621
0.000335389
3.43704e-05
3.43701e-05
3.43698e-05
3.43696e-05
3.43693e-05
3.43689e-05
3.43686e-05
3.43682e-05
3.43679e-05
3.43675e-05
3.4367e-05
3.43666e-05
3.43661e-05
3.43656e-05
3.43651e-05
3.43645e-05
3.43639e-05
3.43632e-05
3.43626e-05
3.43618e-05
3.43611e-05
3.43602e-05
3.43594e-05
3.43584e-05
3.43575e-05
3.43564e-05
3.43553e-05
3.43541e-05
3.43528e-05
3.43515e-05
3.43501e-05
3.43485e-05
3.43469e-05
3.43452e-05
3.43434e-05
3.43414e-05
3.43394e-05
3.43372e-05
3.4335e-05
3.43326e-05
3.43303e-05
3.43279e-05
3.43256e-05
3.43236e-05
3.4322e-05
3.43211e-05
0.00284091
0.00274199
0.00263055
0.00250686
0.00237111
0.00222335
0.00206357
0.00189147
0.00170678
0.0015089
0.00129719
0.00107137
0.000832273
0.000584285
0.000324167
0.00033991
3.43706e-05
3.43704e-05
3.43701e-05
3.43699e-05
3.43696e-05
3.43693e-05
3.4369e-05
3.43686e-05
3.43683e-05
3.43679e-05
3.43675e-05
3.43671e-05
3.43666e-05
3.43661e-05
3.43656e-05
3.43651e-05
3.43645e-05
3.43639e-05
3.43633e-05
3.43626e-05
3.43619e-05
3.43611e-05
3.43603e-05
3.43594e-05
3.43585e-05
3.43575e-05
3.43564e-05
3.43553e-05
3.43541e-05
3.43529e-05
3.43515e-05
3.43501e-05
3.43485e-05
3.43469e-05
3.43452e-05
3.43433e-05
3.43414e-05
3.43393e-05
3.43371e-05
3.43349e-05
3.43325e-05
3.43301e-05
3.43277e-05
3.43254e-05
3.43234e-05
3.43218e-05
3.43211e-05
0.00288382
0.00280308
0.00270917
0.00260246
0.00248325
0.00235173
0.00220801
0.00205193
0.00188339
0.00170194
0.00150696
0.00129786
0.00107405
0.000836106
0.000588063
0.000326818
0.000344448
3.43709e-05
3.43707e-05
3.43704e-05
3.43702e-05
3.43699e-05
3.43696e-05
3.43693e-05
3.4369e-05
3.43687e-05
3.43683e-05
3.43679e-05
3.43675e-05
3.43671e-05
3.43667e-05
3.43662e-05
3.43657e-05
3.43651e-05
3.43646e-05
3.4364e-05
3.43633e-05
3.43626e-05
3.43619e-05
3.43611e-05
3.43603e-05
3.43594e-05
3.43585e-05
3.43575e-05
3.43565e-05
3.43553e-05
3.43541e-05
3.43529e-05
3.43515e-05
3.43501e-05
3.43485e-05
3.43469e-05
3.43451e-05
3.43433e-05
3.43413e-05
3.43392e-05
3.4337e-05
3.43347e-05
3.43324e-05
3.43299e-05
3.43275e-05
3.43252e-05
3.43232e-05
3.43217e-05
3.43211e-05
0.0029006
0.00283918
0.00276383
0.00267502
0.00257316
0.00245855
0.00233141
0.00219176
0.00203962
0.00187469
0.00169658
0.0015047
0.00129826
0.00107657
0.000839969
0.000592215
0.000329595
0.000349124
3.43711e-05
3.43709e-05
3.43707e-05
3.43704e-05
3.43702e-05
3.43699e-05
3.43696e-05
3.43693e-05
3.4369e-05
3.43687e-05
3.43683e-05
3.4368e-05
3.43676e-05
3.43671e-05
3.43667e-05
3.43662e-05
3.43657e-05
3.43652e-05
3.43646e-05
3.4364e-05
3.43634e-05
3.43627e-05
3.43619e-05
3.43612e-05
3.43604e-05
3.43595e-05
3.43585e-05
3.43576e-05
3.43565e-05
3.43554e-05
3.43542e-05
3.43529e-05
3.43515e-05
3.43501e-05
3.43485e-05
3.43469e-05
3.43451e-05
3.43432e-05
3.43413e-05
3.43392e-05
3.43369e-05
3.43346e-05
3.43322e-05
3.43298e-05
3.43273e-05
3.4325e-05
3.43229e-05
3.43216e-05
3.43212e-05
0.00288938
0.00284855
0.0027929
0.00272304
0.00263946
0.00254256
0.0024327
0.00231001
0.00217465
0.0020265
0.00186532
0.00169072
0.00150202
0.00129837
0.001079
0.000843977
0.00059627
0.00033248
0.00035399
3.43713e-05
3.43711e-05
3.43709e-05
3.43707e-05
3.43705e-05
3.43702e-05
3.437e-05
3.43697e-05
3.43694e-05
3.43691e-05
3.43687e-05
3.43684e-05
3.4368e-05
3.43676e-05
3.43672e-05
3.43667e-05
3.43663e-05
3.43657e-05
3.43652e-05
3.43646e-05
3.4364e-05
3.43634e-05
3.43627e-05
3.4362e-05
3.43612e-05
3.43604e-05
3.43595e-05
3.43586e-05
3.43576e-05
3.43565e-05
3.43554e-05
3.43542e-05
3.43529e-05
3.43515e-05
3.43501e-05
3.43485e-05
3.43469e-05
3.43451e-05
3.43432e-05
3.43412e-05
3.43391e-05
3.43369e-05
3.43345e-05
3.43321e-05
3.43296e-05
3.43271e-05
3.43247e-05
3.43227e-05
3.43215e-05
3.43213e-05
0.00284816
0.00282926
0.00279461
0.00274485
0.00268061
0.00260238
0.0025106
0.00240557
0.00228753
0.00215655
0.00201252
0.00185525
0.00168427
0.00149887
0.00129822
0.00108133
0.00084781
0.000600324
0.00033552
0.000359015
3.43716e-05
3.43714e-05
3.43712e-05
3.4371e-05
3.43707e-05
3.43705e-05
3.43702e-05
3.437e-05
3.43697e-05
3.43694e-05
3.43691e-05
3.43688e-05
3.43684e-05
3.4368e-05
3.43676e-05
3.43672e-05
3.43668e-05
3.43663e-05
3.43658e-05
3.43653e-05
3.43647e-05
3.43641e-05
3.43634e-05
3.43628e-05
3.4362e-05
3.43613e-05
3.43604e-05
3.43596e-05
3.43586e-05
3.43576e-05
3.43566e-05
3.43554e-05
3.43542e-05
3.43529e-05
3.43516e-05
3.43501e-05
3.43485e-05
3.43469e-05
3.43451e-05
3.43432e-05
3.43412e-05
3.4339e-05
3.43368e-05
3.43344e-05
3.43319e-05
3.43294e-05
3.43268e-05
3.43245e-05
3.43225e-05
3.43216e-05
3.43214e-05
0.0027748
0.00277932
0.00276701
0.00273865
0.00269492
0.00263642
0.00256367
0.00247713
0.00237711
0.00226383
0.00213735
0.00199763
0.00184441
0.00167718
0.0014953
0.00129776
0.00108337
0.000851596
0.000604631
0.0003387
0.000364218
3.43718e-05
3.43716e-05
3.43714e-05
3.43712e-05
3.4371e-05
3.43708e-05
3.43705e-05
3.43703e-05
3.437e-05
3.43697e-05
3.43694e-05
3.43691e-05
3.43688e-05
3.43684e-05
3.43681e-05
3.43677e-05
3.43673e-05
3.43668e-05
3.43663e-05
3.43658e-05
3.43653e-05
3.43647e-05
3.43641e-05
3.43635e-05
3.43628e-05
3.43621e-05
3.43613e-05
3.43605e-05
3.43596e-05
3.43587e-05
3.43577e-05
3.43566e-05
3.43555e-05
3.43543e-05
3.4353e-05
3.43516e-05
3.43501e-05
3.43485e-05
3.43468e-05
3.4345e-05
3.43431e-05
3.43411e-05
3.43389e-05
3.43367e-05
3.43342e-05
3.43317e-05
3.43292e-05
3.43266e-05
3.43242e-05
3.43222e-05
3.43217e-05
3.43215e-05
0.00266713
0.00269657
0.00270807
0.00270247
0.00268054
0.00264295
0.00259034
0.00252323
0.00244207
0.00234719
0.00223881
0.00211702
0.00198175
0.0018327
0.00166943
0.00149118
0.00129684
0.0010852
0.000855451
0.000609022
0.000342051
0.000369611
3.4372e-05
3.43718e-05
3.43716e-05
3.43714e-05
3.43712e-05
3.4371e-05
3.43708e-05
3.43706e-05
3.43703e-05
3.437e-05
3.43698e-05
3.43695e-05
3.43692e-05
3.43688e-05
3.43685e-05
3.43681e-05
3.43677e-05
3.43673e-05
3.43668e-05
3.43664e-05
3.43659e-05
3.43653e-05
3.43648e-05
3.43642e-05
3.43635e-05
3.43628e-05
3.43621e-05
3.43613e-05
3.43605e-05
3.43596e-05
3.43587e-05
3.43577e-05
3.43566e-05
3.43555e-05
3.43543e-05
3.4353e-05
3.43516e-05
3.43501e-05
3.43485e-05
3.43468e-05
3.4345e-05
3.43431e-05
3.4341e-05
3.43389e-05
3.43366e-05
3.43341e-05
3.43316e-05
3.4329e-05
3.43264e-05
3.43239e-05
3.43221e-05
3.43218e-05
3.43217e-05
0.00252291
0.00257882
0.00261564
0.00263426
0.0026355
0.00262012
0.00258881
0.00254223
0.0024809
0.00240527
0.00231569
0.00221238
0.00209544
0.00196476
0.00182009
0.00166093
0.00148642
0.00129552
0.00108687
0.00085923
0.000613526
0.000345586
0.000375167
3.43721e-05
3.4372e-05
3.43718e-05
3.43716e-05
3.43714e-05
3.43712e-05
3.4371e-05
3.43708e-05
3.43706e-05
3.43703e-05
3.43701e-05
3.43698e-05
3.43695e-05
3.43692e-05
3.43689e-05
3.43685e-05
3.43681e-05
3.43677e-05
3.43673e-05
3.43669e-05
3.43664e-05
3.43659e-05
3.43654e-05
3.43648e-05
3.43642e-05
3.43636e-05
3.43629e-05
3.43622e-05
3.43614e-05
3.43606e-05
3.43597e-05
3.43588e-05
3.43577e-05
3.43567e-05
3.43555e-05
3.43543e-05
3.4353e-05
3.43516e-05
3.43501e-05
3.43485e-05
3.43468e-05
3.4345e-05
3.43431e-05
3.4341e-05
3.43388e-05
3.43364e-05
3.4334e-05
3.43314e-05
3.43288e-05
3.43261e-05
3.43236e-05
3.4322e-05
3.4322e-05
3.43219e-05
0.00233999
0.00242387
0.00248752
0.00253185
0.0025577
0.0025659
0.00255721
0.00253234
0.00249192
0.00243653
0.00236659
0.00228248
0.00218442
0.00207247
0.00194659
0.00180646
0.00165154
0.00148103
0.00129381
0.00108826
0.000862972
0.00061816
0.000349352
0.000381037
3.43723e-05
3.43722e-05
3.4372e-05
3.43718e-05
3.43717e-05
3.43715e-05
3.43713e-05
3.43711e-05
3.43708e-05
3.43706e-05
3.43704e-05
3.43701e-05
3.43698e-05
3.43695e-05
3.43692e-05
3.43689e-05
3.43686e-05
3.43682e-05
3.43678e-05
3.43674e-05
3.43669e-05
3.43665e-05
3.4366e-05
3.43654e-05
3.43649e-05
3.43643e-05
3.43636e-05
3.43629e-05
3.43622e-05
3.43614e-05
3.43606e-05
3.43597e-05
3.43588e-05
3.43578e-05
3.43567e-05
3.43556e-05
3.43544e-05
3.4353e-05
3.43516e-05
3.43501e-05
3.43485e-05
3.43468e-05
3.4345e-05
3.4343e-05
3.43409e-05
3.43387e-05
3.43363e-05
3.43338e-05
3.43312e-05
3.43285e-05
3.43258e-05
3.43233e-05
3.4322e-05
3.43223e-05
3.43221e-05
0.00211638
0.00222963
0.00232156
0.00239308
0.002445
0.00247821
0.00249349
0.00249162
0.00247333
0.00243925
0.00238995
0.00232589
0.00224741
0.00215477
0.00204803
0.0019271
0.00179168
0.00164124
0.00147498
0.00129155
0.00108936
0.000866595
0.000622874
0.000353309
0.00038722
3.43725e-05
3.43723e-05
3.43722e-05
3.4372e-05
3.43719e-05
3.43717e-05
3.43715e-05
3.43713e-05
3.43711e-05
3.43709e-05
3.43706e-05
3.43704e-05
3.43701e-05
3.43699e-05
3.43696e-05
3.43693e-05
3.43689e-05
3.43686e-05
3.43682e-05
3.43678e-05
3.43674e-05
3.4367e-05
3.43665e-05
3.4366e-05
3.43655e-05
3.43649e-05
3.43643e-05
3.43637e-05
3.4363e-05
3.43623e-05
3.43615e-05
3.43607e-05
3.43598e-05
3.43588e-05
3.43578e-05
3.43568e-05
3.43556e-05
3.43544e-05
3.43531e-05
3.43517e-05
3.43502e-05
3.43485e-05
3.43468e-05
3.4345e-05
3.4343e-05
3.43409e-05
3.43386e-05
3.43362e-05
3.43337e-05
3.4331e-05
3.43283e-05
3.43255e-05
3.43231e-05
3.43221e-05
3.43226e-05
3.43223e-05
0.00185043
0.00199421
0.00211575
0.00221584
0.00229526
0.00235489
0.00239555
0.00241805
0.00242316
0.00241161
0.00238402
0.00234099
0.00228297
0.00221032
0.00212328
0.00202193
0.00190616
0.00177569
0.00162999
0.00146807
0.00128872
0.00109008
0.000870082
0.000627595
0.00035756
0.000393652
3.43726e-05
3.43725e-05
3.43724e-05
3.43722e-05
3.4372e-05
3.43719e-05
3.43717e-05
3.43715e-05
3.43713e-05
3.43711e-05
3.43709e-05
3.43707e-05
3.43704e-05
3.43702e-05
3.43699e-05
3.43696e-05
3.43693e-05
3.4369e-05
3.43686e-05
3.43683e-05
3.43679e-05
3.43675e-05
3.4367e-05
3.43666e-05
3.43661e-05
3.43655e-05
3.4365e-05
3.43644e-05
3.43637e-05
3.4363e-05
3.43623e-05
3.43615e-05
3.43607e-05
3.43598e-05
3.43589e-05
3.43579e-05
3.43568e-05
3.43557e-05
3.43544e-05
3.43531e-05
3.43517e-05
3.43502e-05
3.43486e-05
3.43468e-05
3.4345e-05
3.4343e-05
3.43408e-05
3.43385e-05
3.43361e-05
3.43335e-05
3.43308e-05
3.43281e-05
3.43252e-05
3.43228e-05
3.43223e-05
3.4323e-05
3.43226e-05
0.001541
0.00171615
0.00186832
0.00199819
0.00210641
0.00219384
0.00226126
0.00230951
0.00233936
0.0023516
0.00234693
0.00232602
0.00228943
0.00223764
0.00217102
0.00208978
0.00199402
0.00188364
0.00175836
0.00161754
0.00146029
0.00128519
0.00109037
0.000873441
0.000632712
0.0003621
0.000400364
3.43728e-05
3.43726e-05
3.43725e-05
3.43724e-05
3.43722e-05
3.43721e-05
3.43719e-05
3.43717e-05
3.43715e-05
3.43714e-05
3.43712e-05
3.43709e-05
3.43707e-05
3.43705e-05
3.43702e-05
3.43699e-05
3.43696e-05
3.43693e-05
3.4369e-05
3.43687e-05
3.43683e-05
3.43679e-05
3.43675e-05
3.43671e-05
3.43666e-05
3.43661e-05
3.43656e-05
3.4365e-05
3.43644e-05
3.43638e-05
3.43631e-05
3.43624e-05
3.43616e-05
3.43608e-05
3.43599e-05
3.43589e-05
3.43579e-05
3.43569e-05
3.43557e-05
3.43545e-05
3.43531e-05
3.43517e-05
3.43502e-05
3.43486e-05
3.43468e-05
3.43449e-05
3.43429e-05
3.43408e-05
3.43385e-05
3.4336e-05
3.43334e-05
3.43307e-05
3.43278e-05
3.43249e-05
3.43227e-05
3.43225e-05
3.43234e-05
3.43228e-05
0.00118741
0.00139454
0.00157804
0.00173857
0.00187667
0.0019931
0.00208859
0.00216389
0.00221981
0.00225716
0.00227667
0.00227907
0.002265
0.00223505
0.00218968
0.00212927
0.00205406
0.00196411
0.00185937
0.00173946
0.00160382
0.00145145
0.00128092
0.00109023
0.000876767
0.000637863
0.000367008
0.000407494
3.43729e-05
3.43728e-05
3.43727e-05
3.43725e-05
3.43724e-05
3.43722e-05
3.43721e-05
3.43719e-05
3.43718e-05
3.43716e-05
3.43714e-05
3.43712e-05
3.4371e-05
3.43707e-05
3.43705e-05
3.43702e-05
3.437e-05
3.43697e-05
3.43694e-05
3.43691e-05
3.43687e-05
3.43684e-05
3.4368e-05
3.43676e-05
3.43671e-05
3.43666e-05
3.43662e-05
3.43656e-05
3.43651e-05
3.43645e-05
3.43638e-05
3.43632e-05
3.43624e-05
3.43617e-05
3.43608e-05
3.43599e-05
3.4359e-05
3.4358e-05
3.43569e-05
3.43558e-05
3.43545e-05
3.43532e-05
3.43518e-05
3.43502e-05
3.43486e-05
3.43468e-05
3.43449e-05
3.43429e-05
3.43407e-05
3.43384e-05
3.43359e-05
3.43332e-05
3.43305e-05
3.43275e-05
3.43246e-05
3.43226e-05
3.43228e-05
3.43238e-05
3.43231e-05
0.000786739
0.0010286
0.00124414
0.00143592
0.00160463
0.00175103
0.00187565
0.00197922
0.00206249
0.00212622
0.00217117
0.00219812
0.00220774
0.00220071
0.00217758
0.00213884
0.00208486
0.00201589
0.00193201
0.00183312
0.00171888
0.00158866
0.00144147
0.00127583
0.00108962
0.000879796
0.000643102
0.000372345
0.000415186
3.4373e-05
3.43729e-05
3.43728e-05
3.43727e-05
3.43726e-05
3.43724e-05
3.43723e-05
3.43721e-05
3.4372e-05
3.43718e-05
3.43716e-05
3.43714e-05
3.43712e-05
3.4371e-05
3.43708e-05
3.43705e-05
3.43703e-05
3.437e-05
3.43697e-05
3.43694e-05
3.43691e-05
3.43688e-05
3.43684e-05
3.4368e-05
3.43676e-05
3.43672e-05
3.43667e-05
3.43662e-05
3.43657e-05
3.43651e-05
3.43645e-05
3.43639e-05
3.43632e-05
3.43625e-05
3.43617e-05
3.43609e-05
3.436e-05
3.43591e-05
3.4358e-05
3.4357e-05
3.43558e-05
3.43546e-05
3.43532e-05
3.43518e-05
3.43502e-05
3.43486e-05
3.43468e-05
3.43449e-05
3.43429e-05
3.43407e-05
3.43383e-05
3.43358e-05
3.43331e-05
3.43302e-05
3.43272e-05
3.43243e-05
3.43226e-05
3.43232e-05
3.43243e-05
3.43235e-05
0.00035548
0.000613877
0.000864995
0.00108957
0.00128949
0.00146643
0.00162098
0.00175378
0.00186548
0.00195679
0.0020284
0.00208111
0.00211563
0.00213265
0.00213283
0.00211672
0.00208482
0.0020375
0.00197501
0.00189743
0.00180467
0.00169638
0.00157191
0.00143023
0.00126982
0.00108833
0.000882544
0.00064835
0.000378132
0.000423357
3.43732e-05
3.43731e-05
3.43729e-05
3.43728e-05
3.43727e-05
3.43726e-05
3.43724e-05
3.43723e-05
3.43721e-05
3.4372e-05
3.43718e-05
3.43716e-05
3.43714e-05
3.43712e-05
3.4371e-05
3.43708e-05
3.43706e-05
3.43703e-05
3.43701e-05
3.43698e-05
3.43695e-05
3.43691e-05
3.43688e-05
3.43684e-05
3.43681e-05
3.43676e-05
3.43672e-05
3.43668e-05
3.43663e-05
3.43657e-05
3.43652e-05
3.43646e-05
3.43639e-05
3.43633e-05
3.43625e-05
3.43618e-05
3.43609e-05
3.43601e-05
3.43591e-05
3.43581e-05
3.4357e-05
3.43559e-05
3.43546e-05
3.43533e-05
3.43518e-05
3.43503e-05
3.43486e-05
3.43468e-05
3.43449e-05
3.43428e-05
3.43406e-05
3.43382e-05
3.43357e-05
3.43329e-05
3.433e-05
3.4327e-05
3.4324e-05
3.43226e-05
3.43236e-05
3.43248e-05
3.43239e-05
6.94438e-05
0.000214326
0.000442637
0.000695936
0.000930273
0.00113861
0.00132361
0.00148628
0.00162722
0.00174708
0.00184644
0.00192606
0.00198663
0.00202888
0.00205346
0.00206102
0.00205215
0.00202731
0.00198688
0.00193112
0.00186012
0.00177377
0.00167173
0.00155334
0.00141754
0.00126267
0.00108631
0.000884921
0.000653884
0.000384517
0.000431974
3.43733e-05
3.43732e-05
3.43731e-05
3.4373e-05
3.43728e-05
3.43727e-05
3.43726e-05
3.43725e-05
3.43723e-05
3.43722e-05
3.4372e-05
3.43718e-05
3.43717e-05
3.43715e-05
3.43713e-05
3.43711e-05
3.43708e-05
3.43706e-05
3.43704e-05
3.43701e-05
3.43698e-05
3.43695e-05
3.43692e-05
3.43689e-05
3.43685e-05
3.43681e-05
3.43677e-05
3.43673e-05
3.43668e-05
3.43663e-05
3.43658e-05
3.43652e-05
3.43646e-05
3.4364e-05
3.43633e-05
3.43626e-05
3.43618e-05
3.4361e-05
3.43601e-05
3.43592e-05
3.43582e-05
3.43571e-05
3.43559e-05
3.43547e-05
3.43533e-05
3.43519e-05
3.43503e-05
3.43486e-05
3.43468e-05
3.43449e-05
3.43428e-05
3.43406e-05
3.43381e-05
3.43356e-05
3.43328e-05
3.43298e-05
3.43267e-05
3.43238e-05
3.43228e-05
3.4324e-05
3.43253e-05
3.43243e-05
1.16387e-05
2.81193e-05
0.000110698
0.000286024
0.000523787
0.000765298
0.000982855
0.00117597
0.00134666
0.00149572
0.00162368
0.00173117
0.00181884
0.00188739
0.00193747
0.00196977
0.00198492
0.00198348
0.00196592
0.00193263
0.00188387
0.00181973
0.00174012
0.00164466
0.00153272
0.00140314
0.00125424
0.00108344
0.000887082
0.000659678
0.000391605
0.000441298
3.43734e-05
3.43733e-05
3.43732e-05
3.43731e-05
3.4373e-05
3.43729e-05
3.43727e-05
3.43726e-05
3.43725e-05
3.43723e-05
3.43722e-05
3.4372e-05
3.43719e-05
3.43717e-05
3.43715e-05
3.43713e-05
3.43711e-05
3.43709e-05
3.43706e-05
3.43704e-05