/*--------------------------------*- C++ -*----------------------------------*\
  =========                 |
  \\      /  F ield         | OpenFOAM: The Open Source CFD Toolbox
   \\    /   O peration     | Website:  https://openfoam.org
    \\  /    A nd           | Version:  7
     \\/     M anipulation  |
\*---------------------------------------------------------------------------*/
FoamFile
{
    version     2.0;
    format      ascii;
    class       volScalarField;
    location    "1800";
    object      p;
}
// * * * * * * * * * * * * * * * * * * * * * * * * * * * * * * * * * * * * * //

dimensions      [0 2 -2 0 0 0 0];

internalField   nonuniform List<scalar> 
23064
(
-7.26023
-7.29231
-7.56701
-7.29457
-7.59346
-7.87297
-7.52137
-7.58999
-7.89294
-8.17818
-7.80958
-7.82751
-7.88335
-8.19055
-8.48258
-8.12298
-8.12603
-8.13207
-8.17455
-8.48604
-8.78596
-8.49193
-8.44886
-8.44104
-8.43496
-8.46327
-8.77923
-9.08809
-8.91811
-8.8292
-8.77323
-8.7545
-8.73583
-8.74939
-9.06992
-9.38881
-9.39442
-9.26834
-9.16507
-9.09611
-9.0661
-9.03465
-9.0328
-9.35799
-9.68832
-9.92
-9.75861
-9.61729
-9.49956
-9.41728
-9.37585
-9.33133
-9.31331
-9.6432
-9.98627
-10.4954
-10.2994
-10.1216
-9.96484
-9.83242
-9.73659
-9.68348
-9.62558
-9.59077
-9.92541
-10.2826
-11.1202
-10.8912
-10.6776
-10.4832
-10.3109
-10.1635
-10.0538
-9.98882
-9.91745
-9.86498
-10.2042
-10.5771
-11.7941
-11.5336
-11.2859
-11.0545
-10.8434
-10.6553
-10.4928
-10.369
-10.2918
-10.2066
-10.1357
-10.4796
-10.8696
-12.5169
-12.2262
-11.946
-11.6794
-11.4301
-11.2021
-10.998
-10.82
-10.6818
-10.5923
-10.4929
-10.4028
-10.7513
-11.1603
-13.289
-12.969
-12.6574
-12.3572
-12.0716
-11.8042
-11.5591
-11.3387
-11.1452
-10.9922
-10.8901
-10.7762
-10.6661
-11.019
-11.4485
-14.1108
-13.7623
-13.4203
-13.0875
-12.7671
-12.4623
-12.1767
-11.9143
-11.6774
-11.4679
-11.2999
-11.1847
-11.0563
-10.9254
-11.2824
-11.7344
-14.9826
-14.6063
-14.2348
-13.8704
-13.5164
-13.1756
-12.8514
-12.5474
-12.2675
-12.0139
-11.7882
-11.6047
-11.4764
-11.333
-11.1804
-11.5413
-12.0178
-15.9051
-15.5017
-15.1013
-14.7062
-14.3194
-13.9439
-13.5826
-13.2389
-12.9162
-12.6185
-12.348
-12.1057
-11.9065
-11.7648
-11.6062
-11.4311
-11.7957
-12.2984
-16.8793
-16.4491
-16.0203
-15.5952
-15.1765
-14.7671
-14.3698
-13.9879
-13.6245
-13.2829
-12.9673
-12.6794
-12.4204
-12.205
-12.0496
-11.8756
-11.6771
-12.045
-12.5763
-17.9061
-17.4495
-16.9926
-16.538
-16.0881
-15.6455
-15.2132
-14.7941
-14.3914
-14.008
-13.6474
-13.3135
-13.0083
-12.732
-12.5002
-12.3307
-12.1411
-11.9182
-12.289
-12.8511
-18.9865
-18.5037
-18.0192
-17.5353
-17.0545
-16.5795
-16.1129
-15.6576
-15.2166
-14.7929
-14.3894
-14.0096
-13.6571
-13.3341
-13.0406
-12.7918
-12.608
-12.4025
-12.1544
-12.5275
-13.1224
-20.1221
-19.6131
-19.101
-18.5881
-18.0768
-17.5698
-17.0694
-16.5786
-16.1002
-15.637
-15.1922
-14.7685
-14.3691
-13.9979
-13.6569
-13.3456
-13.0797
-12.8812
-12.6597
-12.3854
-12.7602
-13.3901
-21.3142
-20.779
-20.2394
-19.6975
-19.1559
-18.617
-18.0834
-17.5576
-17.0425
-16.5408
-16.0554
-15.5892
-15.145
-14.7259
-14.3357
-13.9765
-13.6472
-13.3637
-13.1502
-12.9122
-12.6109
-12.9869
-13.6545
-22.5644
-22.003
-21.4356
-20.8648
-20.2928
-19.7223
-19.1556
-18.5952
-18.0439
-17.5044
-16.9793
-16.4715
-15.9838
-15.5189
-15.0798
-14.6704
-14.2925
-13.945
-13.6435
-13.4146
-13.1601
-12.8309
-13.2072
-13.9149
-23.8744
-23.2866
-22.6914
-22.0913
-21.489
-20.8868
-20.2871
-19.6923
-19.1051
-18.5282
-17.964
-17.4155
-16.8851
-16.3757
-15.8899
-15.4306
-15.0017
-14.605
-14.2388
-13.919
-13.6743
-13.4031
-13.0448
-13.4208
-14.1713
-25.2461
-24.6316
-24.0083
-23.3789
-22.7459
-22.1118
-21.479
-20.8499
-20.2271
-19.613
-19.0103
-18.4215
-17.8492
-17.2961
-16.7648
-16.2579
-15.7782
-15.3295
-14.9137
-14.5287
-14.1901
-13.9292
-13.6411
-13.2529
-13.6273
-14.4234
-26.6816
-26.04
-25.3883
-24.7292
-24.0652
-23.3989
-22.7328
-22.0692
-21.4107
-20.7597
-20.1186
-19.49
-18.8763
-18.2803
-17.7043
-17.1509
-16.6227
-16.1223
-15.6536
-15.2185
-14.8142
-14.4563
-14.1791
-13.8738
-13.4546
-13.8266
-14.6707
-28.1829
-27.5139
-26.8333
-26.144
-25.4487
-24.7499
-24.0501
-23.3518
-22.6574
-21.9693
-21.2899
-20.6217
-19.9671
-19.3286
-18.7085
-18.1095
-17.5339
-16.9841
-16.4628
-15.9738
-15.519
-15.0951
-14.7177
-14.4236
-14.101
-13.65
-14.0182
-14.9133
-29.7523
-29.0556
-28.3456
-27.6255
-26.8984
-26.1665
-25.4326
-24.6991
-23.9686
-23.2431
-22.5254
-21.8176
-21.1222
-20.4415
-19.7779
-19.1338
-18.5115
-17.9134
-17.342
-16.7995
-16.2899
-15.8152
-15.3715
-14.974
-14.6625
-14.3225
-13.8386
-14.2019
-15.1508
-31.3923
-30.6672
-29.9274
-29.1762
-28.4164
-27.6509
-26.8824
-26.1132
-25.3459
-24.5828
-23.8264
-23.0789
-22.3426
-21.6199
-20.913
-20.2242
-19.5558
-18.9101
-18.2895
-17.696
-17.1322
-16.6018
-16.1069
-15.6431
-15.2251
-14.8958
-14.5379
-14.0203
-14.3772
-15.3828
-33.1052
-32.3513
-31.5812
-30.798
-30.0051
-29.2053
-28.4014
-27.5958
-26.7913
-25.9901
-25.1945
-24.4069
-23.6295
-22.8646
-22.1145
-21.3813
-20.6672
-19.9744
-19.3051
-18.6617
-18.0461
-17.4608
-16.9093
-16.3938
-15.9095
-15.4707
-15.123
-14.7474
-14.195
-14.544
-15.6093
-604.384
-34.8939
-34.1106
-33.3093
-32.4936
-31.6668
-30.8321
-29.9919
-29.1494
-28.3068
-27.4667
-26.6314
-25.8033
-24.9844
-24.1771
-23.3836
-22.6059
-21.8462
-21.1067
-20.3894
-19.6964
-19.03
-18.3921
-17.7849
-17.2121
-16.6758
-16.1707
-15.7105
-15.3441
-14.9505
-14.3624
-14.7017
-15.8299
-604.386
-632.305
-36.7613
-35.9479
-35.1148
-34.2657
-33.4043
-32.5335
-31.6565
-30.776
-29.8946
-29.0149
-28.1392
-27.2698
-26.4089
-25.5587
-24.7214
-23.899
-23.0938
-22.3076
-21.5425
-20.8005
-20.0837
-19.3941
-18.7337
-18.1045
-17.5101
-16.9527
-16.4265
-15.9444
-15.5587
-15.147
-14.5222
-14.8502
-16.0448
-604.365
-632.301
-660.808
-38.7103
-37.866
-37.0003
-36.1171
-35.2201
-34.3127
-33.3977
-32.4784
-31.5573
-30.6369
-29.7199
-28.8085
-27.9048
-27.0111
-26.1295
-25.2621
-24.4109
-23.578
-22.7651
-21.9744
-21.2077
-20.4668
-19.7539
-19.0708
-18.4193
-17.803
-17.2243
-16.6766
-16.1722
-15.7668
-15.3366
-14.6743
-14.9889
-16.2528
-604.327
-632.274
-660.8
-689.844
-40.7441
-39.8681
-38.969
-38.0508
-37.1173
-36.172
-35.2182
-34.2589
-33.2971
-32.3353
-31.3759
-30.4215
-29.4743
-28.5363
-27.6097
-26.6967
-25.7991
-24.919
-24.0582
-23.2187
-22.4022
-21.6105
-20.8455
-20.1092
-19.4032
-18.7292
-18.0907
-17.4903
-16.9209
-16.3938
-15.968
-15.5193
-14.8186
-15.1176
-16.4538
-604.285
-632.233
-660.768
-689.828
-719.575
-42.8659
-41.9575
-41.0241
-40.0698
-39.0988
-38.1147
-37.1209
-36.1207
-35.1169
-34.1125
-33.1099
-32.1114
-31.1195
-30.1362
-29.1639
-28.2044
-27.2599
-26.3321
-25.4229
-24.5343
-23.668
-22.8256
-22.009
-21.2197
-20.4597
-19.7306
-19.0339
-18.3731
-17.7506
-17.1591
-16.6089
-16.1621
-15.6949
-14.9548
-15.2358
-16.6474
-604.237
-632.185
-660.718
-689.791
-719.554
-749.923
-45.0793
-44.1375
-43.1688
-42.1776
-41.168
-40.1439
-39.1089
-38.0665
-37.0199
-35.9715
-34.9243
-33.8807
-32.843
-31.8134
-30.7942
-29.7875
-28.7949
-27.8188
-26.8607
-25.9226
-25.0061
-24.1128
-23.2445
-22.4027
-21.5891
-20.8053
-20.0529
-19.3333
-18.6498
-18.0051
-17.3911
-16.8171
-16.3488
-15.8628
-15.0827
-15.3432
-16.834
-604.183
-632.131
-660.664
-689.738
-719.508
-749.895
-781.054
-47.3879
-46.4117
-45.4066
-44.3773
-43.3282
-42.2629
-41.1857
-40.0998
-39.0088
-37.9153
-36.8222
-35.7321
-34.6473
-33.5702
-32.5031
-31.4478
-30.4065
-29.3811
-28.3733
-27.3849
-26.4177
-25.4732
-24.553
-23.6587
-22.7916
-21.9535
-21.1457
-20.3699
-19.6272
-18.9207
-18.2534
-17.6167
-17.0185
-16.528
-16.0231
-15.2021
-15.4396
-17.013
-604.124
-632.071
-660.602
-689.677
-719.449
-749.843
-781.017
-812.897
-49.7955
-48.784
-47.7415
-46.6729
-45.5829
-44.4753
-43.3545
-42.2239
-41.087
-39.947
-38.8066
-37.6685
-36.5354
-35.4095
-34.2929
-33.1881
-32.0968
-31.021
-29.9625
-28.923
-27.9043
-26.908
-25.9355
-24.9883
-24.0678
-23.1755
-22.3127
-21.4809
-20.6814
-19.9154
-19.1857
-18.4954
-17.8356
-17.2128
-16.6995
-16.1755
-15.3129
-15.5244
-17.1836
-604.058
-632.003
-660.535
-689.611
-719.38
-749.777
-780.959
-812.855
-845.605
-52.3064
-51.2581
-50.1771
-49.0682
-47.936
-46.7848
-45.6189
-44.4421
-43.258
-42.07
-40.8808
-39.6934
-38.5103
-37.334
-36.1668
-35.0108
-33.8682
-32.7407
-31.6304
-30.539
-29.4679
-28.4188
-27.3933
-26.3928
-25.4185
-24.4718
-23.5541
-22.6665
-21.8105
-20.9872
-20.1976
-19.4445
-18.7309
-18.0477
-17.3997
-16.863
-16.3198
-15.415
-15.5971
-17.3451
-603.987
-631.931
-660.46
-689.534
-719.304
-749.703
-780.886
-812.791
-845.553
-879.235
-54.9247
-53.8384
-52.7177
-51.5671
-50.3913
-49.1951
-47.9827
-46.7582
-45.5253
-44.2877
-43.0481
-41.8097
-40.5752
-39.3469
-38.1274
-36.9189
-35.7235
-34.5431
-33.3796
-32.2347
-31.1102
-30.0074
-28.9281
-27.8734
-26.8447
-25.8433
-24.8705
-23.9272
-23.0148
-22.1344
-21.2871
-20.4738
-19.6969
-18.9597
-18.2528
-17.5792
-17.0181
-16.4558
-15.508
-15.6576
-17.498
-603.908
-631.851
-660.378
-689.453
-719.22
-749.619
-780.803
-812.71
-845.482
-879.176
-913.834
-57.6549
-56.5295
-55.3675
-54.1736
-52.953
-51.7102
-50.4497
-49.1761
-47.8929
-46.6038
-45.3123
-44.021
-42.7333
-41.4516
-40.1781
-38.9154
-37.6656
-36.4306
-35.2125
-34.0129
-32.8336
-31.6759
-30.5416
-29.4318
-28.348
-27.2912
-26.2626
-25.2635
-24.2947
-23.3572
-22.4524
-21.5809
-20.7436
-19.9427
-19.1816
-18.4506
-17.7509
-17.1649
-16.583
-15.5919
-15.7055
-17.6415
-603.824
-631.764
-660.288
-689.362
-719.127
-749.527
-780.709
-812.618
-845.392
-879.092
-913.762
-949.439
-60.5016
-59.3358
-58.131
-56.8925
-55.6253
-54.3345
-53.0245
-51.6998
-50.3646
-49.0225
-47.677
-46.3313
-44.9884
-43.6513
-42.3221
-41.0035
-39.6975
-38.4064
-37.1319
-35.8761
-34.6405
-33.4266
-32.236
-31.07
-29.9299
-28.8169
-27.732
-26.6762
-25.6507
-24.6562
-23.6938
-22.7642
-21.8685
-21.007
-20.1818
-19.3965
-18.641
-17.9147
-17.303
-16.7015
-15.6666
-15.7402
-17.7741
-603.731
-631.669
-660.19
-689.264
-719.027
-749.426
-780.607
-812.518
-845.293
-878.995
-913.672
-949.359
-986.258
-63.47
-62.2618
-61.0128
-59.7283
-58.4132
-57.0723
-55.7111
-54.3337
-52.9446
-51.5476
-50.1463
-48.7442
-47.3445
-45.9498
-44.5631
-43.1866
-41.8227
-40.4734
-39.141
-37.8272
-36.5336
-35.2619
-34.0137
-32.7901
-31.5925
-30.422
-29.2798
-28.1668
-27.0838
-26.0319
-25.0118
-24.0241
-23.0698
-22.1496
-21.2636
-20.4139
-19.604
-18.8238
-18.0705
-17.4322
-16.811
-15.7318
-15.7615
-17.8977
-603.63
-631.565
-660.084
-689.156
-718.916
-749.316
-780.497
-812.407
-845.183
-878.886
-913.565
-949.259
-986.167
-1024.29
-66.5649
-65.3129
-64.0181
-62.6857
-61.3209
-59.9287
-58.5142
-57.0822
-55.6374
-54.1835
-52.7246
-51.2641
-49.8054
-48.3513
-46.9049
-45.4686
-44.0446
-42.6354
-41.2429
-39.8693
-38.5159
-37.1847
-35.8771
-34.5944
-33.3379
-32.1087
-30.908
-29.7366
-28.5954
-27.4853
-26.4069
-25.361
-24.3481
-23.3689
-22.424
-21.5135
-20.6389
-19.8041
-18.9989
-18.218
-17.5523
-16.9112
-15.7876
-15.7688
-18.0103
-603.519
-631.453
-659.967
-689.038
-718.798
-749.196
-780.373
-812.284
-845.061
-878.765
-913.446
-949.144
-986.055
-1024.18
-1063.64
-69.7918
-68.4943
-67.152
-65.7699
-64.3535
-62.9081
-61.4387
-59.9501
-58.4475
-56.9347
-55.4159
-53.895
-52.3751
-50.8596
-49.3514
-47.8528
-46.367
-44.8955
-43.441
-42.0055
-40.5905
-39.1979
-37.8291
-36.4856
-35.1685
-33.8792
-32.6185
-31.3875
-30.187
-29.0177
-27.8803
-26.7755
-25.7037
-24.6655
-23.6613
-22.6916
-21.7563
-20.8566
-19.9966
-19.1659
-18.3571
-17.6631
-17.0019
-15.8337
-15.7621
-18.1107
-603.401
-631.331
-659.841
-688.912
-718.666
-749.064
-780.241
-812.153
-844.929
-878.633
-913.314
-949.014
-985.929
-1024.06
-1063.52
-1104.45
-73.1564
-71.8118
-70.4199
-68.9865
-67.5164
-66.0155
-64.4893
-62.9423
-61.3797
-59.8059
-58.2254
-56.6415
-55.0582
-53.4792
-51.9066
-50.3439
-48.7934
-47.2579
-45.7392
-44.2395
-42.7607
-41.3046
-39.8727
-38.4665
-37.0871
-35.7359
-34.4137
-33.1216
-31.8604
-30.6307
-29.4334
-28.2688
-27.1375
-26.0398
-24.9762
-23.9468
-22.9522
-21.9918
-21.0669
-20.1813
-19.3248
-18.4876
-17.7644
-17.0829
-15.8702
-15.7408
-18.2005
-603.27
-631.198
-659.704
-688.772
-718.524
-748.922
-780.096
-812.007
-844.782
-878.488
-913.169
-948.873
-985.788
-1023.92
-1063.39
-1104.32
-1146.95
-76.6643
-75.2704
-73.8276
-72.3405
-70.815
-69.257
-67.6712
-66.0638
-64.4393
-62.8021
-61.1572
-59.5085
-57.8595
-56.214
-54.5753
-52.9458
-51.3288
-49.7262
-48.1411
-46.5751
-45.0303
-43.5085
-42.0114
-40.5402
-39.0966
-37.6816
-36.2961
-34.9412
-33.6177
-32.3264
-31.0676
-29.8423
-28.6505
-27.4926
-26.3691
-25.2799
-24.2254
-23.2056
-22.22
-21.2695
-20.358
-19.4754
-18.6093
-17.856
-17.1539
-15.8969
-15.7046
-18.2786
-603.128
-631.053
-659.554
-688.621
-718.371
-748.767
-779.939
-811.85
-844.627
-878.329
-913.01
-948.714
-985.631
-1023.77
-1063.24
-1104.18
-1146.81
-1191.11
-80.3222
-78.8772
-77.3806
-75.8383
-74.255
-72.6375
-70.9907
-69.3199
-67.6312
-65.9286
-64.2169
-62.5008
-60.7837
-59.0695
-57.3615
-55.6631
-53.9766
-52.3053
-50.6509
-49.0163
-47.403
-45.8131
-44.2484
-42.7103
-41.2001
-39.7191
-38.2684
-36.8489
-35.4615
-34.1067
-32.7852
-31.4976
-30.2441
-29.0251
-27.8408
-26.6913
-25.5766
-24.4967
-23.4516
-22.4407
-21.4643
-20.5266
-19.6175
-18.7221
-17.9378
-17.2148
-15.9137
-15.6532
-18.3441
-602.974
-630.895
-659.392
-688.457
-718.203
-748.598
-779.768
-811.679
-844.454
-878.157
-912.838
-948.544
-985.461
-1023.6
-1063.07
-1104.02
-1146.65
-1190.95
-1237.24
-84.136
-82.638
-81.0859
-79.4855
-77.8427
-76.1628
-74.4526
-72.7168
-70.9611
-69.1905
-67.4099
-65.6235
-63.8355
-62.0504
-60.2708
-58.5004
-56.7422
-54.9988
-53.273
-51.5669
-49.8827
-48.2224
-46.5876
-44.9801
-43.401
-41.8519
-40.3338
-38.8475
-37.3941
-35.9741
-34.5881
-33.2368
-31.9202
-30.6387
-29.3926
-28.1818
-27.0063
-25.8659
-24.7606
-23.6902
-22.6537
-21.6512
-20.6869
-19.751
-18.8259
-18.0096
-17.2654
-15.9207
-15.5862
-18.3945
-602.807
-630.724
-659.216
-688.279
-718.021
-748.416
-779.583
-811.492
-844.267
-877.97
-912.65
-948.358
-985.274
-1023.41
-1062.89
-1103.83
-1146.47
-1190.78
-1237.06
-1285.46
-88.1123
-86.5592
-84.9493
-83.2889
-81.5834
-79.8397
-78.063
-76.2598
-74.4349
-72.5935
-70.7412
-68.8821
-67.0208
-65.1614
-63.3077
-61.4629
-59.6298
-57.8121
-56.0118
-54.2317
-52.4736
-50.7403
-49.0328
-47.3534
-45.703
-44.0833
-42.4955
-40.9402
-39.4187
-37.9314
-36.479
-35.062
-33.6807
-32.3353
-31.026
-29.7527
-28.5154
-27.3139
-26.1479
-25.017
-23.9211
-22.8588
-21.83
-20.8387
-19.8758
-18.9205
-18.0711
-17.3055
-15.918
-15.5032
-18.4323
-602.626
-630.538
-659.024
-688.085
-717.823
-748.218
-779.382
-811.29
-844.065
-877.766
-912.445
-948.155
-985.071
-1023.21
-1062.69
-1103.63
-1146.27
-1190.58
-1236.86
-1285.26
-1336.06
-92.259
-90.6485
-88.978
-87.2552
-85.485
-83.6743
-81.8289
-79.955
-78.0581
-76.1439
-74.2169
-72.2823
-70.3449
-68.4088
-66.4774
-64.5553
-62.6449
-60.7496
-58.8721
-57.015
-55.1807
-53.3711
-51.5885
-49.8341
-48.1099
-46.4171
-44.7568
-43.1303
-41.5383
-39.9815
-38.4606
-36.976
-35.528
-34.1169
-32.7427
-31.4055
-30.1052
-28.8414
-27.6139
-26.4222
-25.2657
-24.1441
-23.0559
-22.0005
-20.982
-19.9916
-19.0059
-18.1224
-17.3349
-15.9054
-15.404
-18.4559
-602.43
-630.337
-658.817
-687.876
-717.609
-748.001
-779.162
-811.071
-843.845
-877.545
-912.224
-947.934
-984.849
-1022.99
-1062.47
-1103.42
-1146.05
-1190.37
-1236.65
-1285.04
-1335.84
-1389.22
-96.583
-94.912
-93.1794
-91.3907
-89.5535
-87.6736
-85.7568
-83.8095
-81.8377
-79.8472
-77.8429
-75.8299
-73.8132
-71.7974
-69.7861
-67.7831
-65.7925
-63.8167
-61.8588
-59.9219
-58.0081
-56.1197
-54.2585
-52.4269
-50.6259
-48.8571
-47.1219
-45.4213
-43.7563
-42.1276
-40.5357
-38.9813
-37.4646
-35.9857
-34.545
-33.1422
-31.7773
-30.4499
-29.1597
-27.9062
-26.6887
-25.5066
-24.3592
-23.2449
-22.1627
-21.1166
-20.0984
-19.0818
-18.1632
-17.3533
-15.8831
-15.2883
-18.4645
-602.217
-630.119
-658.593
-687.648
-717.377
-747.767
-778.925
-810.832
-843.605
-877.305
-911.983
-947.694
-984.609
-1022.75
-1062.23
-1103.18
-1145.81
-1190.13
-1236.42
-1284.81
-1335.6
-1388.98
-1445.32
-101.092
-99.3584
-97.5597
-95.7035
-93.7963
-91.8439
-89.8528
-87.8296
-85.7802
-83.7102
-81.6256
-79.5313
-77.4327
-75.3335
-73.2388
-71.1526
-69.0778
-67.0185
-64.9773
-62.9575
-60.9609
-58.9903
-57.0481
-55.1355
-53.2549
-51.4076
-49.5945
-47.8171
-46.0763
-44.3731
-42.7078
-41.0811
-39.4933
-37.9447
-36.4352
-34.9649
-33.5336
-32.141
-30.7867
-29.4701
-28.1906
-26.9473
-25.7394
-24.5661
-23.4256
-22.3164
-21.2424
-20.1961
-19.1483
-18.1935
-17.3606
-15.8511
-15.1558
-18.4568
-601.989
-629.883
-658.35
-687.402
-717.125
-747.514
-778.668
-810.575
-843.347
-877.045
-911.722
-947.433
-984.348
-1022.49
-1061.97
-1102.92
-1145.55
-1189.87
-1236.16
-1284.56
-1335.35
-1388.72
-1445.04
-1504.59
-105.793
-103.995
-102.128
-100.201
-98.2209
-96.193
-94.1243
-92.022
-89.8922
-87.7399
-85.5716
-83.393
-81.2088
-79.0237
-76.8421
-74.6688
-72.5074
-70.3612
-68.2329
-66.1264
-64.0442
-61.9885
-59.9615
-57.9657
-56.002
-54.0727
-52.1789
-50.3218
-48.5024
-46.7217
-44.9803
-43.2788
-41.6174
-39.9965
-38.4161
-36.8761
-35.3764
-33.9167
-32.4965
-31.1153
-29.7724
-28.4669
-27.1978
-25.9641
-24.7648
-23.5979
-22.4615
-21.3593
-20.2844
-19.2053
-18.2131
-17.3566
-15.8096
-15.0062
-18.4334
-601.744
-629.63
-658.089
-687.135
-716.854
-747.239
-778.389
-810.294
-843.066
-876.763
-911.438
-947.151
-984.064
-1022.2
-1061.68
-1102.64
-1145.27
-1189.59
-1235.88
-1284.27
-1335.06
-1388.44
-1444.76
-1504.28
-1567.49
-110.696
-108.83
-106.893
-104.892
-102.835
-100.729
-98.5793
-96.3945
-94.1805
-91.9432
-89.6878
-87.4213
-85.1481
-82.8738
-80.6021
-78.3386
-76.0864
-73.85
-71.6317
-69.4354
-67.2635
-65.1192
-63.0043
-60.9212
-58.8716
-56.8571
-54.8794
-52.9395
-51.0385
-49.1776
-47.3571
-45.5778
-43.8401
-42.1444
-40.4905
-38.8784
-37.3082
-35.7793
-34.2913
-32.8437
-31.4356
-30.0664
-28.735
-27.4401
-26.1805
-24.9551
-23.7616
-22.5978
-21.4671
-20.3635
-19.2526
-18.2221
-17.3411
-15.7586
-14.8397
-18.3933
-601.48
-629.356
-657.808
-686.849
-716.56
-746.942
-778.088
-809.992
-842.762
-876.458
-911.131
-946.844
-983.758
-1021.9
-1061.38
-1102.33
-1144.96
-1189.28
-1235.57
-1283.97
-1334.76
-1388.13
-1444.45
-1503.96
-1567.14
-1634.46
-115.809
-113.873
-111.861
-109.783
-107.647
-105.458
-103.225
-100.955
-98.6532
-96.3267
-93.9815
-91.6237
-89.2581
-86.8904
-84.5254
-82.1679
-79.8218
-77.4908
-75.1791
-72.8891
-70.6247
-68.388
-66.1818
-64.0081
-61.8688
-59.7658
-57.7006
-55.6746
-53.6888
-51.7445
-49.8419
-47.982
-46.1653
-44.3917
-42.6617
-40.9751
-39.3317
-37.7313
-36.1733
-34.6572
-33.1822
-31.7475
-30.352
-28.9946
-27.6739
-26.3885
-25.1369
-23.9168
-22.7254
-21.5658
-20.4331
-19.2903
-18.2203
-17.314
-15.6985
-14.6559
-18.3367
-601.198
-629.064
-657.505
-686.541
-716.244
-746.621
-777.763
-809.665
-842.432
-876.126
-910.797
-946.512
-983.424
-1021.56
-1061.04
-1102
-1144.62
-1188.94
-1235.23
-1283.63
-1334.42
-1387.79
-1444.11
-1503.62
-1566.78
-1634.07
-1706.05
-121.142
-119.132
-117.043
-114.885
-112.665
-110.391
-108.071
-105.711
-103.318
-100.9
-98.46
-96.0071
-93.5459
-91.0811
-88.619
-86.1634
-83.7197
-81.2912
-78.8815
-76.4946
-74.1332
-71.8008
-69.4992
-67.2312
-64.9988
-62.804
-60.6477
-58.5323
-56.4583
-54.4269
-52.4392
-50.4954
-48.5964
-46.7423
-44.9332
-43.1692
-41.4501
-39.7755
-38.1452
-36.5583
-35.0142
-33.512
-32.0507
-30.629
-29.2458
-27.8993
-26.5879
-25.31
-24.0632
-22.8441
-21.6554
-20.4932
-19.3184
-18.2079
-17.2752
-15.6295
-14.4548
-18.2619
-600.897
-628.751
-657.182
-686.208
-715.904
-746.278
-777.412
-809.311
-842.076
-875.768
-910.438
-946.152
-983.062
-1021.2
-1060.68
-1101.63
-1144.26
-1188.58
-1234.87
-1283.26
-1334.05
-1387.42
-1443.74
-1503.25
-1566.41
-1633.68
-1705.61
-1782.9
-126.704
-124.617
-122.447
-120.205
-117.899
-115.536
-113.125
-110.672
-108.183
-105.668
-103.132
-100.579
-98.0182
-95.4533
-92.8897
-90.3326
-87.7868
-85.2566
-82.7457
-80.2576
-77.7959
-75.3633
-72.9629
-70.5965
-68.2673
-65.9762
-63.7258
-61.5171
-59.3513
-57.2297
-55.1532
-53.1224
-51.1377
-49.1998
-47.3087
-45.4643
-43.6665
-41.9152
-40.2097
-38.5496
-36.934
-35.3621
-33.8328
-32.345
-30.8973
-29.4882
-28.1159
-26.7786
-25.4745
-24.2008
-22.9538
-21.7357
-20.5437
-19.3368
-18.1847
-17.2244
-15.5518
-14.2361
-18.1679
-600.58
-628.419
-656.836
-685.854
-715.54
-745.907
-777.034
-808.93
-841.693
-875.381
-910.047
-945.762
-982.67
-1020.81
-1060.29
-1101.24
-1143.86
-1188.18
-1234.47
-1282.86
-1333.65
-1387.02
-1443.33
-1502.84
-1566
-1633.26
-1705.16
-1782.4
-1865.78
-132.507
-130.339
-128.084
-125.754
-123.357
-120.901
-118.395
-115.845
-113.258
-110.642
-108.004
-105.349
-102.684
-100.014
-97.3452
-94.6827
-92.0309
-89.3948
-86.7782
-84.1849
-81.6181
-79.082
-76.5783
-74.1102
-71.6795
-69.289
-66.9401
-64.6344
-62.3732
-60.1575
-57.9887
-55.8673
-53.7938
-51.7687
-49.7922
-47.8642
-45.9848
-44.1537
-42.3702
-40.634
-38.9444
-37.3003
-35.7007
-34.1445
-32.6303
-31.1567
-29.7219
-28.3239
-26.9607
-25.6302
-24.3295
-23.0545
-21.8068
-20.5847
-19.3456
-18.1509
-17.1616
-15.466
-13.9998
-18.0543
-600.245
-628.068
-656.469
-685.476
-715.15
-745.51
-776.629
-808.521
-841.278
-874.965
-909.628
-945.341
-982.246
-1020.38
-1059.86
-1100.82
-1143.43
-1187.76
-1234.04
-1282.43
-1333.21
-1386.58
-1442.88
-1502.39
-1565.54
-1632.8
-1704.7
-1781.9
-1865.2
-1955.43
-138.562
-136.308
-133.965
-131.542
-129.051
-126.498
-123.891
-121.24
-118.55
-115.83
-113.085
-110.323
-107.55
-104.771
-101.993
-99.2205
-96.4591
-93.7127
-90.986
-88.283
-85.6079
-82.9629
-80.3523
-77.7779
-75.2423
-72.7476
-70.2965
-67.8898
-65.5291
-63.2157
-60.9509
-58.7351
-56.5689
-54.453
-52.3878
-50.3729
-48.4085
-46.4944
-44.63
-42.8149
-41.0483
-39.3293
-37.6569
-36.0299
-34.4469
-32.9066
-31.4071
-29.9465
-28.5229
-27.1338
-25.7769
-24.4492
-23.1461
-21.8686
-20.6161
-19.3447
-18.1065
-17.0869
-15.3722
-13.7458
-17.9221
-599.885
-627.697
-656.084
-685.076
-714.737
-745.086
-776.196
-808.081
-840.834
-874.516
-909.176
-944.887
-981.79
-1019.92
-1059.4
-1100.35
-1142.97
-1187.29
-1233.57
-1281.96
-1332.74
-1386.1
-1442.4
-1501.9
-1565.05
-1632.29
-1704.19
-1781.37
-1864.64
-1954.77
-2052.81
-144.88
-142.536
-140.1
-137.581
-134.99
-132.335
-129.624
-126.867
-124.07
-121.24
-118.385
-115.512
-112.626
-109.734
-106.842
-103.955
-101.079
-98.218
-95.3768
-92.5598
-89.7708
-87.0139
-84.2911
-81.6063
-78.9612
-76.3586
-73.8006
-71.2889
-68.8245
-66.4094
-64.0444
-61.7304
-59.468
-57.2577
-55.1
-52.9946
-50.9419
-48.9414
-46.9929
-45.0957
-43.249
-41.4522
-39.7042
-38.0037
-36.3494
-34.74
-33.1735
-31.6483
-30.1622
-28.7129
-27.2979
-25.9147
-24.5599
-23.2286
-21.9211
-20.6379
-19.3344
-18.0519
-16.9996
-15.2708
-13.4751
-17.768
-599.491
-627.293
-655.671
-684.654
-714.3
-744.636
-775.734
-807.612
-840.358
-874.033
-908.69
-944.398
-981.295
-1019.43
-1058.9
-1099.85
-1142.46
-1186.78
-1233.06
-1281.45
-1332.22
-1385.58
-1441.87
-1501.36
-1564.5
-1631.74
-1703.62
-1780.8
-1864.05
-1954.12
-2052.04
-2160.45
-151.474
-149.036
-146.502
-143.881
-141.186
-138.424
-135.605
-132.737
-129.827
-126.883
-123.914
-120.923
-117.921
-114.91
-111.899
-108.894
-105.898
-102.918
-99.9582
-97.0227
-94.1161
-91.2411
-88.4025
-85.6022
-82.8432
-80.128
-77.459
-74.8375
-72.2654
-69.7443
-67.275
-64.8585
-62.496
-60.1873
-57.9334
-55.7339
-53.5891
-51.4988
-49.4626
-47.48
-45.5502
-43.6725
-41.8457
-40.0689
-38.3405
-36.6592
-35.0234
-33.431
-31.8802
-30.3686
-28.8938
-27.453
-26.0434
-24.6616
-23.3021
-21.9643
-20.6502
-19.3146
-17.987
-16.9001
-15.1629
-13.1873
-17.5932
-599.075
-626.858
-655.223
-684.199
-713.837
-744.164
-775.247
-807.113
-839.851
-873.518
-908.168
-943.874
-980.765
-1018.89
-1058.36
-1099.31
-1141.92
-1186.24
-1232.51
-1280.89
-1331.66
-1385.01
-1441.3
-1500.78
-1563.91
-1631.13
-1703
-1780.16
-1863.4
-1953.45
-2051.29
-2159.54
-2281.32
-158.359
-155.821
-153.183
-150.456
-147.651
-144.777
-141.844
-138.86
-135.832
-132.77
-129.68
-126.568
-123.443
-120.31
-117.175
-114.046
-110.926
-107.822
-104.738
-101.679
-98.6497
-95.6533
-92.6928
-89.7728
-86.895
-84.0625
-81.2776
-78.542
-75.8578
-73.2262
-70.6485
-68.1257
-65.6583
-63.2471
-60.8929
-58.5954
-56.3549
-54.171
-52.0435
-49.9719
-47.9556
-45.9936
-44.0849
-42.2285
-40.4231
-38.6672
-36.9591
-35.297
-33.6789
-32.1026
-30.5658
-29.0656
-27.599
-26.163
-24.7541
-23.3664
-21.9984
-20.653
-19.2856
-17.9123
-16.7881
-15.0488
-12.8826
-17.3966
-598.644
-626.404
-654.747
-683.708
-713.335
-743.657
-774.731
-806.588
-839.313
-872.97
-907.611
-943.311
-980.195
-1018.32
-1057.79
-1098.73
-1141.33
-1185.64
-1231.91
-1280.29
-1331.05
-1384.4
-1440.67
-1500.15
-1563.26
-1630.47
-1702.32
-1779.46
-1862.68
-1952.71
-2050.52
-2158.66
-2280.35
-2357.82
-165.549
-162.905
-160.157
-157.317
-154.397
-151.406
-148.352
-145.247
-142.097
-138.91
-135.694
-132.456
-129.203
-125.942
-122.679
-119.42
-116.171
-112.937
-109.724
-106.537
-103.38
-100.256
-97.1702
-94.1245
-91.1237
-88.169
-85.2637
-82.4094
-79.6081
-76.8613
-74.1704
-71.5365
-68.9603
-66.4426
-63.9837
-61.5843
-59.2436
-56.9624
-54.7398
-52.5756
-50.469
-48.4192
-46.4253
-44.4861
-42.6005
-40.7668
-38.9835
-37.2488
-35.5608
-33.9171
-32.3156
-30.7535
-29.228
-27.7358
-26.2736
-24.8376
-23.4217
-22.0233
-20.6463
-19.2473
-17.828
-16.6638
-14.9289
-12.5617
-17.1774
-598.196
-625.931
-654.252
-683.192
-712.801
-743.11
-774.179
-806.03
-838.745
-872.39
-907.019
-942.711
-979.586
-1017.7
-1057.16
-1098.11
-1140.7
-1185.01
-1231.27
-1279.64
-1330.39
-1383.73
-1439.99
-1499.46
-1562.56
-1629.75
-1701.58
-1778.7
-1861.89
-1951.89
-2049.68
-2157.76
-2279.36
-2356.61
-2383.21
-173.059
-170.302
-167.438
-164.48
-161.438
-158.323
-155.144
-151.911
-148.631
-145.314
-141.968
-138.597
-135.211
-131.817
-128.419
-125.026
-121.642
-118.274
-114.927
-111.606
-108.315
-105.06
-101.842
-98.6668
-95.5366
-92.455
-89.4238
-86.4461
-83.5229
-80.6563
-77.8474
-75.0978
-72.408
-69.7793
-67.2117
-64.7054
-62.2609
-59.878
-57.5563
-55.2954
-53.0948
-50.9535
-48.8707
-46.8454
-44.876
-42.9614
-41.0997
-39.2893
-37.5283
-35.8145
-34.1455
-32.5189
-30.9318
-29.3811
-27.8634
-26.375
-24.912
-23.4679
-22.0392
-20.6304
-19.2001
-17.7347
-16.5269
-14.8044
-12.2253
-16.9364
-597.728
-625.439
-653.736
-682.655
-712.243
-742.534
-773.585
-805.429
-838.138
-871.775
-906.396
-942.077
-978.939
-1017.04
-1056.5
-1097.43
-1140.02
-1184.32
-1230.57
-1278.94
-1329.68
-1383.01
-1439.26
-1498.71
-1561.79
-1628.97
-1700.78
-1777.87
-1861.03
-1950.99
-2048.74
-2156.77
-2278.31
-2355.67
-2381.99
-2408.57
-180.907
-178.03
-175.043
-171.958
-168.788
-165.542
-162.231
-158.864
-155.45
-151.996
-148.511
-145.003
-141.479
-137.944
-134.407
-130.873
-127.349
-123.841
-120.355
-116.894
-113.465
-110.071
-106.717
-103.406
-100.142
-96.928
-93.7659
-90.659
-87.6089
-84.6171
-81.6857
-78.8152
-76.0075
-73.2627
-70.5816
-67.9646
-65.4116
-62.9228
-60.4978
-58.1362
-55.8375
-53.601
-51.4255
-49.31
-47.2535
-45.2543
-43.3109
-41.4216
-39.5845
-37.7974
-36.058
-34.3639
-32.7124
-31.1005
-29.5248
-27.9817
-26.4672
-24.9773
-23.5052
-22.0461
-20.6053
-19.1442
-17.6328
-16.3774
-14.6762
-11.8744
-16.6695
-597.242
-624.927
-653.199
-682.096
-711.663
-741.933
-772.964
-804.792
-837.489
-871.115
-905.729
-941.406
-978.257
-1016.35
-1055.79
-1096.72
-1139.29
-1183.58
-1229.82
-1278.18
-1328.91
-1382.22
-1438.46
-1497.9
-1560.96
-1628.12
-1699.9
-1776.96
-1860.09
-1950.01
-2047.7
-2155.67
-2277.15
-2354.54
-2381.04
-2407.39
-2434.59
-189.11
-186.105
-182.987
-179.769
-176.463
-173.079
-169.629
-166.121
-162.565
-158.968
-155.339
-151.685
-148.016
-144.336
-140.652
-136.973
-133.303
-129.649
-126.016
-122.411
-118.837
-115.3
-111.804
-108.352
-104.948
-101.596
-98.2974
-95.0562
-91.8732
-88.7516
-85.6921
-82.6964
-79.7648
-76.8995
-74.1003
-71.3675
-68.7013
-66.102
-63.5694
-61.103
-58.702
-56.3659
-54.0937
-51.8845
-49.7369
-47.6495
-45.6209
-43.6491
-41.7325
-39.8688
-38.0559
-36.2913
-34.5724
-32.8962
-31.2596
-29.6591
-28.0907
-26.5503
-25.0336
-23.5336
-22.0442
-20.5713
-19.0797
-17.5226
-16.2154
-14.5453
-11.509
-16.3814
-596.737
-624.393
-652.64
-681.513
-711.058
-741.308
-772.319
-804.127
-836.806
-870.416
-905.017
-940.687
-977.53
-1015.61
-1055.04
-1095.96
-1138.51
-1182.79
-1229.02
-1277.37
-1328.08
-1381.38
-1437.6
-1497.02
-1560.06
-1627.19
-1698.94
-1775.97
-1859.06
-1948.94
-2046.57
-2154.47
-2275.87
-2353.29
-2379.92
-2406.47
-2433.4
-2460.55
-197.689
-194.546
-191.289
-187.929
-184.479
-180.949
-177.352
-173.696
-169.99
-166.243
-162.463
-158.658
-154.835
-151.003
-147.167
-143.335
-139.513
-135.707
-131.923
-128.166
-124.442
-120.755
-117.111
-113.512
-109.962
-106.466
-103.026
-99.6448
-96.3244
-93.0667
-89.8739
-86.747
-83.6874
-80.6959
-77.7732
-74.92
-72.1359
-69.4216
-66.7765
-64.2004
-61.693
-59.2532
-56.8801
-54.573
-52.3305
-50.151
-48.0332
-45.9755
-43.9757
-42.0319
-40.1421
-38.3037
-36.5141
-34.7706
-33.07
-31.409
-29.7838
-28.1904
-26.6243
-25.0809
-23.5532
-22.0338
-20.5285
-19.0069
-17.4054
-16.0409
-14.4128
-11.1312
-16.0695
-596.212
-623.838
-652.058
-680.906
-710.427
-740.657
-771.645
-803.435
-836.094
-869.685
-904.268
-939.923
-976.752
-1014.83
-1054.25
-1095.15
-1137.69
-1181.95
-1228.16
-1276.49
-1327.19
-1380.48
-1436.67
-1496.07
-1559.09
-1626.19
-1697.9
-1774.9
-1857.94
-1947.77
-2045.33
-2153.15
-2274.46
-2351.9
-2378.66
-2405.37
-2432.46
-2459.41
-2487.15
-206.663
-203.374
-199.967
-196.456
-192.853
-189.17
-185.416
-181.603
-177.74
-173.835
-169.896
-165.932
-161.951
-157.958
-153.963
-149.972
-145.991
-142.026
-138.084
-134.17
-130.288
-126.446
-122.647
-118.895
-115.194
-111.549
-107.96
-104.433
-100.969
-97.5703
-94.2385
-90.9752
-87.7814
-84.6588
-81.6076
-78.6284
-75.7215
-72.8871
-70.125
-67.4347
-64.8158
-62.2677
-59.7895
-57.3802
-55.0385
-52.7629
-50.5522
-48.4045
-46.3179
-44.2905
-42.3201
-40.4044
-38.5408
-36.7265
-34.9586
-33.2338
-31.5485
-29.8991
-28.2808
-26.6892
-25.1194
-23.5641
-22.015
-20.4772
-18.9261
-17.2816
-15.8539
-14.28
-10.7424
-15.7308
-595.666
-623.261
-651.453
-680.275
-709.769
-739.977
-770.944
-802.712
-835.352
-868.924
-903.487
-939.123
-975.933
-1013.99
-1053.4
-1094.29
-1136.81
-1181.07
-1227.26
-1275.57
-1326.24
-1379.51
-1435.68
-1495.05
-1558.04
-1625.11
-1696.78
-1773.73
-1856.72
-1946.49
-2043.98