/*--------------------------------*- C++ -*----------------------------------*\
  =========                 |
  \\      /  F ield         | OpenFOAM: The Open Source CFD Toolbox
   \\    /   O peration     | Website:  https://openfoam.org
    \\  /    A nd           | Version:  7
     \\/     M anipulation  |
\*---------------------------------------------------------------------------*/
FoamFile
{
    version     2.0;
    format      ascii;
    class       surfaceScalarField;
    location    "1800";
    object      phi;
}
// * * * * * * * * * * * * * * * * * * * * * * * * * * * * * * * * * * * * * //

dimensions      [0 3 -1 0 0 0 0];

internalField   nonuniform List<scalar> 
45818
(
0.0756486
0.146617
0.072478
0.140224
0.0757457
0.149939
0.0694394
0.134112
0.0725686
0.143401
0.075823
0.153255
0.0665308
0.128269
0.0695285
0.137152
0.072641
0.146583
0.0758821
0.156562
0.0637353
0.122703
0.066615
0.131182
0.0696043
0.140189
0.0727118
0.149753
0.0759312
0.159866
0.0610644
0.117352
0.0638364
0.125482
0.0666943
0.134092
0.0696787
0.143222
0.0727694
0.152915
0.0759655
0.163166
0.0585096
0.112248
0.0611741
0.120014
0.0639192
0.128257
0.0667722
0.136999
0.0697347
0.146257
0.0728021
0.156078
0.0759766
0.166476
0.0560645
0.107386
0.0585995
0.114822
0.061237
0.122696
0.0639822
0.131047
0.0668133
0.13992
0.0697625
0.149297
0.0728216
0.159233
0.0759727
0.16977
0.0537193
0.102734
0.0561551
0.10983
0.0586844
0.117375
0.0613135
0.125365
0.0640368
0.133823
0.066868
0.142814
0.0697988
0.152319
0.0728212
0.162385
0.0759591
0.17306
0.0514728
0.0982861
0.0538118
0.105078
0.0562419
0.112273
0.0587645
0.119924
0.0613802
0.128022
0.0640851
0.136606
0.0669029
0.14571
0.0697935
0.155347
0.0727976
0.165546
0.0759305
0.176329
0.0493252
0.0940384
0.0515661
0.100532
0.0538945
0.107425
0.0563111
0.114726
0.0588212
0.122483
0.0614235
0.130683
0.064115
0.139394
0.0669011
0.148603
0.0698002
0.158345
0.0727959
0.168681
0.0758654
0.179597
0.0472666
0.0899812
0.0494118
0.0961927
0.051652
0.102774
0.0539718
0.109765
0.0563778
0.11717
0.0588731
0.125033
0.061462
0.133336
0.0641401
0.142155
0.0669078
0.151495
0.0697617
0.161379
0.0727292
0.171817
0.0757939
0.182862
0.0452893
0.0861061
0.047355
0.092038
0.0495008
0.0983439
0.0517225
0.105024
0.0540317
0.112111
0.0564278
0.119615
0.0589101
0.127585
0.0614672
0.136009
0.064132
0.144931
0.0668863
0.154371
0.0697353
0.164373
0.072671
0.17494
0.0756991
0.186106
0.0434059
0.0823953
0.0453808
0.0880803
0.0474372
0.0941016
0.0495708
0.100496
0.0517882
0.107267
0.0540839
0.114455
0.0564644
0.122061
0.0589289
0.130123
0.061491
0.13865
0.0641324
0.147685
0.0668683
0.157238
0.0696806
0.167363
0.0725847
0.178054
0.0755845
0.189354
0.0415915
0.0788614
0.0434893
0.0842869
0.0454662
0.0900513
0.0475104
0.096162
0.0496397
0.102644
0.0518437
0.109507
0.0541336
0.116785
0.056498
0.124492
0.0589562
0.132658
0.0614815
0.141301
0.0641045
0.150448
0.0668037
0.160115
0.0696027
0.170345
0.0724919
0.181147
0.0754551
0.192581
0.0398624
0.075473
0.0416817
0.080669
0.0435715
0.0861816
0.0455363
0.0920254
0.0475811
0.0982206
0.0496933
0.104794
0.0518816
0.111759
0.0541581
0.119125
0.0565118
0.126936
0.0589368
0.135203
0.0614622
0.143944
0.0640534
0.153199
0.0667393
0.162978
0.06951
0.173327
0.0723575
0.184244
0.0753024
0.195794
0.0382009
0.0722477
0.039943
0.0772116
0.0417607
0.0824798
0.043651
0.0880668
0.0456051
0.0940015
0.0476292
0.100285
0.0497371
0.106939
0.0519232
0.113994
0.0541764
0.12146
0.0565167
0.129356
0.0589445
0.13772
0.061433
0.146564
0.0640109
0.155927
0.0666635
0.165825
0.0693974
0.176287
0.0722183
0.187329
0.0751384
0.198981
0.0366084
0.0691604
0.0382834
0.0739073
0.0400274
0.0789448
0.0418371
0.0842938
0.0437117
0.0899602
0.0456614
0.0959693
0.0476862
0.102336
0.0497756
0.109087
0.0519447
0.116226
0.0541858
0.123791
0.0565014
0.131799
0.0588919
0.140261
0.0613756
0.149199
0.0639302
0.15866
0.0665694
0.168653
0.0692801
0.179225
0.0720627
0.190404
0.0749195
0.202173
0.0350877
0.0662045
0.0366927
0.0707511
0.0383646
0.0755702
0.0400957
0.0806862
0.0418995
0.086106
0.0437698
0.0918519
0.0457065
0.097949
0.0477178
0.104393
0.0498015
0.11123
0.0519536
0.118458
0.0541827
0.12611
0.0564849
0.134206
0.0588616
0.142776
0.0612999
0.15183
0.0638446
0.161385
0.0664421
0.171491
0.0691245
0.182163
0.0718889
0.193435
0.0747125
0.205333
0.0336309
0.0633904
0.035166
0.0677312
0.0367708
0.0723449
0.0384333
0.0772326
0.0401663
0.0824194
0.0419558
0.08792
0.0438167
0.0937417
0.0457513
0.0999155
0.0477447
0.10645
0.049815
0.113368
0.05195
0.120691
0.0541657
0.128429
0.0564495
0.136618
0.0588079
0.145268
0.0612364
0.154438
0.0637259
0.164101
0.066305
0.17431
0.0689508
0.185101
0.0716769
0.19647
0.0744723
0.20848
0.0322296
0.0606979
0.0337047
0.0648517
0.0352445
0.0692574
0.0368448
0.0739333
0.0384993
0.0788996
0.0402193
0.0841558
0.0420108
0.0897258
0.043861
0.095632
0.0457763
0.101884
0.0477662
0.108499
0.0498172
0.115501
0.0519439
0.122913
0.0541312
0.130747
0.0563953
0.139031
0.0587259
0.147778
0.0611361
0.157028
0.0636023
0.166804
0.0661482
0.177113
0.0687741
0.188004
0.0714502
0.199493
0.0742074
0.211613
0.0308922
0.0581231
0.0323039
0.0620988
0.0337837
0.0663125
0.0353104
0.0707918
0.0369027
0.0755299
0.0385605
0.0805584
0.0402748
0.0858918
0.0420519
0.0915349
0.0438928
0.0975155
0.045801
0.103849
0.0477702
0.110546
0.0498092
0.117636
0.0519139
0.12513
0.0540929
0.13305
0.0563287
0.141428
0.0586436
0.150271
0.061016
0.159614
0.0634724
0.16948
0.0659816
0.179905
0.0685524
0.190902
0.0711953
0.202505
0.073906
0.214728
0.0296078
0.0556672
0.0309634
0.0594636
0.0323833
0.0634992
0.03385
0.0677729
0.0353787
0.0723158
0.036963
0.0771275
0.0386064
0.0822268
0.0403141
0.0876297
0.0420805
0.0933472
0.043912
0.0994045
0.0458095
0.10581
0.0477681
0.112587
0.0497887
0.119761
0.0518813
0.127342
0.0540307
0.135348
0.0562531
0.143818
0.0585334
0.152753
0.0608946
0.162192
0.0633058
0.172156
0.0657902
0.182667
0.0683377
0.193759
0.0709424
0.205468
0.0736065
0.217811
0.0283791
0.0533181
0.0296785
0.0569522
0.0310369
0.0608099
0.0324487
0.0649005
0.0339137
0.0692379
0.0354358
0.073843
0.037017
0.0787169
0.0386589
0.083882
0.0403544
0.0893557
0.0421114
0.0951477
0.0439273
0.101287
0.0458055
0.107772
0.0477471
0.114629
0.0497606
0.121882
0.0518263
0.129546
0.0539573
0.137644
0.0561601
0.146192
0.058418
0.15523
0.0607281
0.164769
0.0631145
0.174831
0.0655672
0.185438
0.0680715
0.19663
0.0706296
0.208445
0.0732557
0.220876
0.0272005
0.051073
0.0284494
0.0545472
0.0297574
0.0582317
0.0311091
0.0621494
0.0325092
0.0663051
0.0339726
0.070701
0.0354917
0.0753684
0.0370599
0.0803159
0.0386846
0.0855518
0.0403736
0.0910936
0.0421213
0.0969537
0.0439328
0.103159
0.0457976
0.109722
0.0477285
0.116661
0.0497115
0.123997
0.0517611
0.131742
0.0538751
0.139929
0.0560419
0.148568
0.0582778
0.15768
0.0605687
0.167315
0.0629318
0.177467
0.0653328
0.188177
0.0677956
0.199464
0.0703338
0.211367
0.0729034
0.22391
0.0260737
0.0489272
0.0272723
0.0522501
0.0285219
0.0557826
0.0298173
0.0595236
0.0311673
0.0634913
0.0325722
0.0677056
0.0340225
0.0721701
0.0355335
0.0768947
0.0370988
0.0819017
0.0387219
0.0872035
0.0403951
0.0928198
0.0421335
0.098753
0.043923
0.105034
0.0457735
0.111677
0.0476811
0.118691
0.0496557
0.126102
0.0516847
0.133933
0.053774
0.142197
0.0559175
0.150928
0.0581212
0.160128
0.0603995
0.169847
0.0626975
0.180102
0.0650703
0.190902
0.0674949
0.202303
0.0699633
0.214307
0.0724947
0.226943
0.0249919
0.0468788
0.0261422
0.0500574
0.0273389
0.0534331
0.0285823
0.0570176
0.0298773
0.0608136
0.0312221
0.0648414
0.0326175
0.0691106
0.0340712
0.0736325
0.0355692
0.0784243
0.0371265
0.0834971
0.0387352
0.0888634
0.0404041
0.0945492
0.0421219
0.100554
0.043907
0.106901
0.0457455
0.113612
0.0476375
0.120709
0.0495851
0.128201
0.0515944
0.136112
0.0536555
0.144459
0.055778
0.153271
0.0579521
0.162575
0.0601788
0.172366
0.0624669
0.182705
0.0648015
0.193595
0.0671795
0.205087
0.0696096
0.217192
0.0720895
0.22993
0.023958
0.0449198
0.0250604
0.0479605
0.0262093
0.0511869
0.0274014
0.0546141
0.0286464
0.0582485
0.0299347
0.0621009
0.0312765
0.0661824
0.0326666
0.0705153
0.0341073
0.0750944
0.0356037
0.079947
0.0371466
0.0850857
0.0387524
0.0905151
0.040407
0.096264
0.042114
0.102347
0.0438771
0.108769
0.0456964
0.115554
0.0475714
0.122723
0.0494993
0.130297
0.0514817
0.138286
0.0535182
0.146718
0.0556111
0.155612
0.0577592
0.164995
0.0599482
0.174885
0.0621982
0.185309
0.0644862
0.196289
0.0668393
0.207857
0.069218
0.220064
0.0716448
0.23289
0.022966
0.0430485
0.0240227
0.0459575
0.0251242
0.0490456
0.0262693
0.052319
0.0274674
0.0557931
0.0286993
0.059484
0.0299873
0.0633901
0.0313224
0.0675265
0.0327109
0.0719117
0.0341386
0.0765595
0.0356242
0.0814694
0.0371655
0.0866726
0.0387506
0.0921715
0.0403909
0.0979872
0.0420886
0.104136
0.0438361
0.110629
0.0456371
0.117488
0.0474901
0.124733
0.0494024
0.132376
0.0513602
0.140444
0.053372
0.148957
0.0554367
0.157935
0.0575439
0.167399
0.0597114
0.177372
0.0619063
0.187889
0.0641695
0.198958
0.0664577
0.210618
0.0688066
0.222902
0.0711636
0.235835
0.0220159
0.04126
0.0230298
0.0440414
0.0240865
0.0469953
0.0251857
0.0501292
0.026331
0.0534554
0.0275129
0.0569795
0.0287559
0.0607155
0.0300359
0.0646766
0.0313607
0.0688767
0.0327348
0.0733156
0.0341645
0.0780192
0.0356399
0.082995
0.0371705
0.0882527
0.0387476
0.0938148
0.0403772
0.0996986
0.0420543
0.105917
0.0437876
0.112479
0.0455679
0.11941
0.0474026
0.126732
0.0492867
0.134449
0.0512212
0.142595
0.0532098
0.151184
0.0552385
0.16024
0.0573197
0.169791
0.059442
0.179836
0.0616165
0.190442
0.0638197
0.201596
0.0660598
0.213364
0.0683388
0.225727
0.0706661
0.238739
0.0211053
0.0395506
0.0220784
0.0422114
0.0230913
0.0450366
0.0241462
0.0480348
0.025243
0.0512172
0.0263834
0.0545848
0.0275686
0.0581668
0.0287949
0.0619565
0.0300696
0.0659676
0.0313964
0.0702151
0.0327688
0.0747112
0.034187
0.0794721
0.035653
0.0845125
0.0371643
0.0898361
0.0387271
0.0954649
0.0403438
0.101409
0.0420103
0.107695
0.0437202
0.114326
0.0454885
0.121324
0.0473026
0.128716
0.0491585
0.136512
0.0510697
0.144735
0.0530237
0.153399
0.0550265
0.162533
0.0570719
0.172161
0.0591523
0.1823
0.0612852
0.192976
0.0634452
0.204211
0.0656521
0.216051
0.067878
0.228515
0.0701255
0.241624
1.50155e-06
-0.000100545
0.0202331
0.0379186
0.0211649
0.040464
0.022138
0.0431647
0.0231491
0.0460337
0.0242026
0.0490752
0.0252981
0.0523025
0.0264317
0.0557216
0.027613
0.0593487
0.0288377
0.0631884
0.0301108
0.0672533
0.0314245
0.0715594
0.0327803
0.0761179
0.0341905
0.0809347
0.0356472
0.0860296
0.0371519
0.0914114
0.038704
0.0971047
0.0403037
0.103116
0.0419509
0.109464
0.0436466
0.116168
0.045388
0.123239
0.0471788
0.130696
0.0490214
0.13856
0.0508994
0.146859
0.0528225
0.155603
0.0547921
0.164813
0.0568016
0.174512
0.0588497
0.184736
0.0609341
0.195487
0.063051
0.206812
0.0651964
0.218733
0.0673709
0.231269
0.0695787
0.244449
3.0605e-06
-0.000112641
1.50011e-06
-0.000102044
0.0193973
0.0363555
0.0202929
0.0387906
0.0212247
0.0413773
0.022193
0.0441208
0.0232041
0.0470322
0.0242547
0.0501186
0.0253418
0.0533924
0.0264766
0.056858
0.0276562
0.0605301
0.0288742
0.064425
0.0301342
0.0685435
0.0314428
0.0728969
0.0328006
0.0775077
0.0341978
0.0823841
0.0356415
0.0875399
0.0371305
0.0929849
0.0386684
0.09874
0.0402552
0.104811
0.0418854
0.111225
0.0435592
0.117997
0.0452836
0.125134
0.0470476
0.13267
0.0488569
0.140603
0.0507103
0.148972
0.0526066
0.157789
0.0545389
0.167076
0.0565076
0.176854
0.0585185
0.187151
0.06055
0.197988
0.0626288
0.20938
0.0647261
0.221377
0.0668425
0.234006
0.0689755
0.247265
4.77327e-06
-0.000123596
3.09656e-06
-0.000114238
1.47477e-06
-0.000103517
0.0185974
0.034865
0.0194538
0.0371946
0.0203489
0.0396665
0.0212793
0.042291
0.0222486
0.0450763
0.0232563
0.0480305
0.0243025
0.0511579
0.0253894
0.0544796
0.0265189
0.0579953
0.0276918
0.0617126
0.0289031
0.0656561
0.0301579
0.0698284
0.0314584
0.0742391
0.0327997
0.0789058
0.0341861
0.0838395
0.0356219
0.0890485
0.037098
0.0945553
0.038623
0.100372
0.0401878
0.106509
0.0418024
0.112982
0.0434592
0.119822
0.0451581
0.127023
0.0468988
0.134628
0.0486813
0.142632
0.0505101
0.151068
0.0523705
0.159957
0.0542683
0.169315
0.0562011
0.179171
0.0581636
0.189538
0.0601546
0.200462
0.0621719
0.211934
0.0642127
0.224007
0.0662727
0.236708
0.0683477
0.250047
6.56124e-06
-0.000133506
4.77583e-06
-0.000125275
3.08411e-06
-0.000115848
1.5506e-06
-0.000105066
0.0178299
0.0334395
0.0186521
0.0356667
0.0195095
0.0380339
0.0204022
0.0405437
0.0213321
0.0432075
0.0222994
0.0460331
0.0233038
0.0490293
0.0243492
0.0521982
0.0254322
0.0555664
0.0265585
0.0591286
0.0277147
0.062901
0.0289258
0.0668882
0.030174
0.0711128
0.0314615
0.0755773
0.0327983
0.0802935
0.034176
0.0852854
0.0355961
0.0905504
0.0370629
0.0961153
0.0385659
0.101994
0.0401165
0.108195
0.0417055
0.114735
0.0433431
0.121637
0.0450188
0.128903
0.0467363
0.136573
0.0484905
0.144652
0.0502812
0.153157
0.0521107
0.162115
0.053974
0.171542
0.0558696
0.181465
0.0577926
0.1919
0.0597432
0.202891
0.0617053
0.214441
0.0636931
0.226587
0.0656999
0.239356
0.0677036
0.252787
8.50508e-06
-0.000143207
6.60897e-06
-0.000135339
4.85126e-06
-0.000127043
3.12748e-06
-0.000117425
1.49253e-06
-0.000106558
0.0170949
0.0320758
0.0178844
0.0342072
0.0187061
0.0364701
0.0195624
0.0388737
0.0204546
0.0414212
0.0213826
0.0441243
0.0223465
0.0469904
0.023348
0.0500305
0.0243831
0.0532473
0.0254694
0.0566555
0.0265819
0.0602614
0.0277443
0.0640825
0.0289423
0.0681199
0.0301824
0.0723918
0.0314633
0.0769123
0.0327886
0.0816809
0.0341556
0.086726
0.0355592
0.0920542
0.0370053
0.0976759
0.0385004
0.10361
0.0400304
0.10987
0.0416039
0.116475
0.0432182
0.123437
0.044867
0.130773
0.0465576
0.138506
0.0482873
0.146645
0.0500448
0.155223
0.0518411
0.164248
0.0536623
0.173749
0.0555121
0.183746
0.0573867
0.194256
0.0592884
0.205308
0.0612091
0.216925
0.0631305
0.229156
0.065066
0.241994
0.0670166
0.255481
1.05727e-05
-0.000153011
8.56149e-06
-0.00014516
6.65621e-06
-0.000137144
4.86472e-06
-0.00012878
3.1197e-06
-0.000119052
1.53639e-06
-0.000108093
0.0163913
0.0307728
0.0171471
0.0328131
0.0179361
0.0349772
0.0187572
0.0372753
0.0196141
0.0397142
0.0205018
0.042302
0.0214273
0.0450435
0.0223889
0.0479495
0.0233875
0.0510261
0.0244287
0.054288
0.0254946
0.0577428
0.0266104
0.0613952
0.0277647
0.0652601
0.0289525
0.0693498
0.0301847
0.0736705
0.031459
0.0782419
0.0327649
0.0830715
0.0341189
0.0881662
0.0355132
0.0935462
0.0369465
0.0992298
0.038421
0.10522
0.039934
0.11154
0.041487
0.118206
0.0430758
0.125228
0.0447027
0.132627
0.0463665
0.140427
0.0480566
0.148634
0.0497896
0.157275
0.0515402
0.16637
0.0533255
0.175936
0.0551395
0.185993
0.056967
0.196578
0.0588103
0.207707
0.0606616
0.219394
0.0625483
0.231674
0.0644174
0.244593
0.0662917
0.258137
1.27719e-05
-0.000163086
1.06401e-05
-0.000155089
8.62221e-06
-0.000147126
6.72101e-06
-0.000139
4.83222e-06
-0.000130493
3.2183e-06
-0.000120735
1.55304e-06
-0.000109645
0.0157156
0.029528
0.0164418
0.0314781
0.0171985
0.0335507
0.0179844
0.03575
0.0188065
0.0380829
0.0196594
0.0405565
0.0205486
0.0431807
0.0214718
0.0459606
0.022431
0.048906
0.0234257
0.0520291
0.0244551
0.0553275
0.0255258
0.0588274
0.0266299
0.0625301
0.027774
0.0664386
0.0289537
0.0705807
0.0301757
0.0749538
0.031437
0.0795698
0.0327414
0.084449
0.0340797
0.0895997
0.0354562
0.0950366
0.0368738
0.100777
0.0383291
0.106824
0.0398229
0.113204
0.0413553
0.119926
0.0429159
0.127015
0.0445146
0.134479
0.0461502
0.142333
0.0478136
0.15061
0.0495071
0.159308
0.0512318
0.168464
0.0529741
0.178101
0.054736
0.188224
0.0565163
0.198872
0.0583176
0.210051
0.0601212
0.221821
0.0619281
0.234163
0.0637342
0.247151
0.0655273
0.260764
1.51118e-05
-0.000173584
1.28528e-05
-0.000165299
1.06738e-05
-0.000157141
8.65941e-06
-0.000149064
6.74685e-06
-0.000140915
4.94566e-06
-0.00013222
3.17257e-06
-0.000122354
1.543e-06
-0.000111187
0.0150699
0.0283364
0.0157654
0.0302045
0.0164894
0.0321872
0.0172456
0.0342895
0.0180335
0.0365231
0.0188521
0.0388902
0.019705
0.0414002
0.0205902
0.0440622
0.0215115
0.0468801
0.0224632
0.0498684
0.0234562
0.053028
0.0244803
0.056373
0.0255407
0.0599167
0.026641
0.063663
0.027777
0.0676153
0.0289552
0.0718012
0.0301705
0.0762203
0.0314175
0.0808937
0.0327026
0.0858262
0.0340258
0.0910301
0.0353915
0.0965188
0.0367949
0.102311
0.0382296
0.108418
0.0396993
0.11486
0.0412034
0.121639
0.0427485
0.128781
0.0443204
0.136309
0.0459228
0.144224
0.0475567
0.15256
0.0492108
0.161329
0.0508924
0.170545
0.0525976
0.18024
0.0543124
0.190428
0.056047
0.201142
0.0577836
0.212388
0.0595364
0.224213
0.0612734
0.236624
0.0630215
0.249657
0.0647566
0.263339
1.75581e-05
-0.000184539
1.51653e-05
-0.000175896
1.29046e-05
-0.000167529
1.08133e-05
-0.000159295
8.7464e-06
-0.000151064
6.79478e-06
-0.000142764
4.927e-06
-0.000133975
3.21989e-06
-0.000124031
1.61398e-06
-0.000112801
0.01445
0.0271998
0.0151159
0.028986
0.0158123
0.0308816
0.0165373
0.0328956
0.0172919
0.0350311
0.0180792
0.0372959
0.0188963
0.0396989
0.0197472
0.0422432
0.0206285
0.0449452
0.0215464
0.0477969
0.0224993
0.0508253
0.0234818
0.0540265
0.0245007
0.057413
0.0255594
0.0609983
0.0266516
0.0647884
0.0277774
0.0687931
0.0289454
0.0730264
0.0301413
0.0774965
0.0313818
0.0822145
0.0326553
0.0871966
0.0339678
0.0924538
0.0353143
0.0979994
0.0366935
0.103847
0.0381127
0.110004
0.0395654
0.116498
0.0410454
0.123342
0.0425637
0.130538
0.0441087
0.138123
0.045678
0.146103
0.0472738
0.154497
0.0488934
0.163328
0.0505343
0.172608
0.0521924
0.18236
0.0538628
0.192612
0.0555477
0.203378
0.0572336
0.214691
0.0589178
0.226569
0.0606074
0.239038
0.0622659
0.252147
0.0639197
0.265877
2.02088e-05
-0.000196103
1.76746e-05
-0.000187049
1.52815e-05
-0.000178273
1.30206e-05
-0.000169737
1.08367e-05
-0.000161385
8.81411e-06
-0.000153083
6.83874e-06
-0.000144676
5.05622e-06
-0.000135811
3.26777e-06
-0.000125685
1.56484e-06
-0.000114365
0.0138561
0.0261117
0.0144953
0.0278203
0.0151631
0.0296351
0.0158584
0.0315605
0.0165828
0.0336047
0.0173379
0.0357724
0.0181216
0.0380706
0.0189377
0.0405084
0.0197842
0.0430876
0.0206666
0.0458249
0.0215765
0.0487197
0.0225226
0.0517846
0.0234998
0.0550273
0.0245198
0.0584526
0.0255669
0.062083
0.0266489
0.065917
0.0277716
0.0699669
0.0289215
0.0742462
0.030116
0.0787623
0.0313384
0.0835314
0.0326027
0.0885617
0.0338973
0.0938708
0.035226
0.099467
0.036591
0.105369
0.0379846
0.111585
0.0394132
0.11813
0.040875
0.125031
0.0423563
0.132291
0.0438746
0.139927
0.0454144
0.147962
0.0469771
0.156413
0.0485623
0.1653
0.0501588
0.174642
0.0517725
0.18445
0.0533946
0.194765
0.0550189
0.205593
0.0566501
0.216959
0.0582746
0.228901
0.0598852
0.241419
0.0614808
0.254586
0.0630667
0.268368
2.29855e-05
-0.000208237
2.03028e-05
-0.000198731
1.78156e-05
-0.000189583
1.54215e-05
-0.000180674
1.31131e-05
-0.000172013
1.09705e-05
-0.000163542
8.88223e-06
-0.000155127
6.99059e-06
-0.000146611
5.13799e-06
-0.000137681
3.32348e-06
-0.000127444
1.62928e-06
-0.000115994
0.0132865
0.025072
0.0139002
0.0267068
0.0145403
0.0284431
0.0152064
0.0302871
0.0159021
0.0322411
0.0166255
0.0343171
0.0173785
0.0365156
0.0181618
0.0388465
0.0189754
0.0413172
0.0198194
0.0439348
0.0206944
0.0467071
0.0216039
0.0496383
0.0225446
0.0527398
0.023523
0.0560241
0.0245249
0.0594946
0.0255731
0.0631588
0.0266485
0.0670401
0.027756
0.0711325
0.0289029
0.0754592
0.0300794
0.0800214
0.0312954
0.0848387
0.0325353
0.0899238
0.033817
0.0952798
0.0351301
0.100928
0.0364695
0.106884
0.0378439
0.113154
0.0392493
0.119756
0.040682
0.126705
0.0421416
0.134024
0.0436254
0.141716
0.0451284
0.149811
0.046658
0.158318
0.0481989
0.167259
0.0497596
0.176655
0.0513213
0.186524
0.0528978
0.196886
0.05447
0.207773
0.0560379
0.219195
0.0576005
0.231186
0.0591439
0.243756
0.0606845
0.256968
0.0621709
0.270824
2.59912e-05
-0.000221127
2.31515e-05
-0.000211086
2.05175e-05
-0.000201433
1.79376e-05
-0.000192099
1.54976e-05
-0.000183058
1.32736e-05
-0.000174316
1.10215e-05
-0.000165681
9.0157e-06
-0.000157152
7.05581e-06
-0.000148528
5.13701e-06
-0.000139495
3.33718e-06
-0.000129152
1.65408e-06
-0.000117648
0.0127425
0.0240763
0.0133305
0.0256417
0.0139434
0.0273037
0.0145824
0.0290671
0.01525
0.0309393
0.0159446
0.032922
0.0166674
0.0350282
0.0174178
0.0372595
0.0181991
0.0396228
0.0190103
0.0421263
0.0198528
0.0447763
0.0207244
0.0475866
0.0216286
0.0505544
0.0225654
0.0536974
0.0235321
0.0570169
0.0245351
0.0605326
0.0255667
0.0642406
0.0266354
0.0681607
0.0277349
0.0723005
0.0288667
0.0766719
0.0300316
0.0812851
0.0312268
0.0861472
0.0324603
0.0912805
0.0337214
0.0966885
0.0350167
0.102381
0.0363419
0.108386
0.0376958
0.114708
0.0390721
0.121366
0.0404816
0.128365
0.041908
0.135741
0.0433564
0.143488
0.0448314
0.151637
0.0463202
0.160196
0.0478217
0.169197
0.0493331
0.178643
0.0508492
0.188572
0.05237
0.198986
0.0538926
0.209918
0.0554035
0.221392
0.0568979
0.233432
0.0583757
0.246065
0.0598221
0.259317
0.0612356
0.27323
2.91929e-05
-0.000234774
2.61883e-05
-0.000224164
2.33522e-05
-0.00021392
2.06715e-05
-0.000204167
1.80924e-05
-0.000194694
1.57343e-05
-0.000185519
1.33105e-05
-0.000176605
1.1229e-05
-0.000167894
9.15577e-06
-0.000159252
7.12845e-06
-0.00015052
5.2226e-06
-0.00014138
3.42678e-06
-0.000130924
1.68279e-06
-0.000119331
0.0122204
0.023126
0.0127827
0.0246242
0.0133715
0.0262136
0.0139854
0.0279007
0.0146247
0.0296923
0.0152906
0.0315932
0.0159837
0.0336057
0.0167049
0.0357411
0.0174559
0.0380028
0.0182342
0.0403989
0.0190443
0.0429348
0.0198784
0.0456223
0.0207511
0.0484641
0.0216449
0.0514749
0.0225749
0.0546546
0.0235378
0.0580142
0.0245291
0.0615701
0.025554
0.065322
0.0266111
0.0692845
0.0277004
0.0734668
0.0288228
0.0778806
0.0299748
0.0825372
0.031165
0.0874425
0.0323792
0.0926228
0.0336224
0.0980827
0.0348957
0.103827
0.0361968
0.109885
0.0375252
0.116255
0.0388846
0.122963
0.0402587
0.130014
0.0416597
0.137438
0.0430787
0.14524
0.0445156
0.153442
0.0459614
0.162057
0.0474235
0.171107
0.048888
0.180604
0.0503611
0.190581
0.0518272
0.201051
0.0532856
0.212036
0.0547283
0.223562
0.0561617
0.235646
0.0575637
0.248323
0.0589436
0.261609
0.0602709
0.275572
3.26025e-05
-0.000249172
2.93774e-05
-0.000237963
2.64267e-05
-0.000227238
2.35897e-05
-0.000216838
2.08168e-05
-0.000206891
1.8365e-05
-0.000197324
1.58545e-05
-0.000188063
1.36442e-05
-0.000179021
1.14048e-05
-0.000170143
9.26322e-06
-0.000161387
7.24696e-06
-0.000152544
5.34259e-06
-0.000143296
3.49e-06
-0.000132731
1.67446e-06
-0.000121006
0.011719
0.0222172
0.0122598
0.0236488
0.0128236
0.0251722
0.0134112
0.0267877
0.014025
0.0285005
0.0146642
0.0303188
0.0153311
0.0322459
0.016022
0.0342886
0.0167422
0.0364548
0.0174881
0.0387488
0.0182644
0.0411788
0.0190666
0.0437467
0.0199048
0.0464686
0.0207621
0.0493469
0.0216635
0.0523864
0.0225847
0.0556077
0.0235408
0.0590025
0.0245269
0.0625972
0.0255401
0.0663929
0.026592
0.0703929
0.0276684
0.0746213
0.0287742
0.0790812
0.0299183
0.0837839
0.0310841
0.0887376
0.032279
0.0939662
0.0335081
0.0994703
0.03476
0.105264
0.0360442
0.111366
0.0373485
0.117791
0.038671
0.124551
0.0400183
0.131656
0.0413912
0.139125
0.0427749
0.146981
0.0441724
0.155231
0.0455839
0.163896
0.0469967
0.172998
0.0484182
0.182547
0.0498366
0.192572
0.0512499
0.203087
0.0526487
0.214116
0.0540332
0.22569
0.0553948
0.237815
0.0567236
0.250543
0.058008
0.263872
0.0592718
0.277872
3.61431e-05
-0.000264468
3.28276e-05
-0.000252622
2.96572e-05
-0.000241193
2.66574e-05
-0.000230306
2.38263e-05
-0.000219848
2.11775e-05
-0.000209704
1.8479e-05
-0.000199949
1.60864e-05
-0.000190505
1.37679e-05
-0.000181384
1.15051e-05
-0.000172385
9.41901e-06
-0.000163559
7.40294e-06
-0.000154604
5.40071e-06
-0.000145206
3.52241e-06
-0.000134579
1.79473e-06
-0.000122802
0.0112407
0.0213464
0.0117574
0.0227196
0.0122975
0.0241749
0.0128632
0.0257203
0.0134517
0.027361
0.0140647
0.0290999
0.0147029
0.030947
0.0153655
0.0329023
0.016058
0.0349728
0.0167751
0.0371678
0.0175206
0.0394927
0.0182928
0.0419526
0.0190921
0.0445594
0.0199228
0.0473078
0.0207863
0.0502242
0.0216694
0.0533017
0.0225867
0.0565617
0.0235326
0.0599968
0.024512
0.0636254
0.02552
0.067465
0.0265539
0.0715074
0.0276186
0.0757768
0.028718
0.0802815
0.0298391
0.0850289
0.0309906
0.0900259
0.0321792
0.0952952
0.033384
0.100846
0.034614
0.106694
0.0358704
0.112844
0.0371478
0.119314
0.03845
0.126119
0.0397705
0.133276
0.0411081
0.140792
0.0424559
0.148697
0.0438168
0.156998
0.0451803
0.165713
0.0465525
0.174864
0.0479234
0.184461
0.0492876
0.194534
0.0506427
0.205093
0.0519847
0.216164
0.053306
0.227779
0.0545881
0.23995
0.0558473
0.252704
0.0570603
0.266084
0.0582249
0.2801
4.00079e-05
-0.000280729
3.64961e-05
-0.000268136
3.31551e-05
-0.00025612
3.00331e-05
-0.000244569
2.69414e-05
-0.000233421
2.41369e-05
-0.000222807
2.13387e-05
-0.000212563
1.88512e-05
-0.000202714
1.63982e-05
-0.000193135
1.39591e-05
-0.000183838
1.17495e-05
-0.000174715
9.56968e-06
-0.000165725
7.5046e-06
-0.000156708
5.51809e-06
-0.000147202
3.67963e-06
-0.000136463
1.79031e-06
-0.000124593
0.0107802
0.0205151
0.0112758
0.0218279
0.0117944
0.0232228
0.0123364
0.0247016
0.0128998
0.0262722
0.0134887
0.0279371
0.0141017
0.0297011
0.0147392
0.0315734
0.0154028
0.0335575
0.0160901
0.0356578
0.0168047
0.0378837
0.0175472
0.0402383
0.018315
0.0427297
0.0191128
0.0453695
0.0199381
0.0481559
0.0207861
0.0511074
0.0216719
0.0542165
0.0225811
0.0575133
0.0235217
0.0609872
0.0244908
0.0646545
0.0254872
0.0685316
0.0265095
0.0726166
0.0275677
0.0769271
0.0286491
0.0814715
0.0297573
0.0862622
0.0308974
0.0913077
0.0320553
0.0966239
0.033241
0.102219
0.0344532
0.108111
0.0356891
0.114303
0.0369397
0.120824
0.0382128
0.127677
0.0395016
0.134883
0.0407998
0.142448
0.0421173
0.150397
0.0434339
0.158745
0.0447631
0.167502
0.0460874
0.1767
0.0474063
0.186342
0.04872
0.196456
0.0500183
0.20706
0.0512897
0.218181
0.052543
0.229824
0.0537619
0.242036
0.0549367
0.254827
0.0560639
0.268245
0.0571146
0.282284
4.40687e-05
-0.00029797
4.04117e-05
-0.000284645
3.6885e-05
-0.000271866
3.35339e-05
-0.000259621
3.02724e-05
-0.0002479
2.73532e-05
-0.000236637
2.43498e-05
-0.000225818
2.1712e-05
-0.000215424
1.90692e-05
-0.000205385
1.65924e-05
-0.000195769
1.42523e-05
-0.00018634
1.19956e-05
-0.000177141
9.76632e-06
-0.000167987
7.66735e-06
-0.000158857
5.71834e-06
-0.000149241
3.66842e-06
-0.000138341
1.79205e-06
-0.000126386
0.0103385
0.0197203
0.0108142
0.0209767
0.0113116
0.0223107
0.0118311
0.0237281
0.0123724
0.025229
0.0129366
0.0268242
0.0135255
0.0285133
0.0141357
0.0303046
0.0147726
0.0322036
0.0154337
0.0342139
0.01612
0.0363425
0.0168341
0.0385967
0.017573
0.0409803
0.0183399
0.0435026
0.0191322
0.0461754
0.0199486
0.0489934
0.0207963
0.051983
0.0216703
0.0551273
0.0225756
0.0584593
0.0235059
0.0619721
0.0244635
0.0656783
0.0254482
0.0695928
0.0264639
0.0737204
0.0275056
0.0780706
0.0285741
0.0826547
0.0296708
0.0874889
0.0307816
0.0925813
0.0319267
0.0979382
0.0330982
0.103574
0.0342849
0.109515
0.0354889
0.115754
0.0367155
0.122322
0.0379619
0.129216
0.0392139
0.136469
0.0404804
0.144085
0.0417549
0.152076
0.0430385
0.160469
0.0443185
0.169271
0.0455922
0.178514
0.0468633
0.188199
0.0481202
0.198355
0.049353
0.208996
0.0505713
0.220152
0.0517514
0.231835
0.052896
0.244077
0.0539928
0.256898
0.0550356
0.270324
0.0560201
0.284396
4.8439e-05
-0.000316321
4.45794e-05
-0.000302138
4.08605e-05
-0.000288621
3.73228e-05
-0.000275655
3.38836e-05
-0.000263232
3.07927e-05
-0.000251339
2.76257e-05
-0.000239913
2.48296e-05
-0.000228936
2.20878e-05
-0.000218443
1.94177e-05
-0.00020821
1.68914e-05
-0.000198408
1.45037e-05
-0.000188848
1.21513e-05
-0.000179526
9.9805e-06
-0.0001703
7.87007e-06
-0.000161009
5.75584e-06
-0.000151328
3.75121e-06
-0.0001403
1.881e-06
-0.000128268
0.00991806
0.0189585
0.0103725
0.020162
0.0108494
0.0214389
0.0113478
0.022794
0.0118675
0.024233
0.0124086
0.0257571
0.0129727
0.027377
0.0135582
0.0290907
0.014171
0.0309062
0.0148048
0.0328324
0.0154643
0.0348696
0.0161486
0.0370281
0.0168566
0.0393132
0.017591
0.0417292
0.0183504
0.0442844
0.0191403
0.0469837
0.0199564
0.0498333
0.0208002
0.0528531
0.0216653
0.0560377
0.0225603
0.0594049
0.0234775
0.062958
0.0244298
0.0666967
0.025408
0.0706487
0.0264071
0.0748188
0.0274358
0.0792088
0.0284864
0.0838391
0.0295602
0.0887103
0.0306669
0.0938411
0.0317877
0.0992487
0.0329315
0.104928
0.034094
0.11091
0.035279
0.11719
0.0364802
0.123803
0.0376884
0.130742
0.0389138
0.138035
0.040145
0.145695
0.0413816
0.153733
0.0426159
0.162172
0.0438466
0.171017
0.0450825
0.180295
0.0462967
0.190022
0.0474945
0.200213
0.0486691
0.210899
0.0498158
0.222088
0.0509242
0.233806
0.0519907
0.246079
0.0530068
0.258927
0.0539639
0.27238
0.0548803
0.286457
5.30764e-05
-0.000335656
4.89579e-05
-0.000320699
4.50409e-05
-0.000306318
4.13108e-05
-0.000292609
3.77395e-05
-0.000279511
3.43791e-05
-0.000266818
3.11321e-05
-0.000254846
2.817e-05
-0.000243253
2.52716e-05
-0.00023212
2.24005e-05
-0.000221426
1.97791e-05
-0.000211097
1.72531e-05
-0.000201157
1.47695e-05
-0.000191466
1.2472e-05
-0.000182018
1.02403e-05
-0.00017267
8.01131e-06
-0.000163264
5.89872e-06
-0.000153475
3.93659e-06
-0.000142355
1.93868e-06
-0.000130207
0.009511
0.0182319
0.00994918
0.0193818
0.0104055
0.0206059
0.0108838
0.021903
0.0113819
0.0232796
0.0119014
0.0247401
0.0124424
0.0262874
0.0130064
0.0279289
0.0135918
0.0296699
0.0142004
0.0315107
0.0148341
0.0334626
0.0154905
0.0355276
0.0161717
0.0377129
0.0168788
0.0400254
0.0176072
0.0424724
0.0183677
0.0450571
0.0191456
0.0477945
0.0199528
0.0506807
0.0207863
0.0537321
0.0216511
0.0569469
0.0225345
0.0603479
0.0234529
0.0639349
0.0243835
0.0677212
0.0253516
0.0717043
0.0263391
0.0759155
0.0273499
0.0803453
0.0283889
0.0850104
0.0294535
0.0899236
0.0305337
0.0950951
0.0316354
0.100545
0.0327522
0.106269
0.0339007
0.112289
0.0350503
0.11862
0.036221
0.125271
0.0373989
0.132257
0.038589
0.139591
0.0397808
0.147296
0.0409794
0.155369
0.0421722
0.163846
0.0433637
0.172735
0.0445391
0.182053
0.0456979
0.191819
0.0468403
0.202042
0.0479545
0.21276
0.0490331
0.223979
0.0500699
0.235727
0.0510583
0.248027
0.0519901
0.260901
0.0528344
0.274426
0.0536388
0.28848
5.79352e-05
-0.000356206
5.36608e-05