/*--------------------------------*- C++ -*----------------------------------*\
  =========                 |
  \\      /  F ield         | OpenFOAM: The Open Source CFD Toolbox
   \\    /   O peration     | Website:  https://openfoam.org
    \\  /    A nd           | Version:  7
     \\/     M anipulation  |
\*---------------------------------------------------------------------------*/
FoamFile
{
    version     2.0;
    format      ascii;
    class       volVectorField;
    location    "1800";
    object      U;
}
// * * * * * * * * * * * * * * * * * * * * * * * * * * * * * * * * * * * * * //

dimensions      [0 1 -1 0 0 0 0];

internalField   nonuniform List<vector> 
23064
(
(49.7341 13.3373 7.61186e-17)
(49.7395 13.3637 8.6406e-18)
(49.7346 13.3372 0)
(49.744 13.3897 -9.15525e-17)
(49.7403 13.3634 3.3771e-18)
(49.7352 13.337 9.98733e-18)
(49.7505 13.416 -8.78833e-17)
(49.745 13.3891 8.74448e-17)
(49.7412 13.363 -9.66951e-17)
(49.7359 13.3368 -4.95473e-18)
(49.7578 13.4432 -3.12219e-18)
(49.7519 13.4152 4.40488e-17)
(49.7461 13.3885 -9.30284e-17)
(49.7421 13.3625 5.58278e-18)
(49.7365 13.3366 -5.35798e-18)
(49.7655 13.4713 0)
(49.7596 13.4422 -4.99283e-17)
(49.7534 13.4144 -9.41305e-17)
(49.7472 13.3879 9.16727e-17)
(49.743 13.3621 5.70629e-18)
(49.7372 13.3363 0)
(49.7736 13.5003 -3.87187e-18)
(49.7677 13.4701 -3.62103e-18)
(49.7614 13.4412 5.23378e-17)
(49.7548 13.4135 1.94848e-16)
(49.7483 13.3872 9.67641e-17)
(49.7439 13.3616 -5.81196e-18)
(49.7379 13.3361 9.06685e-17)
(49.7823 13.5303 -1.32705e-16)
(49.7762 13.4989 7.74611e-18)
(49.7699 13.4689 0)
(49.7633 13.4401 -1.14424e-16)
(49.7563 13.4126 -9.43122e-17)
(49.7494 13.3865 -1.87903e-16)
(49.7449 13.3611 0)
(49.7387 13.3358 -1.87361e-16)
(49.7914 13.5615 -1.36681e-16)
(49.7854 13.5288 6.23786e-17)
(49.7789 13.4975 0)
(49.7721 13.4675 -5.65784e-17)
(49.7651 13.4389 1.02529e-16)
(49.7578 13.4116 6.66739e-18)
(49.7505 13.3857 1.975e-16)
(49.7458 13.3606 6.04872e-18)
(49.7394 13.3355 -8.61588e-18)
(49.8009 13.5938 -4.89808e-18)
(49.7949 13.5598 7.79773e-17)
(49.7884 13.5272 -7.05492e-17)
(49.7815 13.496 -6.15462e-17)
(49.7743 13.4662 5.93434e-17)
(49.767 13.4377 -6.96609e-18)
(49.7592 13.4106 0)
(49.7517 13.3849 -1.94513e-16)
(49.7468 13.36 1.05848e-16)
(49.7403 13.3351 6.99889e-17)
(49.8107 13.6274 0)
(49.8049 13.592 -8.87397e-17)
(49.7985 13.558 8.2441e-17)
(49.7915 13.5255 1.37158e-16)
(49.7842 13.4944 1.27475e-16)
(49.7766 13.4647 -1.25088e-16)
(49.7689 13.4364 0)
(49.7608 13.4095 -6.67304e-18)
(49.7528 13.3841 -2.93621e-18)
(49.7478 13.3594 -8.58844e-17)
(49.7411 13.3347 9.68948e-17)
(49.8208 13.6624 -4.82741e-17)
(49.8152 13.6255 0)
(49.8089 13.59 1.62792e-16)
(49.802 13.5561 -7.64e-17)
(49.7946 13.5237 -6.65222e-17)
(49.7868 13.4927 -6.60111e-17)
(49.7788 13.4632 2.42651e-16)
(49.7707 13.435 1.26865e-16)
(49.7623 13.4083 0)
(49.7539 13.3832 1.02207e-16)
(49.7488 13.3588 0)
(49.742 13.3343 -9.56373e-17)
(49.8312 13.6989 0)
(49.8259 13.6603 -5.11315e-17)
(49.8197 13.6234 0)
(49.8129 13.588 -8.41734e-17)
(49.8056 13.5542 8.56501e-17)
(49.7977 13.5218 7.46755e-17)
(49.7895 13.491 8.21246e-17)
(49.7811 13.4616 -3.96664e-18)
(49.7726 13.4336 -1.17791e-16)
(49.7638 13.4071 -1.13598e-16)
(49.7551 13.3823 6.691e-18)
(49.7499 13.3581 1.04114e-16)
(49.7429 13.3339 -1.12955e-17)
(49.8419 13.7368 -5.76015e-17)
(49.8368 13.6966 3.58509e-18)
(49.8309 13.6581 1.57903e-16)
(49.8243 13.6212 9.00048e-17)
(49.817 13.5859 -9.4004e-17)
(49.8092 13.5521 -7.94134e-17)
(49.8009 13.5199 -7.34101e-17)
(49.7922 13.4892 8.15359e-17)
(49.7834 13.4599 -1.19431e-16)
(49.7745 13.4321 -7.73809e-18)
(49.7653 13.4059 1.05164e-16)
(49.7563 13.3813 1.01141e-16)
(49.7509 13.3573 -1.15825e-16)
(49.7439 13.3334 1.14133e-17)
(49.8529 13.7764 2.51294e-19)
(49.8481 13.7345 5.6802e-17)
(49.8424 13.6942 -6.11159e-17)
(49.836 13.6557 -9.97066e-17)
(49.8289 13.6189 3.12138e-18)
(49.8211 13.5836 1.77657e-16)
(49.8128 13.55 2.62079e-19)
(49.804 13.5179 -1.41773e-17)
(49.7949 13.4873 -1.56888e-16)
(49.7856 13.4582 1.41566e-16)
(49.7764 13.4306 0)
(49.7669 13.4046 -2.61851e-19)
(49.7575 13.3803 -9.30726e-17)
(49.752 13.3566 1.31307e-17)
(49.7449 13.3329 0)
(49.864 13.8177 -4.51156e-18)
(49.8596 13.7739 0)
(49.8543 13.7319 6.78941e-17)
(49.8481 13.6917 1.19031e-16)
(49.8411 13.6533 -6.84657e-18)
(49.8335 13.6165 -9.6415e-17)
(49.8252 13.5813 -9.4479e-17)
(49.8164 13.5477 -2.65078e-19)
(49.8071 13.5157 8.78551e-17)
(49.7976 13.4853 -1.45455e-16)
(49.7879 13.4564 -1.31779e-16)
(49.7784 13.429 7.67606e-18)
(49.7684 13.4032 1.25795e-16)
(49.7587 13.3792 -1.2425e-16)
(49.7531 13.3557 2.16007e-16)
(49.746 13.3323 2.18871e-16)
(49.8755 13.8607 0)
(49.8714 13.815 0)
(49.8664 13.7712 -4.22714e-18)
(49.8605 13.7293 -6.70142e-17)
(49.8537 13.6891 -5.06965e-17)
(49.8462 13.6507 0)
(49.8381 13.6139 -1.07508e-16)
(49.8293 13.5789 5.59902e-18)
(49.82 13.5454 -5.44527e-18)
(49.8103 13.5135 -7.73836e-17)
(49.8003 13.4832 2.81792e-16)
(49.7902 13.4545 -1.37254e-16)
(49.7803 13.4273 -1.36092e-16)
(49.77 13.4018 -1.16936e-16)
(49.7599 13.3781 2.21009e-16)
(49.7543 13.3549 -2.13556e-16)
(49.7471 13.3317 -2.0483e-16)
(49.8871 13.9057 -1.37723e-16)
(49.8835 13.858 -7.98812e-17)
(49.8788 13.8123 0)
(49.8732 13.7685 8.86474e-18)
(49.8667 13.7265 0)
(49.8594 13.6864 1.2137e-16)
(49.8514 13.648 6.69192e-18)
(49.8427 13.6113 1.06218e-16)
(49.8334 13.5763 1.16807e-17)
(49.8236 13.5429 8.72792e-17)
(49.8135 13.5112 9.73484e-18)
(49.803 13.4811 -1.45682e-16)
(49.7925 13.4525 1.35574e-16)
(49.7822 13.4255 1.26783e-16)
(49.7716 13.4003 -1.21217e-16)
(49.7611 13.3769 -1.24729e-16)
(49.7554 13.354 0)
(49.7482 13.331 2.25032e-16)
(49.8989 13.9526 4.64683e-17)
(49.8958 13.9028 8.57616e-17)
(49.8915 13.855 1.70729e-16)
(49.8862 13.8093 -4.76426e-18)
(49.8801 13.7655 0)
(49.873 13.7236 -4.25845e-18)
(49.8651 13.6835 -1.1966e-16)
(49.8565 13.6451 -6.79789e-18)
(49.8473 13.6085 -6.25936e-18)
(49.8375 13.5736 6.08199e-18)
(49.8272 13.5404 -1.74657e-16)
(49.8166 13.5088 -1.03527e-17)
(49.8057 13.4788 -9.57777e-18)
(49.7949 13.4505 -8.88559e-18)
(49.7842 13.4237 1.31439e-16)
(49.7732 13.3987 1.34713e-16)
(49.7623 13.3757 -9.96206e-17)
(49.7565 13.353 -1.39221e-17)
(49.7494 13.3303 -2.22785e-16)
(49.911 14.0015 5.8492e-17)
(49.9083 13.9495 3.3177e-18)
(49.9045 13.8997 0)
(49.8996 13.852 -7.98528e-17)
(49.8937 13.8062 0)
(49.8869 13.7624 9.15872e-18)
(49.8793 13.7205 -1.36249e-16)
(49.8708 13.6805 -7.93964e-18)
(49.8617 13.6422 1.14909e-16)
(49.8519 13.6057 1.06004e-16)
(49.8416 13.5708 9.72609e-17)
(49.8309 13.5377 9.81946e-17)
(49.8198 13.5063 1.00029e-17)
(49.8085 13.4765 -1.44068e-16)
(49.7972 13.4483 1.33402e-16)
(49.7861 13.4218 -2.7123e-16)
(49.7748 13.3971 -1.50341e-17)
(49.7636 13.3744 2.27833e-16)
(49.7577 13.352 1.40703e-17)
(49.7506 13.3295 0)
(49.9233 14.0526 -6.30445e-17)
(49.921 13.9983 5.4448e-17)
(49.9177 13.9463 -3.37276e-18)
(49.9132 13.8965 9.17443e-17)
(49.9077 13.8487 5.68278e-18)
(49.9012 13.803 -4.92026e-18)
(49.8938 13.7592 7.53308e-17)
(49.8855 13.7173 1.42651e-16)
(49.8765 13.6773 8.05492e-18)
(49.8669 13.6391 -1.20386e-16)
(49.8566 13.6027 -1.04288e-16)
(49.8457 13.568 -1.02279e-16)
(49.8345 13.535 0)
(49.823 13.5036 -1.78327e-16)
(49.8112 13.474 1.60937e-16)
(49.7995 13.4461 -1.41125e-16)
(49.7881 13.4198 1.39894e-16)
(49.7764 13.3954 0)
(49.7648 13.373 -1.28513e-16)
(49.7589 13.3509 -2.26661e-16)
(49.7519 13.3287 -2.44065e-16)
(49.9357 14.106 0)
(49.934 14.0493 -2.01429e-18)
(49.9311 13.995 -5.34997e-17)
(49.9271 13.9429 0)
(49.9219 13.8931 -2.01153e-16)
(49.9158 13.8453 0)
(49.9086 13.7996 0)
(49.9006 13.7558 -7.42875e-17)
(49.8918 13.714 4.90466e-19)
(49.8823 13.674 0)
(49.872 13.6359 -1.18043e-16)
(49.8612 13.5995 6.52699e-18)
(49.8499 13.5649 -9.97734e-17)
(49.8382 13.5321 1.10924e-17)
(49.8261 13.5009 -3.94422e-18)
(49.8139 13.4715 1.94337e-17)
(49.8018 13.4438 -1.54376e-16)
(49.7901 13.4177 0)
(49.778 13.3936 -6.14427e-19)
(49.7661 13.3716 1.48091e-17)
(49.7601 13.3497 -3.79632e-18)
(49.7532 13.3277 4.37175e-16)
(49.9484 14.1616 0)
(49.9473 14.1025 -4.49216e-18)
(49.9449 14.0458 1.32278e-16)
(49.9412 13.9915 1.19455e-16)
(49.9365 13.9394 1.09586e-16)
(49.9307 13.8895 9.76305e-17)
(49.9239 13.8417 0)
(49.9161 13.796 0)
(49.9075 13.7523 -1.64168e-16)
(49.8981 13.7105 0)
(49.888 13.6706 0)
(49.8772 13.6325 1.24135e-16)
(49.8659 13.5963 0)
(49.854 13.5618 9.85604e-17)
(49.8418 13.5291 1.97778e-16)
(49.8293 13.4981 -1.42296e-17)
(49.8167 13.4689 1.58571e-16)
(49.8041 13.4414 -3.06805e-18)
(49.792 13.4156 1.66476e-17)
(49.7797 13.3917 -1.54645e-17)
(49.7674 13.3701 1.46905e-17)
(49.7614 13.3485 2.26214e-16)
(49.7546 13.3268 -2.32068e-16)
(49.9613 14.2198 -8.51822e-17)
(49.9608 14.1581 4.68901e-18)
(49.9588 14.0989 6.30589e-17)
(49.9557 14.0421 -6.82757e-17)
(49.9514 13.9877 -1.17685e-16)
(49.9459 13.9356 -1.07997e-16)
(49.9395 13.8857 0)
(49.932 13.8379 -5.93335e-18)
(49.9237 13.7922 0)
(49.9144 13.7486 1.52807e-16)
(49.9044 13.7068 9.13909e-18)
(49.8937 13.667 1.23937e-16)
(49.8824 13.629 0)
(49.8705 13.5929 0)
(49.8581 13.5586 7.68434e-17)
(49.8454 13.526 -3.59935e-16)
(49.8325 13.4952 1.69634e-16)
(49.8194 13.4661 1.35112e-17)
(49.8065 13.4389 1.45428e-16)
(49.794 13.4133 1.55684e-16)
(49.7813 13.3898 -1.28503e-16)
(49.7686 13.3686 0)
(49.7626 13.3473 1.46026e-17)
(49.756 13.3257 1.21933e-17)
(49.9745 14.2805 9.11184e-17)
(49.9745 14.216 8.38487e-17)
(49.9731 14.1543 9.80103e-18)
(49.9704 14.095 6.50618e-18)
(49.9666 14.0382 -7.12214e-17)
(49.9615 13.9838 -7.80077e-18)
(49.9554 13.9317 -1.12642e-16)
(49.9483 13.8818 -9.7046e-17)
(49.9402 13.834 -9.46042e-17)
(49.9312 13.7883 0)
(49.9214 13.7447 -1.58284e-16)
(49.9108 13.703 0)
(49.8995 13.6633 -1.30219e-16)
(49.8876 13.6254 0)
(49.8752 13.5894 6.40224e-18)
(49.8623 13.5552 -3.19914e-16)
(49.8491 13.5228 3.75944e-16)
(49.8357 13.4921 1.64582e-16)
(49.8221 13.4633 -1.6872e-16)
(49.8088 13.4362 -1.82163e-17)
(49.796 13.411 -1.36827e-16)
(49.783 13.3877 2.40396e-16)
(49.7699 13.367 1.51662e-17)
(49.7638 13.3459 0)
(49.7575 13.3246 0)
(49.9878 14.3438 -3.28686e-18)
(49.9884 14.2766 3.025e-18)
(49.9876 14.2121 -1.08228e-17)
(49.9855 14.1502 0)
(49.9821 14.0909 -6.74564e-17)
(49.9775 14.0341 6.98272e-17)
(49.9717 13.9796 -1.24486e-16)
(49.9649 13.9275 1.11071e-16)
(49.9571 13.8776 1.01831e-16)
(49.9483 13.8299 1.89114e-16)
(49.9387 13.7843 8.8346e-17)
(49.9283 13.7407 3.17524e-16)
(49.9171 13.6991 0)
(49.9052 13.6594 0)
(49.8928 13.6217 1.3122e-16)
(49.8798 13.5858 -1.28019e-16)
(49.8664 13.5517 2.04159e-16)
(49.8527 13.5194 -1.87936e-16)
(49.8389 13.489 -3.39469e-16)
(49.8249 13.4603 -1.63254e-16)
(49.8111 13.4335 -1.91332e-17)
(49.7979 13.4085 3.48523e-17)
(49.7846 13.3856 1.33429e-16)
(49.7712 13.3653 0)
(49.7651 13.3445 0)
(49.759 13.3234 0)
(50.0014 14.41 3.43001e-18)
(50.0026 14.3398 -3.15691e-18)
(50.0024 14.2725 5.80655e-18)
(50.0008 14.2079 0)
(49.9979 14.146 0)
(49.9937 14.0866 -7.04705e-17)
(49.9884 14.0298 0)
(49.9819 13.9753 1.14731e-16)
(49.9744 13.9232 0)
(49.9659 13.8733 0)
(49.9565 13.8256 -1.00007e-16)
(49.9463 13.78 -9.78901e-17)
(49.9352 13.7365 -3.21284e-16)
(49.9234 13.695 0)
(49.911 13.6554 -8.67799e-18)
(49.898 13.6178 -1.0724e-16)
(49.8845 13.582 2.2705e-16)
(49.8706 13.548 0)
(49.8564 13.516 -1.93847e-16)
(49.842 13.4857 3.53561e-16)
(49.8276 13.4573 1.9199e-16)
(49.8134 13.4307 7.63167e-19)
(49.7999 13.406 -1.58894e-16)
(49.7863 13.3834 -2.58599e-16)
(49.7725 13.3635 1.5373e-17)
(49.7664 13.343 0)
(49.7606 13.3221 0)
(50.0152 14.479 5.90716e-17)
(50.0171 14.4058 -3.67771e-18)
(50.0175 14.3355 0)
(50.0165 14.2681 -9.19359e-17)
(50.0141 14.2034 0)
(50.0104 14.1415 0)
(50.0054 14.0821 7.38954e-17)
(49.9993 14.0252 8.3593e-18)
(49.9921 13.9708 0)
(49.9839 13.9187 0)
(49.9748 13.8688 -1.20297e-16)
(49.9647 13.8212 1.1785e-17)
(49.9538 13.7756 1.79504e-16)
(49.9421 13.7322 6.66627e-18)
(49.9297 13.6907 9.05956e-18)
(49.9167 13.6513 0)
(49.9032 13.6137 1.26375e-16)
(49.8891 13.5781 -1.13482e-16)
(49.8747 13.5443 0)
(49.86 13.5124 1.91792e-16)
(49.8452 13.4823 -1.99045e-16)
(49.8303 13.4541 -1.96767e-16)
(49.8158 13.4278 0)
(49.8019 13.4034 -2.04104e-17)
(49.7879 13.3811 -1.60505e-17)
(49.7738 13.3616 0)
(49.7677 13.3415 2.51525e-16)
(49.7622 13.3207 0)
(50.0292 14.5511 8.5632e-18)
(50.0318 14.4747 -1.22197e-16)
(50.0329 14.4013 -1.2144e-16)
(50.0324 14.3309 1.01738e-16)
(50.0306 14.2635 9.66928e-17)
(50.0273 14.1988 0)
(50.0228 14.1368 -5.31941e-18)
(50.0171 14.0774 0)
(50.0103 14.0205 0)
(50.0024 13.966 8.20422e-18)
(49.9935 13.9139 1.46228e-17)
(49.9836 13.8641 -2.5806e-18)
(49.9729 13.8165 1.26087e-17)
(49.9613 13.771 -1.88205e-16)
(49.949 13.7277 1.62371e-16)
(49.9361 13.6863 1.42393e-16)
(49.9225 13.6469 -1.39278e-16)
(49.9083 13.6095 -1.41201e-16)
(49.8938 13.574 1.02137e-16)
(49.8788 13.5404 1.366e-17)
(49.8636 13.5086 2.44865e-17)
(49.8484 13.4788 -1.70662e-16)
(49.8331 13.4508 1.7509e-16)
(49.8181 13.4248 -1.55454e-16)
(49.8039 13.4006 2.66903e-16)
(49.7896 13.3787 0)
(49.7751 13.3597 -1.52576e-17)
(49.769 13.3398 -2.3494e-16)
(49.7639 13.3192 -2.33295e-16)
(50.0434 14.6263 -8.10369e-17)
(50.0468 14.5465 6.59716e-17)
(50.0486 14.47 6.68637e-17)
(50.0487 14.3966 -3.3443e-18)
(50.0474 14.3261 -1.13561e-16)
(50.0447 14.2586 0)
(50.0406 14.1938 9.79686e-17)
(50.0353 14.1318 5.38416e-18)
(50.0288 14.0724 0)
(50.0213 14.0155 -8.56378e-18)
(50.0126 13.9611 -1.61438e-17)
(50.003 13.909 1.19517e-16)
(49.9925 13.8592 9.37194e-17)
(49.9811 13.8117 0)
(49.9689 13.7663 1.94981e-16)
(49.956 13.723 2.07802e-17)
(49.9424 13.6817 -1.50317e-16)
(49.9282 13.6425 1.54667e-16)
(49.9135 13.6052 1.27975e-16)
(49.8984 13.5698 9.11421e-17)
(49.8829 13.5364 -2.68831e-17)
(49.8673 13.5048 0)
(49.8515 13.4752 1.68793e-16)
(49.8358 13.4474 -9.50546e-19)
(49.8204 13.4217 1.72222e-16)
(49.8058 13.3978 2.21859e-18)
(49.7913 13.3762 2.84933e-16)
(49.7764 13.3577 2.45227e-16)
(49.7703 13.3381 -1.47453e-17)
(49.7656 13.3176 2.59659e-16)
(50.058 14.7048 -5.3218e-18)
(50.0621 14.6216 1.52497e-16)
(50.0646 14.5417 -7.38611e-17)
(50.0654 14.4651 -1.31348e-16)
(50.0646 14.3915 2.37841e-16)
(50.0624 14.321 7.04007e-18)
(50.0588 14.2534 0)
(50.0539 14.1886 -9.67326e-17)
(50.0478 14.1266 5.4472e-18)
(50.0406 14.0672 0)
(50.0322 14.0103 -1.35374e-16)
(50.0229 13.9559 -8.38877e-18)
(50.0125 13.9039 -1.17994e-16)
(50.0013 13.8541 1.10545e-16)
(49.9893 13.8067 -1.21776e-17)
(49.9764 13.7613 -1.92293e-16)
(49.9629 13.7181 0)
(49.9487 13.677 1.64927e-16)
(49.9339 13.6379 1.71182e-17)
(49.9187 13.6007 -2.41771e-16)
(49.903 13.5655 -2.19358e-16)
(49.887 13.5322 1.39074e-17)
(49.8709 13.5008 2.00716e-16)
(49.8547 13.4714 2.23673e-17)
(49.8385 13.4439 1.48341e-16)
(49.8227 13.4184 1.56811e-16)
(49.8078 13.3948 -1.4266e-16)
(49.793 13.3736 -2.82792e-16)
(49.7778 13.3556 -2.27851e-16)
(49.7716 13.3363 -1.58256e-17)
(49.7674 13.3159 2.3627e-16)
(33.1328 -3.03413 0)
(50.0727 14.7866 9.23229e-17)
(50.0777 14.6999 5.1194e-18)
(50.0809 14.6165 -1.50117e-16)
(50.0823 14.5366 6.7705e-17)
(50.0822 14.4598 2.70349e-16)
(50.0805 14.3862 -1.26337e-16)
(50.0774 14.3156 -1.19394e-16)
(50.073 14.248 0)
(50.0673 14.1832 -1.16894e-17)
(50.0603 14.1211 -1.73367e-16)
(50.0523 14.0617 0)
(50.0432 14.0049 1.50915e-16)
(50.0331 13.9505 -1.41749e-16)
(50.0221 13.8985 1.14231e-16)
(50.0102 13.8489 1.66531e-17)
(49.9974 13.8015 1.3005e-17)
(49.984 13.7562 1.86913e-16)
(49.9698 13.7131 -2.11935e-17)
(49.955 13.6721 1.31034e-17)
(49.9397 13.6331 -1.61467e-16)
(49.9238 13.5961 2.59802e-16)
(49.9076 13.561 -1.45171e-17)
(49.8911 13.5279 0)
(49.8745 13.4967 3.50039e-18)
(49.8578 13.4675 1.07154e-17)
(49.8412 13.4403 -1.68404e-16)
(49.825 13.4151 -3.32462e-16)
(49.8098 13.3918 -2.93387e-16)
(49.7946 13.3709 -1.71705e-17)
(49.7791 13.3533 -1.54503e-17)
(49.773 13.3344 2.40319e-16)
(49.7693 13.3141 -2.09669e-16)
(35.6425 -3.24687 0)
(33.6311 -3.00802 1.6699e-15)
(50.0877 14.8721 -1.01742e-16)
(50.0936 14.7816 -5.93056e-18)
(50.0975 14.6946 0)
(50.0996 14.6112 8.21113e-17)
(50.1001 14.5311 1.96558e-18)
(50.099 14.4543 -2.65568e-16)
(50.0964 14.3806 1.38914e-16)
(50.0925 14.31 1.03471e-16)
(50.0871 14.2423 6.2662e-18)
(50.0806 14.1775 9.55503e-17)
(50.0729 14.1154 1.82193e-16)
(50.0641 14.0561 0)
(50.0542 13.9992 -1.38161e-16)
(50.0434 13.9449 2.74296e-16)
(50.0316 13.893 -1.35335e-16)
(50.019 13.8434 -2.36594e-16)
(50.0056 13.7961 -2.06215e-16)
(49.9915 13.7509 -1.73425e-16)
(49.9767 13.7079 5.8932e-19)
(49.9613 13.667 2.21149e-17)
(49.9454 13.6281 1.41721e-16)
(49.929 13.5913 -1.29806e-16)
(49.9122 13.5564 0)
(49.8952 13.5234 0)
(49.8781 13.4925 -3.91858e-16)
(49.8609 13.4635 0)
(49.8439 13.4365 0)
(49.8273 13.4116 1.70604e-17)
(49.8117 13.3886 1.39518e-17)
(49.7963 13.3681 -1.7261e-17)
(49.7804 13.351 -2.47832e-16)
(49.7743 13.3324 -2.38555e-16)
(49.7712 13.3121 2.47443e-17)
(37.5357 -3.40617 0)
(36.1507 -3.21778 -1.13374e-20)
(34.1289 -2.97788 5.53701e-21)
(50.103 14.9612 6.10033e-17)
(50.1097 14.8668 6.48488e-18)
(50.1144 14.7761 0)
(50.1173 14.689 0)
(50.1185 14.6055 5.10053e-18)
(50.118 14.5253 -7.20889e-17)
(50.1159 14.4484 -2.02885e-17)
(50.1124 14.3747 -1.14359e-16)
(50.1075 14.304 0)
(50.1013 14.2364 -9.85905e-17)
(50.0939 14.1715 -3.2266e-18)
(50.0854 14.1095 0)
(50.0758 14.0501 1.72407e-16)
(50.0652 13.9934 -3.26317e-18)
(50.0536 13.9391 -1.32942e-16)
(50.0411 13.8872 -1.2433e-16)
(50.0278 13.8377 1.11392e-16)
(50.0138 13.7905 2.03861e-16)
(49.999 13.7454 1.66718e-16)
(49.9836 13.7026 -1.74064e-16)
(49.9676 13.6618 -1.562e-16)
(49.9511 13.623 -1.85619e-17)
(49.9341 13.5863 0)
(49.9168 13.5516 0)
(49.8993 13.5189 0)
(49.8817 13.4881 2.0195e-16)
(49.864 13.4593 0)
(49.8466 13.4326 0)
(49.8296 13.408 1.8089e-17)
(49.8137 13.3853 1.42014e-17)
(49.798 13.3651 0)
(49.7817 13.3486 4.94522e-16)
(49.7756 13.3303 2.98609e-17)
(49.7732 13.31 2.47255e-17)
(38.9183 -3.51863 0)
(38.0599 -3.37464 -3.54127e-16)
(36.6607 -3.18438 4.94729e-16)
(34.6314 -2.9437 -1.76542e-15)
(50.1186 15.0541 5.75287e-17)
(50.1262 14.9557 -1.16411e-16)
(50.1318 14.8611 2.05568e-16)
(50.1354 14.7703 -9.60658e-17)
(50.1372 14.6831 -9.37825e-17)
(50.1373 14.5995 0)
(50.1358 14.5192 9.00636e-18)
(50.1328 14.4422 1.3415e-16)
(50.1284 14.3685 1.26316e-16)
(50.1226 14.2978 -6.97752e-18)
(50.1155 14.2301 9.74691e-17)
(50.1073 14.1653 -9.52708e-17)
(50.0979 14.1033 -1.07573e-17)
(50.0875 14.044 -3.13296e-16)
(50.0762 13.9873 1.46614e-16)
(50.0638 13.9331 0)
(50.0507 13.8813 1.3885e-16)
(50.0367 13.8318 -1.46152e-17)
(50.0219 13.7847 2.60209e-17)
(50.0065 13.7398 -3.80175e-16)
(49.9905 13.697 1.7222e-16)
(49.9739 13.6564 1.93722e-17)
(49.9567 13.6178 1.87155e-17)
(49.9392 13.5812 -2.68734e-16)
(49.9214 13.5467 1.56763e-17)
(49.9034 13.5141 2.39757e-16)
(49.8852 13.4836 -2.06684e-16)
(49.8671 13.455 0)
(49.8492 13.4286 -1.95542e-16)
(49.8318 13.4042 3.18867e-16)
(49.8156 13.3819 -3.6554e-18)
(49.7997 13.3621 -1.74247e-17)
(49.7831 13.3461 -2.77914e-16)
(49.777 13.3281 -2.99217e-17)
(49.7752 13.3078 -2.88604e-17)
(40.0668 -3.60798 0)
(39.4551 -3.4853 0)
(38.5867 -3.33891 3.65236e-16)
(37.1761 -3.14667 1.91986e-20)
(35.136 -2.9041 0)
(50.1344 15.1511 2.28094e-18)
(50.143 15.0484 1.76624e-18)
(50.1494 14.9498 1.1488e-16)
(50.1538 14.8551 -1.02645e-16)
(50.1564 14.7641 8.84641e-17)
(50.1571 14.6768 8.71556e-17)
(50.1562 14.5931 0)
(50.1537 14.5128 0)
(50.1497 14.4358 -1.47811e-16)
(50.1443 14.362 -2.52174e-16)
(50.1377 14.2913 0)
(50.1297 14.2236 -1.14186e-16)
(50.1207 14.1589 1.25133e-17)
(50.1105 14.0969 1.69458e-16)
(50.0993 14.0376 1.61619e-16)
(50.0871 13.9809 0)
(50.0741 13.9268 1.21646e-16)
(50.0602 13.8751 1.52526e-17)
(50.0455 13.8258 -2.3067e-16)
(50.0301 13.7787 0)
(50.014 13.7339 3.83424e-16)
(49.9973 13.6913 -1.12769e-17)
(49.9801 13.6508 -4.01566e-17)
(49.9624 13.6123 -1.29112e-16)
(49.9443 13.576 -3.67013e-18)
(49.926 13.5416 -1.49854e-17)
(49.9074 13.5092 -2.23389e-16)
(49.8888 13.4789 2.18155e-16)
(49.8702 13.4506 1.90919e-16)
(49.8519 13.4244 -2.47113e-17)
(49.8341 13.4004 2.04236e-18)
(49.8175 13.3783 3.13087e-16)
(49.8014 13.3589 -1.7498e-17)
(49.7844 13.3434 6.32649e-17)
(49.7783 13.3258 3.1294e-17)
(49.7773 13.3054 2.42567e-16)
(41.0863 -3.68446 0)
(40.6154 -3.57342 0)
(39.9947 -3.44776 -5.52597e-16)
(39.117 -3.29779 3.76341e-16)
(37.6905 -3.10388 0)
(35.644 -2.85987 -1.86029e-15)
(50.1505 15.2521 -1.44838e-16)
(50.1601 15.1451 7.03798e-17)
(50.1674 15.0423 -1.9038e-16)
(50.1727 14.9435 0)
(50.176 14.8487 -3.38358e-19)
(50.1774 14.7576 0)
(50.1771 14.6702 0)
(50.1751 14.5864 0)
(50.1716 14.506 -1.4364e-16)
(50.1667 14.429 -3.28866e-18)
(50.1603 14.3552 1.17702e-16)
(50.1527 14.2845 7.11947e-18)
(50.1439 14.2169 9.2924e-17)
(50.134 14.1521 -1.98612e-16)
(50.123 14.0902 -1.78096e-16)
(50.111 14.031 -1.66568e-16)
(50.0981 13.9744 0)
(50.0843 13.9203 -1.27846e-16)
(50.0697 13.8687 -1.42978e-16)
(50.0543 13.8195 4.7714e-16)
(50.0382 13.7726 2.13362e-16)
(50.0215 13.7279 1.53161e-17)
(50.0042 13.6854 2.15243e-17)
(49.9863 13.645 -1.96868e-17)
(49.9681 13.6067 1.28556e-16)
(49.9494 13.5705 5.40953e-16)
(49.9305 13.5363 -2.4955e-16)
(49.9114 13.5042 -1.38308e-17)
(49.8923 13.4741 0)
(49.8733 13.446 5.04266e-17)
(49.8545 13.4201 1.73986e-16)
(49.8363 13.3964 -1.80712e-16)
(49.8194 13.3746 1.82607e-17)
(49.803 13.3556 2.43071e-16)
(49.7857 13.3407 -2.49978e-16)
(49.7797 13.3234 0)
(49.7795 13.3029 -5.38242e-16)
(42.0309 -3.75298 0)
(41.6466 -3.64886 0)
(41.1671 -3.53436 1.98064e-20)
(40.538 -3.40469 -2.84918e-16)
(39.6498 -3.25226 0)
(38.2131 -3.05584 5.37125e-16)
(36.157 -2.81112 0)
(50.1668 15.3575 -8.55065e-17)
(50.1775 15.246 1.42513e-16)
(50.1858 15.1388 0)
(50.192 15.0358 1.23641e-16)
(50.196 14.9368 -3.68329e-19)
(50.1982 14.8418 0)
(50.1985 14.7507 9.93248e-17)
(50.1971 14.6632 0)
(50.1941 14.5793 0)
(50.1895 14.4989 3.05063e-16)
(50.1836 14.4219 2.88735e-16)
(50.1763 14.3481 8.26148e-18)
(50.1678 14.2774 7.57996e-18)
(50.1581 14.2098 1.09331e-16)
(50.1473 14.1451 1.96153e-16)
(50.1355 14.0832 -1.71811e-16)
(50.1227 14.0241 1.64608e-16)
(50.109 13.9676 -9.2684e-18)
(50.0945 13.9136 -1.22717e-16)
(50.0791 13.8621 1.27064e-16)
(50.063 13.813 -2.30854e-16)
(50.0463 13.7662 3.88784e-18)
(50.0289 13.7216 -1.9308e-16)
(50.011 13.6793 -1.14552e-17)
(49.9925 13.6391 2.09452e-17)
(49.9737 13.601 -1.50147e-16)
(49.9545 13.5649 -2.70261e-16)
(49.935 13.5309 -3.84664e-18)
(49.9154 13.499 0)
(49.8958 13.4691 -2.5531e-17)
(49.8764 13.4413 -1.90534e-16)
(49.8572 13.4157 4.41044e-17)
(49.8385 13.3922 1.42028e-16)
(49.8213 13.3708 3.19784e-16)
(49.8047 13.3521 -2.74656e-16)
(49.787 13.3378 2.484e-16)
(49.781 13.3208 6.15002e-17)
(49.7817 13.3001 2.71188e-16)
(42.9318 -3.81636 1.4736e-16)
(42.6032 -3.71653 0)
(42.2104 -3.60863 1.94376e-16)
(41.7227 -3.48976 4.66637e-16)
(41.0852 -3.35689 0)
(40.1884 -3.20093 -3.98459e-16)
(38.7391 -3.00272 5.5119e-16)
(36.6741 -2.7562 0)
(50.1835 15.4673 -1.74115e-16)
(50.1953 15.3511 -2.30225e-18)
(50.2046 15.2394 -7.3394e-17)
(50.2116 15.132 -4.40935e-18)
(50.2165 15.0288 1.36221e-16)
(50.2194 14.9297 0)
(50.2204 14.8346 -6.91191e-18)
(50.2196 14.7434 -2.04609e-16)
(50.2171 14.6558 0)
(50.213 14.5719 -1.07653e-17)
(50.2075 14.4915 -1.52252e-16)
(50.2005 14.4144 -2.9146e-16)
(50.1923 14.3407 -1.3077e-16)
(50.1829 14.27 -1.20304e-16)
(50.1723 14.2025 -3.42545e-16)
(50.1607 14.1378 -2.50343e-17)
(50.148 14.076 -3.68916e-18)
(50.1344 14.0169 1.58559e-16)
(50.1199 13.9605 -1.73642e-16)
(50.1046 13.9067 1.21983e-16)
(50.0886 13.8553 0)
(50.0718 13.8063 0)
(50.0544 13.7596 -2.12836e-16)
(50.0363 13.7152 2.45787e-17)
(50.0178 13.673 -2.0283e-16)
(49.9987 13.633 0)
(49.9793 13.595 1.48788e-16)
(49.9595 13.5592 -2.94092e-16)
(49.9395 13.5254 2.49091e-16)
(49.9194 13.4937 0)
(49.8993 13.464 0)
(49.8794 13.4365 -4.83103e-17)
(49.8598 13.4111 2.16316e-17)
(49.8407 13.388 -3.65786e-16)
(49.8232 13.3669 -1.61583e-17)
(49.8064 13.3485 -2.60439e-16)
(49.7884 13.3348 -2.81841e-16)
(49.7823 13.3182 -3.15473e-17)
(49.7839 13.2973 2.16445e-16)
(43.8085 -3.87625 -1.55254e-20)
(43.5164 -3.77912 0)
(43.1794 -3.6753 0)
(42.7787 -3.5628 -2.0094e-16)
(42.2832 -3.44047 0)
(41.6377 -3.30304 3.02308e-16)
(40.7319 -3.14432 -8.19145e-16)
(39.2698 -2.94313 0)
(37.1999 -2.69643 0)
(50.2004 15.5818 -2.61536e-19)
(50.2133 15.4607 8.69441e-17)
(50.2238 15.3443 8.04174e-17)
(50.2318 15.2323 8.09414e-17)
(50.2375 15.1248 0)
(50.2412 15.0214 -1.26586e-16)
(50.2428 14.9222 7.20798e-18)
(50.2426 14.827 6.63655e-18)
(50.2407 14.7357 9.89296e-17)
(50.2371 14.6481 1.12293e-17)
(50.2319 14.5641 -1.08671e-17)
(50.2254 14.4837 -9.98342e-18)
(50.2175 14.4067 1.41622e-16)
(50.2083 14.3329 1.29531e-16)
(50.1979 14.2624 1.33441e-16)
(50.1865 14.1948 8.91254e-18)
(50.174 14.1303 0)
(50.1605 14.0685 3.80579e-16)
(50.1461 14.0096 -1.67423e-16)
(50.1308 13.9533 1.5324e-16)
(50.1148 13.8995 0)
(50.098 13.8482 -2.61166e-16)
(50.0805 13.7994 1.52196e-17)
(50.0624 13.7529 -2.70885e-17)
(50.0437 13.7086 0)
(50.0245 13.6665 3.61508e-16)
(50.0049 13.6267 -2.12483e-17)
(49.9849 13.5889 -1.33794e-16)
(49.9645 13.5532 2.74102e-16)
(49.944 13.5197 -2.38178e-16)
(49.9234 13.4882 0)
(49.9028 13.4587 -1.87169e-16)
(49.8824 13.4314 0)
(49.8623 13.4063 -1.07723e-18)
(49.8429 13.3835 -1.24842e-16)
(49.8251 13.3628 -3.18201e-16)
(49.808 13.3448 2.76431e-16)
(49.7897 13.3316 4.99671e-16)
(49.7836 13.3154 6.16358e-17)
(49.7862 13.2942 2.22334e-18)
(44.6736 -3.93378 -1.61051e-20)
(44.4057 -3.83834 0)
(44.1055 -3.73707 0)
(43.7606 -3.62845 1.794e-16)
(43.3523 -3.51207 0)
(42.8493 -3.38471 0)
(42.1957 -3.24398 3.10709e-20)
(41.2809 -3.08129 1.25845e-20)
(39.8085 -2.87898 0)
(37.7278 -2.62917 3.39587e-20)
(50.2176 15.701 5.45644e-17)
(50.2318 15.5749 -3.44531e-18)
(50.2433 15.4536 5.72633e-18)
(50.2523 15.3369 -5.29254e-18)
(50.259 15.2248 -7.51967e-17)
(50.2634 15.1171 0)
(50.2658 15.0136 8.31518e-18)
(50.2662 14.9143 0)
(50.2649 14.819 0)
(50.2618 14.7276 6.48893e-18)
(50.2571 14.64 1.9933e-16)
(50.2509 14.556 -1.62274e-16)
(50.2433 14.4756 -1.68106e-16)
(50.2344 14.3986 0)
(50.2243 14.3249 0)
(50.213 14.2544 -1.37853e-16)
(50.2006 14.1869 2.33949e-16)
(50.1872 14.1224 1.30631e-17)
(50.1729 14.0608 3.54726e-18)
(50.1577 14.0019 1.71954e-16)
(50.1417 13.9457 0)
(50.1249 13.8921 1.83347e-17)
(50.1074 13.841 2.59379e-16)
(50.0892 13.7923 -2.25929e-16)
(50.0704 13.7459 0)
(50.0511 13.7018 0)
(50.0313 13.6599 -1.81809e-16)
(50.011 13.6202 0)
(49.9904 13.5826 1.50895e-16)
(49.9695 13.5471 -1.69373e-17)
(49.9484 13.5138 2.52384e-16)
(49.9273 13.4825 0)
(49.9062 13.4533 2.11425e-16)
(49.8854 13.4263 1.94843e-16)
(49.8649 13.4015 -4.47363e-17)
(49.8451 13.379 3.46958e-16)
(49.8269 13.3585 0)
(49.8097 13.3409 -3.55629e-17)
(49.791 13.3283 -2.80583e-16)
(49.7849 13.3125 0)
(49.7886 13.2909 -2.4508e-16)
(45.5361 -3.98967 -1.69065e-20)
(45.284 -3.89524 0)
(45.0081 -3.79552 0)
(44.7002 -3.68924 -2.05768e-20)
(44.348 -3.57649 0)
(43.9322 -3.45493 0)
(43.4215 -3.3238 2.55657e-16)
(42.76 -3.17838 0)
(41.837 -3.01269 4.31814e-16)
(40.3499 -2.80806 1.18698e-15)
(38.2643 -2.55719 0)
(50.2351 15.8253 0)
(50.2505 15.694 6.45075e-18)
(50.2632 15.5676 -2.0147e-16)
(50.2733 15.446 5.51652e-18)
(50.2809 15.3291 0)
(50.2862 15.2168 -7.80116e-17)
(50.2894 15.1089 -8.66975e-18)
(50.2905 15.0053 8.39959e-18)
(50.2897 14.9059 0)
(50.2871 14.8105 -1.38876e-17)
(50.2829 14.7191 0)
(50.2771 14.6315 -3.75131e-16)
(50.2698 14.5476 1.70446e-16)
(50.2612 14.4672 1.66669e-16)
(50.2513 14.3902 0)
(50.2402 14.3165 2.47795e-17)
(50.228 14.2461 -1.72844e-17)
(50.2147 14.1787 1.9782e-16)
(50.2005 14.1143 0)
(50.1853 14.0528 1.55301e-17)
(50.1693 13.994 -1.5905e-16)
(50.1525 13.938 1.06027e-18)
(50.135 13.8845 -1.74948e-17)
(50.1167 13.8335 0)
(50.0979 13.7849 2.38109e-16)
(50.0784 13.7387 0)
(50.0584 13.6948 -2.03505e-16)
(50.038 13.6531 0)
(50.0171 13.6135 -1.68704e-16)
(49.9959 13.5761 -3.08257e-16)
(49.9745 13.5409 0)
(49.9528 13.5077 -1.64322e-17)
(49.9312 13.4766 -2.35297e-16)
(49.9096 13.4477 -1.89091e-16)
(49.8883 13.4209 -1.70817e-16)
(49.8674 13.3964 -2.19102e-17)
(49.8472 13.3742 -3.5137e-16)
(49.8288 13.3541 3.4124e-16)
(49.8113 13.3369 0)
(49.7923 13.3249 2.50625e-16)
(49.7862 13.3094 2.99807e-17)
(49.791 13.2874 -2.41705e-17)
(46.4024 -4.04437 -1.78375e-20)
(46.1601 -3.9505 0)
(45.9003 -3.8517 0)
(45.6169 -3.74681 -3.08e-16)
(45.3016 -3.63624 0)
(44.9421 -3.51807 0)
(44.5189 -3.39235 0)
(44.0006 -3.25594 0)
(43.3318 -3.10697 -3.67369e-20)
(42.3997 -2.93777 -8.86004e-16)
(40.9043 -2.73079 0)
(38.8097 -2.47774 -2.14381e-15)
(50.2528 15.9547 6.14421e-17)
(50.2697 15.818 3.70257e-18)
(50.2836 15.6863 0)
(50.2948 15.5597 1.97822e-16)
(50.3034 15.4378 9.84407e-17)
(50.3096 15.3208 -5.41093e-18)
(50.3135 15.2083 7.68752e-17)
(50.3154 15.1003 1.45689e-16)
(50.3152 14.9966 8.48116e-18)
(50.3132 14.8971 1.38333e-16)
(50.3094 14.8017 1.13221e-16)
(50.304 14.7103 0)
(50.2971 14.6226 3.78378e-16)
(50.2887 14.5387 -2.1749e-17)
(50.2791 14.4584 1.61126e-16)
(50.2682 14.3815 1.48258e-16)
(50.2561 14.3079 0)
(50.243 14.2375 3.8512e-16)
(50.2288 14.1702 -2.2323e-16)
(50.2137 14.1059 -1.25745e-17)
(50.1977 14.0445 -1.9873e-16)
(50.1809 13.9859 -2.10645e-17)
(50.1633 13.93 0)
(50.145 13.8766 -1.27267e-16)
(50.126 13.8258 0)
(50.1065 13.7774 0)
(50.0863 13.7313 2.691e-17)
(50.0657 13.6875 2.28565e-17)
(50.0446 13.646 2.37226e-17)
(50.0232 13.6067 1.67295e-16)
(50.0014 13.5695 -4.33404e-18)
(49.9794 13.5344 1.71437e-17)
(49.9572 13.5015 1.65278e-17)
(49.9351 13.4706 4.7012e-16)
(49.913 13.442 2.41332e-16)
(49.8913 13.4154 0)
(49.8699 13.3912 2.19922e-17)
(49.8494 13.3693 3.28328e-16)
(49.8306 13.3496 -3.02417e-16)
(49.8129 13.3327 2.80329e-16)
(49.7936 13.3213 -2.80638e-16)
(49.7874 13.3062 2.6966e-16)
(49.7935 13.2837 0)
(47.2771 -4.09827 -1.90824e-20)
(47.0404 -4.00465 1.26551e-16)
(46.7906 -3.90626 0)
(46.5236 -3.80213 1.46453e-16)
(46.233 -3.69282 0)
(45.9105 -3.57665 -1.76382e-16)
(45.5438 -3.45401 0)
(45.1132 -3.32271 0)
(44.5879 -3.18229 -2.70862e-16)
(43.9118 -3.02882 3.94502e-20)
(42.9726 -2.85565 0)
(41.4646 -2.64633 5.85422e-20)
(39.3644 -2.39193 -1.09596e-15)
(50.2708 16.0895 -4.3656e-18)
(50.2891 15.9472 -3.85751e-18)
(50.3043 15.8101 0)
(50.3167 15.6781 0)
(50.3264 15.5512 -1.04832e-16)
(50.3335 15.4292 -8.55695e-17)
(50.3383 15.3119 -8.63066e-17)