/*--------------------------------*- C++ -*----------------------------------*\
  =========                 |
  \\      /  F ield         | OpenFOAM: The Open Source CFD Toolbox
   \\    /   O peration     | Website:  https://openfoam.org
    \\  /    A nd           | Version:  7
     \\/     M anipulation  |
\*---------------------------------------------------------------------------*/
FoamFile
{
    version     2.0;
    format      ascii;
    class       volScalarField;
    location    "1800";
    object      yPlus;
}
// * * * * * * * * * * * * * * * * * * * * * * * * * * * * * * * * * * * * * //

dimensions      [0 0 0 0 0 0 0];

internalField   uniform 0;

boundaryField
{
    inlet-l
    {
        type            calculated;
        value           nonuniform 0();
    }
    airfoil-l1
    {
        type            calculated;
        value           nonuniform 0();
    }
    empty-1
    {
        type            empty;
    }
    empty-2
    {
        type            empty;
    }
    wall-l1
    {
        type            calculated;
        value           nonuniform 0();
    }
    airfoil-l2
    {
        type            calculated;
        value           nonuniform 0();
    }
    empty-3
    {
        type            empty;
    }
    empty-4
    {
        type            empty;
    }
    wall-l2
    {
        type            calculated;
        value           nonuniform 0();
    }
    outlet-l
    {
        type            calculated;
        value           nonuniform 0();
    }
    empty-5
    {
        type            empty;
    }
    empty-6
    {
        type            empty;
    }
    outlet-h
    {
        type            calculated;
        value           nonuniform 0();
    }
    wall-h2
    {
        type            calculated;
        value           nonuniform 0();
    }
    empty-7
    {
        type            empty;
    }
    empty-8
    {
        type            empty;
    }
    airfoil-h2
    {
        type            calculated;
        value           nonuniform List<scalar> 
33
(
31.1528
30.7825
30.4515
30.1423
29.8419
29.5551
29.287
29.0304
28.7807
28.5374
28.3046
28.0822
27.8631
27.6498
27.4416
27.2381
27.041
26.8476
26.652
26.4617
26.2766
26.0908
25.9069
25.7268
25.5466
25.3657
25.1877
25.0084
24.8316
24.6527
24.4732
24.2961
24.1155
)
;
    }
    wall-h1
    {
        type            calculated;
        value           nonuniform List<scalar> 
33
(
144.517
144.546
144.492
144.455
144.433
144.414
144.391
144.369
144.345
144.324
144.303
144.285
144.264
144.25
144.232
144.216
144.196
144.186
144.167
144.155
144.138
144.129
144.116
144.1
144.095
144.08
144.074
144.062
144.049
144.047
144.033
144.03
144.022
)
;
    }
    empty-9
    {
        type            empty;
    }
    empty-10
    {
        type            empty;
    }
    inlet-h
    {
        type            calculated;
        value           uniform 0;
    }
    airfoil-h1
    {
        type            calculated;
        value           nonuniform List<scalar> 
91
(
26.6097
26.3498
26.1187
25.9266
25.7613
25.612
25.4774
25.3649
25.2822
25.2196
25.1615
25.1338
25.1227
25.1145
25.1126
25.1206
25.1414
25.1709
25.2104
25.2497
25.3031
25.3652
25.4373
25.5113
25.5894
25.672
25.763
25.8547
25.9574
26.0592
26.1663
26.2723
26.3797
26.5004
26.618
26.7328
26.8538
26.9751
27.0976
27.2264
27.3546
27.4818
27.6053
27.7325
27.862
27.9911
28.1146
28.2444
28.3709
28.4981
28.6308
28.7542
28.8728
29.0022
29.1247
29.2403
29.3572
29.4801
29.5979
29.7117
29.8211
29.9311
30.042
30.1393
30.2421
30.3424
30.4372
30.5269
30.6166
30.7022
30.7894
30.8657
30.9379
31.0088
31.0835
31.1457
31.2041
31.2517
31.3002
31.3413
31.3771
31.411
31.4363
31.4554
31.4678
31.4792
31.4727
31.4623
31.4471
31.4199
31.383
)
;
    }
    empty-11
    {
        type            empty;
    }
    empty-12
    {
        type            empty;
    }
    procBoundary3to0
    {
        type            processor;
        value           uniform 0;
    }
    procBoundary3to2
    {
        type            processor;
        value           uniform 0;
    }
}


// ************************************************************************* //
