/*--------------------------------*- C++ -*----------------------------------*\
  =========                 |
  \\      /  F ield         | OpenFOAM: The Open Source CFD Toolbox
   \\    /   O peration     | Website:  https://openfoam.org
    \\  /    A nd           | Version:  7
     \\/     M anipulation  |
\*---------------------------------------------------------------------------*/
FoamFile
{
    version     2.0;
    format      ascii;
    class       volScalarField;
    location    "800";
    object      nut;
}
// * * * * * * * * * * * * * * * * * * * * * * * * * * * * * * * * * * * * * //

dimensions      [0 2 -1 0 0 0 0];

internalField   nonuniform List<scalar> 
23064
(
5.20717e-06
5.20834e-06
5.20717e-06
5.20945e-06
5.20833e-06
5.20717e-06
5.21053e-06
5.20945e-06
5.20833e-06
5.20716e-06
5.21157e-06
5.21052e-06
5.20944e-06
5.20832e-06
5.20716e-06
5.21257e-06
5.21156e-06
5.21051e-06
5.20943e-06
5.20832e-06
5.20716e-06
5.21354e-06
5.21256e-06
5.21155e-06
5.2105e-06
5.20942e-06
5.20831e-06
5.20716e-06
5.21446e-06
5.21353e-06
5.21255e-06
5.21154e-06
5.21049e-06
5.20941e-06
5.2083e-06
5.20716e-06
5.21535e-06
5.21445e-06
5.21352e-06
5.21254e-06
5.21153e-06
5.21048e-06
5.2094e-06
5.2083e-06
5.20716e-06
5.21619e-06
5.21534e-06
5.21444e-06
5.2135e-06
5.21253e-06
5.21151e-06
5.21047e-06
5.20939e-06
5.20829e-06
5.20715e-06
5.217e-06
5.21619e-06
5.21533e-06
5.21443e-06
5.21349e-06
5.21251e-06
5.2115e-06
5.21045e-06
5.20938e-06
5.20828e-06
5.20715e-06
5.21778e-06
5.217e-06
5.21618e-06
5.21532e-06
5.21442e-06
5.21348e-06
5.2125e-06
5.21149e-06
5.21044e-06
5.20937e-06
5.20827e-06
5.20715e-06
5.21851e-06
5.21777e-06
5.21699e-06
5.21617e-06
5.21531e-06
5.21441e-06
5.21347e-06
5.21249e-06
5.21147e-06
5.21042e-06
5.20936e-06
5.20827e-06
5.20715e-06
5.21921e-06
5.21851e-06
5.21777e-06
5.21699e-06
5.21617e-06
5.2153e-06
5.2144e-06
5.21346e-06
5.21247e-06
5.21145e-06
5.21041e-06
5.20934e-06
5.20826e-06
5.20714e-06
5.21988e-06
5.21921e-06
5.21851e-06
5.21777e-06
5.21698e-06
5.21616e-06
5.21529e-06
5.21439e-06
5.21344e-06
5.21246e-06
5.21144e-06
5.21039e-06
5.20933e-06
5.20825e-06
5.20714e-06
5.22051e-06
5.21988e-06
5.21921e-06
5.21851e-06
5.21776e-06
5.21698e-06
5.21615e-06
5.21528e-06
5.21438e-06
5.21343e-06
5.21244e-06
5.21142e-06
5.21038e-06
5.20931e-06
5.20824e-06
5.20714e-06
5.22111e-06
5.22051e-06
5.21988e-06
5.21921e-06
5.2185e-06
5.21776e-06
5.21697e-06
5.21614e-06
5.21527e-06
5.21436e-06
5.21341e-06
5.21242e-06
5.2114e-06
5.21036e-06
5.2093e-06
5.20823e-06
5.20713e-06
5.22168e-06
5.22111e-06
5.22051e-06
5.21988e-06
5.21921e-06
5.2185e-06
5.21775e-06
5.21696e-06
5.21613e-06
5.21526e-06
5.21435e-06
5.21339e-06
5.2124e-06
5.21138e-06
5.21034e-06
5.20928e-06
5.20821e-06
5.20713e-06
5.22222e-06
5.22169e-06
5.22112e-06
5.22052e-06
5.21988e-06
5.21921e-06
5.2185e-06
5.21775e-06
5.21696e-06
5.21612e-06
5.21525e-06
5.21433e-06
5.21338e-06
5.21239e-06
5.21136e-06
5.21032e-06
5.20926e-06
5.2082e-06
5.20712e-06
5.22274e-06
5.22223e-06
5.22169e-06
5.22112e-06
5.22052e-06
5.21988e-06
5.21921e-06
5.21849e-06
5.21774e-06
5.21695e-06
5.21611e-06
5.21524e-06
5.21432e-06
5.21336e-06
5.21237e-06
5.21134e-06
5.2103e-06
5.20925e-06
5.20819e-06
5.20712e-06
5.22323e-06
5.22275e-06
5.22224e-06
5.2217e-06
5.22112e-06
5.22052e-06
5.21988e-06
5.2192e-06
5.21849e-06
5.21774e-06
5.21694e-06
5.2161e-06
5.21522e-06
5.2143e-06
5.21334e-06
5.21235e-06
5.21132e-06
5.21028e-06
5.20923e-06
5.20817e-06
5.20712e-06
5.22369e-06
5.22323e-06
5.22275e-06
5.22224e-06
5.2217e-06
5.22113e-06
5.22052e-06
5.21988e-06
5.2192e-06
5.21849e-06
5.21773e-06
5.21693e-06
5.21609e-06
5.21521e-06
5.21428e-06
5.21332e-06
5.21232e-06
5.2113e-06
5.21025e-06
5.20921e-06
5.20816e-06
5.20711e-06
5.22413e-06
5.2237e-06
5.22324e-06
5.22276e-06
5.22225e-06
5.2217e-06
5.22113e-06
5.22052e-06
5.21988e-06
5.2192e-06
5.21848e-06
5.21772e-06
5.21692e-06
5.21608e-06
5.21519e-06
5.21427e-06
5.2133e-06
5.2123e-06
5.21127e-06
5.21023e-06
5.20918e-06
5.20814e-06
5.2071e-06
5.22454e-06
5.22414e-06
5.22371e-06
5.22325e-06
5.22276e-06
5.22225e-06
5.22171e-06
5.22113e-06
5.22053e-06
5.21988e-06
5.2192e-06
5.21848e-06
5.21772e-06
5.21691e-06
5.21607e-06
5.21518e-06
5.21425e-06
5.21328e-06
5.21228e-06
5.21125e-06
5.2102e-06
5.20916e-06
5.20813e-06
5.2071e-06
5.22494e-06
5.22455e-06
5.22415e-06
5.22371e-06
5.22326e-06
5.22277e-06
5.22226e-06
5.22171e-06
5.22114e-06
5.22053e-06
5.21988e-06
5.2192e-06
5.21847e-06
5.21771e-06
5.2169e-06
5.21605e-06
5.21516e-06
5.21423e-06
5.21326e-06
5.21225e-06
5.21122e-06
5.21018e-06
5.20914e-06
5.20811e-06
5.20709e-06
5.22531e-06
5.22495e-06
5.22456e-06
5.22415e-06
5.22372e-06
5.22326e-06
5.22278e-06
5.22226e-06
5.22172e-06
5.22114e-06
5.22053e-06
5.21988e-06
5.21919e-06
5.21847e-06
5.2177e-06
5.21689e-06
5.21604e-06
5.21514e-06
5.21421e-06
5.21323e-06
5.21223e-06
5.21119e-06
5.21015e-06
5.20911e-06
5.20809e-06
5.20708e-06
5.22567e-06
5.22532e-06
5.22496e-06
5.22457e-06
5.22416e-06
5.22373e-06
5.22327e-06
5.22278e-06
5.22227e-06
5.22172e-06
5.22114e-06
5.22053e-06
5.21988e-06
5.21919e-06
5.21846e-06
5.21769e-06
5.21688e-06
5.21602e-06
5.21513e-06
5.21419e-06
5.21321e-06
5.2122e-06
5.21116e-06
5.21012e-06
5.20908e-06
5.20807e-06
5.20708e-06
5.226e-06
5.22568e-06
5.22533e-06
5.22497e-06
5.22458e-06
5.22417e-06
5.22374e-06
5.22328e-06
5.22279e-06
5.22227e-06
5.22173e-06
5.22115e-06
5.22053e-06
5.21988e-06
5.21919e-06
5.21846e-06
5.21768e-06
5.21687e-06
5.21601e-06
5.21511e-06
5.21416e-06
5.21318e-06
5.21217e-06
5.21113e-06
5.21009e-06
5.20905e-06
5.20805e-06
5.20707e-06
5.22632e-06
5.22601e-06
5.22569e-06
5.22534e-06
5.22498e-06
5.22459e-06
5.22418e-06
5.22375e-06
5.22329e-06
5.2228e-06
5.22228e-06
5.22173e-06
5.22115e-06
5.22053e-06
5.21988e-06
5.21918e-06
5.21845e-06
5.21768e-06
5.21686e-06
5.21599e-06
5.21509e-06
5.21414e-06
5.21316e-06
5.21214e-06
5.2111e-06
5.21005e-06
5.20902e-06
5.20802e-06
5.20706e-06
5.22662e-06
5.22633e-06
5.22602e-06
5.2257e-06
5.22535e-06
5.22499e-06
5.2246e-06
5.22419e-06
5.22375e-06
5.22329e-06
5.2228e-06
5.22229e-06
5.22173e-06
5.22115e-06
5.22053e-06
5.21988e-06
5.21918e-06
5.21844e-06
5.21767e-06
5.21684e-06
5.21598e-06
5.21507e-06
5.21412e-06
5.21313e-06
5.21211e-06
5.21106e-06
5.21002e-06
5.20899e-06
5.208e-06
5.20705e-06
5.22691e-06
5.22663e-06
5.22634e-06
5.22604e-06
5.22571e-06
5.22536e-06
5.225e-06
5.22461e-06
5.2242e-06
5.22376e-06
5.2233e-06
5.22281e-06
5.22229e-06
5.22174e-06
5.22115e-06
5.22053e-06
5.21987e-06
5.21918e-06
5.21844e-06
5.21766e-06
5.21683e-06
5.21596e-06
5.21505e-06
5.21409e-06
5.2131e-06
5.21207e-06
5.21103e-06
5.20998e-06
5.20895e-06
5.20797e-06
5.20704e-06
0.000152037
5.22718e-06
5.22692e-06
5.22665e-06
5.22636e-06
5.22605e-06
5.22572e-06
5.22537e-06
5.22501e-06
5.22462e-06
5.22421e-06
5.22377e-06
5.22331e-06
5.22282e-06
5.2223e-06
5.22174e-06
5.22116e-06
5.22053e-06
5.21987e-06
5.21917e-06
5.21843e-06
5.21765e-06
5.21682e-06
5.21594e-06
5.21503e-06
5.21407e-06
5.21307e-06
5.21204e-06
5.21099e-06
5.20994e-06
5.20892e-06
5.20794e-06
5.20703e-06
0.000245572
0.000156418
5.22744e-06
5.22719e-06
5.22693e-06
5.22666e-06
5.22637e-06
5.22606e-06
5.22573e-06
5.22539e-06
5.22502e-06
5.22463e-06
5.22422e-06
5.22378e-06
5.22332e-06
5.22282e-06
5.2223e-06
5.22175e-06
5.22116e-06
5.22053e-06
5.21987e-06
5.21917e-06
5.21842e-06
5.21764e-06
5.2168e-06
5.21593e-06
5.215e-06
5.21404e-06
5.21303e-06
5.212e-06
5.21095e-06
5.2099e-06
5.20888e-06
5.20791e-06
5.20701e-06
0.000477313
0.000247668
0.000160863
5.22769e-06
5.22745e-06
5.22721e-06
5.22695e-06
5.22667e-06
5.22638e-06
5.22607e-06
5.22574e-06
5.2254e-06
5.22503e-06
5.22464e-06
5.22423e-06
5.22379e-06
5.22333e-06
5.22283e-06
5.22231e-06
5.22175e-06
5.22116e-06
5.22054e-06
5.21987e-06
5.21916e-06
5.21842e-06
5.21763e-06
5.21679e-06
5.21591e-06
5.21498e-06
5.21401e-06
5.213e-06
5.21196e-06
5.21091e-06
5.20985e-06
5.20884e-06
5.20788e-06
5.207e-06
0.000725051
0.000480938
0.000249801
0.000165442
5.22792e-06
5.2277e-06
5.22747e-06
5.22722e-06
5.22696e-06
5.22668e-06
5.22639e-06
5.22608e-06
5.22576e-06
5.22541e-06
5.22504e-06
5.22465e-06
5.22424e-06
5.2238e-06
5.22333e-06
5.22284e-06
5.22231e-06
5.22176e-06
5.22116e-06
5.22054e-06
5.21987e-06
5.21916e-06
5.21841e-06
5.21761e-06
5.21677e-06
5.21589e-06
5.21496e-06
5.21398e-06
5.21297e-06
5.21192e-06
5.21086e-06
5.20981e-06
5.20879e-06
5.20784e-06
5.20699e-06
0.000986597
0.000730324
0.00048464
0.000251941
0.000170145
5.22814e-06
5.22793e-06
5.22771e-06
5.22748e-06
5.22723e-06
5.22697e-06
5.2267e-06
5.2264e-06
5.2261e-06
5.22577e-06
5.22542e-06
5.22505e-06
5.22466e-06
5.22425e-06
5.22381e-06
5.22334e-06
5.22285e-06
5.22232e-06
5.22176e-06
5.22117e-06
5.22054e-06
5.21987e-06
5.21916e-06
5.2184e-06
5.2176e-06
5.21676e-06
5.21587e-06
5.21493e-06
5.21395e-06
5.21293e-06
5.21188e-06
5.21081e-06
5.20976e-06
5.20875e-06
5.20781e-06
5.20697e-06
0.0012509
0.000993703
0.00073562
0.000488305
0.000254192
0.000174949
5.22835e-06
5.22816e-06
5.22795e-06
5.22773e-06
5.22749e-06
5.22725e-06
5.22699e-06
5.22671e-06
5.22642e-06
5.22611e-06
5.22578e-06
5.22543e-06
5.22506e-06
5.22467e-06
5.22426e-06
5.22382e-06
5.22335e-06
5.22285e-06
5.22233e-06
5.22177e-06
5.22117e-06
5.22054e-06
5.21986e-06
5.21915e-06
5.21839e-06
5.21759e-06
5.21674e-06
5.21585e-06
5.2149e-06
5.21392e-06
5.21289e-06
5.21183e-06
5.21076e-06
5.20971e-06
5.2087e-06
5.20777e-06
5.20695e-06
0.00151071
0.00125983
0.0010008
0.000740968
0.000492096
0.000256489
0.000179922
5.22856e-06
5.22837e-06
5.22817e-06
5.22796e-06
5.22774e-06
5.22751e-06
5.22726e-06
5.227e-06
5.22672e-06
5.22643e-06
5.22612e-06
5.22579e-06
5.22545e-06
5.22508e-06
5.22469e-06
5.22427e-06
5.22383e-06
5.22336e-06
5.22286e-06
5.22233e-06
5.22177e-06
5.22117e-06
5.22054e-06
5.21986e-06
5.21915e-06
5.21839e-06
5.21758e-06
5.21673e-06
5.21583e-06
5.21488e-06
5.21388e-06
5.21285e-06
5.21179e-06
5.21071e-06
5.20965e-06
5.20864e-06
5.20772e-06
5.20693e-06
0.00176216
0.00152123
0.00126863
0.00100786
0.000746375
0.000495865
0.000258845
0.000185027
5.22875e-06
5.22857e-06
5.22838e-06
5.22818e-06
5.22798e-06
5.22775e-06
5.22752e-06
5.22727e-06
5.22701e-06
5.22674e-06
5.22645e-06
5.22614e-06
5.22581e-06
5.22546e-06
5.22509e-06
5.2247e-06
5.22428e-06
5.22384e-06
5.22337e-06
5.22287e-06
5.22234e-06
5.22178e-06
5.22118e-06
5.22054e-06
5.21986e-06
5.21914e-06
5.21838e-06
5.21757e-06
5.21671e-06
5.2158e-06
5.21485e-06
5.21385e-06
5.21281e-06
5.21174e-06
5.21066e-06
5.20959e-06
5.20859e-06
5.20768e-06
5.20691e-06
0.00200354
0.00177392
0.00153146
0.0012773
0.00101493
0.000751718
0.000499809
0.000261304
0.000190314
5.22894e-06
5.22877e-06
5.22859e-06
5.2284e-06
5.2282e-06
5.22799e-06
5.22777e-06
5.22754e-06
5.22729e-06
5.22703e-06
5.22675e-06
5.22646e-06
5.22615e-06
5.22582e-06
5.22547e-06
5.2251e-06
5.22471e-06
5.22429e-06
5.22385e-06
5.22338e-06
5.22288e-06
5.22235e-06
5.22178e-06
5.22118e-06
5.22054e-06
5.21986e-06
5.21914e-06
5.21837e-06
5.21755e-06
5.21669e-06
5.21578e-06
5.21482e-06
5.21381e-06
5.21277e-06
5.21169e-06
5.2106e-06
5.20953e-06
5.20853e-06
5.20763e-06
5.20689e-06
0.00223426
0.00201618
0.00178521
0.00154139
0.00128583
0.00102192
0.000757204
0.000503806
0.000263761
0.000195763
5.22911e-06
5.22895e-06
5.22878e-06
5.2286e-06
5.22841e-06
5.22822e-06
5.22801e-06
5.22778e-06
5.22755e-06
5.2273e-06
5.22704e-06
5.22677e-06
5.22647e-06
5.22616e-06
5.22583e-06
5.22549e-06
5.22512e-06
5.22472e-06
5.2243e-06
5.22386e-06
5.22339e-06
5.22289e-06
5.22235e-06
5.22179e-06
5.22118e-06
5.22054e-06
5.21986e-06
5.21913e-06
5.21836e-06
5.21754e-06
5.21667e-06
5.21576e-06
5.21479e-06
5.21377e-06
5.21272e-06
5.21164e-06
5.21054e-06
5.20947e-06
5.20846e-06
5.20758e-06
5.20687e-06
0.00245412
0.00224738
0.00202813
0.00179601
0.00155101
0.00129413
0.00102891
0.000762748
0.000507876
0.000266426
0.00020137
5.22928e-06
5.22913e-06
5.22897e-06
5.2288e-06
5.22862e-06
5.22843e-06
5.22823e-06
5.22802e-06
5.2278e-06
5.22757e-06
5.22732e-06
5.22706e-06
5.22678e-06
5.22649e-06
5.22618e-06
5.22585e-06
5.2255e-06
5.22513e-06
5.22473e-06
5.22432e-06
5.22387e-06
5.2234e-06
5.2229e-06
5.22236e-06
5.22179e-06
5.22119e-06
5.22054e-06
5.21986e-06
5.21913e-06
5.21835e-06
5.21753e-06
5.21665e-06
5.21573e-06
5.21476e-06
5.21374e-06
5.21267e-06
5.21158e-06
5.21048e-06
5.2094e-06
5.20839e-06
5.20752e-06
5.20684e-06
0.00266301
0.00246731
0.00225959
0.00203937
0.00180625
0.0015602
0.0013023
0.00103587
0.000768412
0.000512203
0.000269133
0.000207207
5.22945e-06
5.2293e-06
5.22915e-06
5.22898e-06
5.22881e-06
5.22863e-06
5.22845e-06
5.22825e-06
5.22804e-06
5.22782e-06
5.22758e-06
5.22734e-06
5.22707e-06
5.2268e-06
5.2265e-06
5.22619e-06
5.22586e-06
5.22551e-06
5.22514e-06
5.22475e-06
5.22433e-06
5.22388e-06
5.22341e-06
5.2229e-06
5.22237e-06
5.2218e-06
5.22119e-06
5.22054e-06
5.21985e-06
5.21912e-06
5.21834e-06
5.21751e-06
5.21663e-06
5.2157e-06
5.21472e-06
5.21369e-06
5.21262e-06
5.21152e-06
5.21041e-06
5.20933e-06
5.20832e-06
5.20746e-06
5.20681e-06
0.00286079
0.00267586
0.00247935
0.00227084
0.00204978
0.00181584
0.00156903
0.00131024
0.00104286
0.00077427
0.000516562
0.000272015
0.000213245
5.22961e-06
5.22947e-06
5.22932e-06
5.22916e-06
5.229e-06
5.22883e-06
5.22865e-06
5.22846e-06
5.22826e-06
5.22806e-06
5.22783e-06
5.2276e-06
5.22735e-06
5.22709e-06
5.22681e-06
5.22652e-06
5.22621e-06
5.22588e-06
5.22553e-06
5.22516e-06
5.22476e-06
5.22434e-06
5.22389e-06
5.22342e-06
5.22291e-06
5.22238e-06
5.2218e-06
5.22119e-06
5.22054e-06
5.21985e-06
5.21911e-06
5.21833e-06
5.2175e-06
5.21662e-06
5.21568e-06
5.21469e-06
5.21365e-06
5.21257e-06
5.21146e-06
5.21034e-06
5.20925e-06
5.20825e-06
5.20739e-06
5.20678e-06
0.00304714
0.00287281
0.00268727
0.00249014
0.00228097
0.0020593
0.00182483
0.00157738
0.00131802
0.00104989
0.000780153
0.000521194
0.000275057
0.000219456
5.22976e-06
5.22963e-06
5.22948e-06
5.22934e-06
5.22918e-06
5.22902e-06
5.22885e-06
5.22867e-06
5.22848e-06
5.22828e-06
5.22807e-06
5.22785e-06
5.22762e-06
5.22737e-06
5.22711e-06
5.22683e-06
5.22654e-06
5.22623e-06
5.22589e-06
5.22554e-06
5.22517e-06
5.22478e-06
5.22435e-06
5.22391e-06
5.22343e-06
5.22292e-06
5.22238e-06
5.22181e-06
5.2212e-06
5.22054e-06
5.21985e-06
5.21911e-06
5.21832e-06
5.21748e-06
5.21659e-06
5.21565e-06
5.21465e-06
5.21361e-06
5.21252e-06
5.2114e-06
5.21027e-06
5.20917e-06
5.20817e-06
5.20732e-06
5.20675e-06
0.00322161
0.0030578
0.00288307
0.00269711
0.00249954
0.00228992
0.00206791
0.00183301
0.00158533
0.00132561
0.00105689
0.000786336
0.000526089
0.000278257
0.000225919
5.22991e-06
5.22978e-06
5.22964e-06
5.2295e-06
5.22935e-06
5.2292e-06
5.22904e-06
5.22887e-06
5.22869e-06
5.2285e-06
5.2283e-06
5.22809e-06
5.22787e-06
5.22764e-06
5.22739e-06
5.22713e-06
5.22685e-06
5.22655e-06
5.22624e-06
5.22591e-06
5.22556e-06
5.22519e-06
5.22479e-06
5.22437e-06
5.22392e-06
5.22344e-06
5.22293e-06
5.22239e-06
5.22182e-06
5.2212e-06
5.22055e-06
5.21985e-06
5.2191e-06
5.21831e-06
5.21747e-06
5.21657e-06
5.21562e-06
5.21462e-06
5.21356e-06
5.21246e-06
5.21133e-06
5.21019e-06
5.20909e-06
5.20808e-06
5.20725e-06
5.20671e-06
0.00338359
0.00323031
0.00306636
0.00289144
0.00270524
0.00250741
0.00229764
0.0020754
0.0018405
0.00159276
0.00133295
0.001064
0.000792753
0.000531223
0.000281621
0.000232633
5.23006e-06
5.22993e-06
5.2298e-06
5.22966e-06
5.22952e-06
5.22937e-06
5.22922e-06
5.22906e-06
5.22889e-06
5.22871e-06
5.22852e-06
5.22832e-06
5.22811e-06
5.22789e-06
5.22765e-06
5.22741e-06
5.22714e-06
5.22687e-06
5.22657e-06
5.22626e-06
5.22593e-06
5.22558e-06
5.2252e-06
5.2248e-06
5.22438e-06
5.22393e-06
5.22345e-06
5.22294e-06
5.2224e-06
5.22182e-06
5.22121e-06
5.22055e-06
5.21985e-06
5.2191e-06
5.2183e-06
5.21745e-06
5.21655e-06
5.21559e-06
5.21458e-06
5.21352e-06
5.2124e-06
5.21126e-06
5.21011e-06
5.209e-06
5.20799e-06
5.20717e-06
5.20667e-06
0.00353227
0.00338969
0.00323656
0.00307266
0.00289773
0.00271149
0.0025137
0.00230389
0.00208182
0.00184712
0.00159962
0.00134012
0.00107117
0.000799359
0.000536593
0.000285198
0.000239501
5.2302e-06
5.23008e-06
5.22995e-06
5.22982e-06
5.22968e-06
5.22954e-06
5.22939e-06
5.22924e-06
5.22908e-06
5.22891e-06
5.22873e-06
5.22854e-06
5.22834e-06
5.22813e-06
5.22791e-06
5.22767e-06
5.22742e-06
5.22716e-06
5.22688e-06
5.22659e-06
5.22628e-06
5.22594e-06
5.22559e-06
5.22522e-06
5.22482e-06
5.2244e-06
5.22395e-06
5.22347e-06
5.22295e-06
5.22241e-06
5.22183e-06
5.22121e-06
5.22055e-06
5.21985e-06
5.21909e-06
5.21829e-06
5.21744e-06
5.21653e-06
5.21556e-06
5.21454e-06
5.21347e-06
5.21234e-06
5.21119e-06
5.21002e-06
5.2089e-06
5.20789e-06
5.20708e-06
5.20663e-06
0.00366664
0.00353505
0.00339294
0.00324015
0.00307649
0.00290176
0.00271576
0.00251813
0.00230869
0.00208702
0.0018528
0.00160596
0.00134702
0.00107836
0.000806277
0.000542493
0.000288984
0.000246601
5.23034e-06
5.23022e-06
5.2301e-06
5.22997e-06
5.22984e-06
5.2297e-06
5.22956e-06
5.22942e-06
5.22926e-06
5.2291e-06
5.22893e-06
5.22875e-06
5.22856e-06
5.22836e-06
5.22815e-06
5.22793e-06
5.22769e-06
5.22744e-06
5.22718e-06
5.2269e-06
5.22661e-06
5.22629e-06
5.22596e-06
5.22561e-06
5.22523e-06
5.22484e-06
5.22441e-06
5.22396e-06
5.22348e-06
5.22297e-06
5.22242e-06
5.22184e-06
5.22122e-06
5.22055e-06
5.21984e-06
5.21909e-06
5.21828e-06
5.21742e-06
5.21651e-06
5.21553e-06
5.2145e-06
5.21342e-06
5.21228e-06
5.21111e-06
5.20993e-06
5.2088e-06
5.20779e-06
5.20699e-06
5.20662e-06
0.00378545
0.0036653
0.00353454
0.00339309
0.00324084
0.00307764
0.00290339
0.00271779
0.00252073
0.00231185
0.00209087
0.00185752
0.00161163
0.00135361
0.00108567
0.000813626
0.000548616
0.000292982
0.000253976
5.23047e-06
5.23036e-06
5.23024e-06
5.23012e-06
5.22999e-06
5.22986e-06
5.22973e-06
5.22959e-06
5.22944e-06
5.22928e-06
5.22912e-06
5.22895e-06
5.22877e-06
5.22858e-06
5.22838e-06
5.22817e-06
5.22795e-06
5.22771e-06
5.22746e-06
5.2272e-06
5.22692e-06
5.22663e-06
5.22631e-06
5.22598e-06
5.22563e-06
5.22525e-06
5.22485e-06
5.22443e-06
5.22397e-06
5.22349e-06
5.22298e-06
5.22243e-06
5.22185e-06
5.22122e-06
5.22056e-06
5.21984e-06
5.21908e-06
5.21827e-06
5.21741e-06
5.21649e-06
5.2155e-06
5.21446e-06
5.21336e-06
5.21222e-06
5.21103e-06
5.20984e-06
5.20869e-06
5.20767e-06
5.2069e-06
5.20663e-06
0.00388723
0.00377911
0.00366018
0.00353043
0.00338986
0.00323837
0.00307592
0.00290234
0.00271751
0.00252124
0.00231323
0.0020933
0.00186115
0.00161656
0.00135995
0.00109308
0.000821155
0.00055503
0.000297245
0.000261593
5.23061e-06
5.2305e-06
5.23038e-06
5.23027e-06
5.23014e-06
5.23002e-06
5.22989e-06
5.22975e-06
5.22961e-06
5.22946e-06
5.2293e-06
5.22914e-06
5.22897e-06
5.22879e-06
5.2286e-06
5.2284e-06
5.22819e-06
5.22797e-06
5.22773e-06
5.22748e-06
5.22722e-06
5.22694e-06
5.22665e-06
5.22633e-06
5.226e-06
5.22564e-06
5.22527e-06
5.22487e-06
5.22444e-06
5.22399e-06
5.2235e-06
5.22299e-06
5.22244e-06
5.22185e-06
5.22123e-06
5.22056e-06
5.21984e-06
5.21908e-06
5.21826e-06
5.21739e-06
5.21646e-06
5.21547e-06
5.21442e-06
5.21331e-06
5.21215e-06
5.21095e-06
5.20974e-06
5.20858e-06
5.20756e-06
5.20685e-06
5.20667e-06
0.00397022
0.00387489
0.00376843
0.00365093
0.00352245
0.00338299
0.00323254
0.00307107
0.00289848
0.00271468
0.00251947
0.00231272
0.00209419
0.00186358
0.00162078
0.00136593
0.0011004
0.000828951
0.000561937
0.000301753
0.00026946
5.23074e-06
5.23063e-06
5.23052e-06
5.23041e-06
5.23029e-06
5.23017e-06
5.23004e-06
5.22991e-06
5.22977e-06
5.22963e-06
5.22948e-06
5.22933e-06
5.22916e-06
5.22899e-06
5.22881e-06
5.22862e-06
5.22842e-06
5.22821e-06
5.22799e-06
5.22775e-06
5.22751e-06
5.22724e-06
5.22696e-06
5.22667e-06
5.22635e-06
5.22602e-06
5.22566e-06
5.22529e-06
5.22488e-06
5.22446e-06
5.224e-06
5.22352e-06
5.223e-06
5.22245e-06
5.22186e-06
5.22123e-06
5.22056e-06
5.21984e-06
5.21908e-06
5.21825e-06
5.21738e-06
5.21644e-06
5.21544e-06
5.21438e-06
5.21325e-06
5.21208e-06
5.21086e-06
5.20964e-06
5.20847e-06
5.20744e-06
5.20683e-06
5.20672e-06
0.00403236
0.00395079
0.00385763
0.00375307
0.00363725
0.00351026
0.00337219
0.00322306
0.00306286
0.00289155
0.00270906
0.00251531
0.00231016
0.00209337
0.00186478
0.00162413
0.00137137
0.00110766
0.000837106
0.00056921
0.000306527
0.000277581
5.23087e-06
5.23077e-06
5.23066e-06
5.23055e-06
5.23043e-06
5.23031e-06
5.23019e-06
5.23007e-06
5.22993e-06
5.2298e-06
5.22966e-06
5.22951e-06
5.22935e-06
5.22919e-06
5.22902e-06
5.22884e-06
5.22865e-06
5.22845e-06
5.22824e-06
5.22801e-06
5.22778e-06
5.22753e-06
5.22726e-06
5.22698e-06
5.22669e-06
5.22637e-06
5.22604e-06
5.22568e-06
5.2253e-06
5.2249e-06
5.22447e-06
5.22402e-06
5.22353e-06
5.22302e-06
5.22246e-06
5.22187e-06
5.22124e-06
5.22057e-06
5.21984e-06
5.21907e-06
5.21825e-06
5.21736e-06
5.21641e-06
5.21541e-06
5.21433e-06
5.2132e-06
5.21201e-06
5.21078e-06
5.20953e-06
5.20834e-06
5.20732e-06
5.20685e-06
5.20679e-06
0.00407129
0.00400464
0.00392579
0.00383505
0.00373264
0.00361876
0.00349356
0.00335716
0.00320963
0.003051
0.00288128
0.00270046
0.00250853
0.00230533
0.00209076
0.00186457
0.00162643
0.00137629
0.00111488
0.000845466
0.000576851
0.000311573
0.000285923
5.231e-06
5.2309e-06
5.23079e-06
5.23069e-06
5.23057e-06
5.23046e-06
5.23034e-06
5.23022e-06
5.23009e-06
5.22996e-06
5.22982e-06
5.22968e-06
5.22953e-06
5.22938e-06
5.22921e-06
5.22904e-06
5.22886e-06
5.22867e-06
5.22847e-06
5.22826e-06
5.22804e-06
5.2278e-06
5.22755e-06
5.22728e-06
5.227e-06
5.22671e-06
5.22639e-06
5.22606e-06
5.2257e-06
5.22532e-06
5.22492e-06
5.22449e-06
5.22404e-06
5.22355e-06
5.22303e-06
5.22248e-06
5.22188e-06
5.22125e-06
5.22057e-06
5.21984e-06
5.21907e-06
5.21824e-06
5.21734e-06
5.21639e-06
5.21537e-06
5.21429e-06
5.21314e-06
5.21193e-06
5.21068e-06
5.20942e-06
5.20821e-06
5.20722e-06
5.2069e-06
5.20686e-06
0.00408428
0.00403393
0.00397063
0.00389478
0.00380673
0.00370676
0.0035951
0.00347198
0.00333754
0.00319192
0.00303519
0.00286741
0.00268866
0.0024989
0.00229811
0.00208616
0.00186277
0.00162766
0.00138063
0.00112187
0.000854018
0.000584871
0.000316915
0.000294594
5.23113e-06
5.23103e-06
5.23093e-06
5.23082e-06
5.23071e-06
5.2306e-06
5.23049e-06
5.23037e-06
5.23025e-06
5.23012e-06
5.22999e-06
5.22985e-06
5.22971e-06
5.22956e-06
5.2294e-06
5.22924e-06
5.22907e-06
5.22889e-06
5.22869e-06
5.22849e-06
5.22828e-06
5.22806e-06
5.22782e-06
5.22757e-06
5.22731e-06
5.22703e-06
5.22673e-06
5.22641e-06
5.22608e-06
5.22572e-06
5.22534e-06
5.22494e-06
5.22451e-06
5.22405e-06
5.22356e-06
5.22304e-06
5.22249e-06
5.22189e-06
5.22126e-06
5.22058e-06
5.21985e-06
5.21906e-06
5.21823e-06
5.21733e-06
5.21637e-06
5.21534e-06
5.21424e-06
5.21308e-06
5.21185e-06
5.21059e-06
5.2093e-06
5.20807e-06
5.20714e-06
5.20698e-06
5.20695e-06
0.00406825
0.00403584
0.00398953
0.00392986
0.0038573
0.00377223
0.00367498
0.00356587
0.00344512
0.00331297
0.0031696
0.00301512
0.00284967
0.00267338
0.00248625
0.00228828
0.00207936
0.00185928
0.00162774
0.00138417
0.00112854
0.000862626
0.000593188
0.000322516
0.000303598
5.23126e-06
5.23117e-06
5.23106e-06
5.23096e-06
5.23085e-06
5.23074e-06
5.23063e-06
5.23052e-06
5.2304e-06
5.23027e-06
5.23015e-06
5.23001e-06
5.22988e-06
5.22973e-06
5.22959e-06
5.22943e-06
5.22926e-06
5.22909e-06
5.22891e-06
5.22872e-06
5.22852e-06
5.22831e-06
5.22808e-06
5.22785e-06
5.2276e-06
5.22733e-06
5.22705e-06
5.22675e-06
5.22644e-06
5.2261e-06
5.22574e-06
5.22536e-06
5.22496e-06
5.22453e-06
5.22407e-06
5.22358e-06
5.22306e-06
5.2225e-06
5.2219e-06
5.22127e-06
5.22058e-06
5.21985e-06
5.21906e-06
5.21822e-06
5.21731e-06
5.21634e-06
5.2153e-06
5.21419e-06
5.21302e-06
5.21177e-06
5.21049e-06
5.20918e-06
5.20793e-06
5.20709e-06
5.20709e-06
5.20705e-06
0.00401975
0.00400712
0.00397949
0.00393753
0.00388182
0.00381285
0.00373106
0.00363687
0.0035306
0.00341258
0.00328307
0.00314229
0.00299046
0.00282776
0.00265436
0.00247031
0.00227562
0.00207025
0.00185403
0.00162637
0.00138678
0.00113473
0.000871189
0.000601679
0.000328481
0.000312869
5.2314e-06
5.2313e-06
5.2312e-06
5.2311e-06
5.23099e-06
5.23088e-06
5.23077e-06
5.23066e-06
5.23055e-06
5.23043e-06
5.2303e-06
5.23018e-06
5.23004e-06
5.22991e-06
5.22976e-06
5.22961e-06
5.22946e-06
5.22929e-06
5.22912e-06
5.22894e-06
5.22875e-06
5.22855e-06
5.22833e-06
5.22811e-06
5.22787e-06
5.22762e-06
5.22736e-06
5.22707e-06
5.22678e-06
5.22646e-06
5.22612e-06
5.22577e-06
5.22539e-06
5.22498e-06
5.22455e-06
5.22409e-06
5.2236e-06
5.22308e-06
5.22252e-06
5.22192e-06
5.22127e-06
5.22059e-06
5.21985e-06
5.21906e-06
5.21821e-06
5.2173e-06
5.21632e-06
5.21527e-06
5.21415e-06
5.21295e-06
5.21169e-06
5.21038e-06
5.20905e-06
5.20779e-06
5.20709e-06
5.20723e-06
5.20716e-06
0.00393492
0.00394419
0.00393718
0.00391468
0.00387739
0.00382593
0.00376087
0.00368271
0.0035919
0.00348883
0.0033739
0.00324739
0.00310963
0.00296086
0.00280137
0.00263131
0.00245081
0.00225993
0.00205867
0.00184667
0.00162348
0.00138827
0.00114026
0.00087962
0.000610677
0.000334759
0.000322425
5.23153e-06
5.23143e-06
5.23133e-06
5.23123e-06
5.23113e-06
5.23102e-06
5.23092e-06
5.23081e-06
5.23069e-06
5.23058e-06
5.23046e-06
5.23033e-06
5.23021e-06
5.23007e-06
5.22994e-06
5.22979e-06
5.22964e-06
5.22948e-06
5.22932e-06
5.22915e-06
5.22896e-06
5.22877e-06
5.22857e-06
5.22836e-06
5.22813e-06
5.2279e-06
5.22765e-06
5.22738e-06
5.2271e-06
5.2268e-06
5.22648e-06
5.22615e-06
5.22579e-06
5.22541e-06
5.225e-06
5.22457e-06
5.22411e-06
5.22362e-06
5.22309e-06
5.22253e-06
5.22193e-06
5.22128e-06
5.22059e-06
5.21985e-06
5.21906e-06
5.2182e-06
5.21728e-06
5.21629e-06
5.21523e-06
5.2141e-06
5.21289e-06
5.21161e-06
5.21027e-06
5.20891e-06
5.20766e-06
5.20713e-06
5.20738e-06
5.20728e-06
0.00380956
0.00384308
0.00385885
0.0038578
0.00384075
0.00380846
0.0037616
0.0037008
0.00362661
0.00353954
0.00344007
0.00332859
0.00320551
0.00307119
0.00292597
0.00277013
0.00260392
0.00242751
0.00224102
0.00204429
0.00183709
0.0016188
0.00138849
0.00114505
0.000887938
0.00061979
0.000341406
0.000332377
5.23166e-06
5.23156e-06
5.23147e-06
5.23137e-06
5.23127e-06
5.23116e-06
5.23106e-06
5.23095e-06
5.23084e-06
5.23073e-06
5.23061e-06
5.23049e-06
5.23037e-06
5.23024e-06
5.2301e-06
5.22997e-06
5.22982e-06
5.22967e-06
5.22951e-06
5.22935e-06
5.22917e-06
5.22899e-06
5.2288e-06
5.2286e-06
5.22839e-06
5.22816e-06
5.22792e-06
5.22767e-06
5.22741e-06
5.22712e-06
5.22683e-06
5.22651e-06
5.22617e-06
5.22581e-06
5.22543e-06
5.22502e-06
5.22459e-06
5.22413e-06
5.22364e-06
5.22311e-06
5.22255e-06
5.22194e-06
5.2213e-06
5.2206e-06
5.21986e-06
5.21906e-06
5.21819e-06
5.21727e-06
5.21627e-06
5.2152e-06
5.21405e-06
5.21282e-06
5.21152e-06
5.21016e-06
5.20876e-06
5.20755e-06
5.20721e-06
5.20756e-06
5.20741e-06
0.0036391
0.00369946
0.00374042
0.00376306
0.00376829
0.00375704
0.0037301
0.0036882
0.00363202
0.00356217
0.00347924
0.00338374
0.00327616
0.00315695
0.00302656
0.00288537
0.00273372
0.00257191
0.00240017
0.00221854
0.00202696
0.00182505
0.00161218
0.00138729
0.00114895
0.00089576
0.000628994
0.000348455
0.000342855
5.23179e-06
5.2317e-06
5.2316e-06
5.2315e-06
5.2314e-06
5.2313e-06
5.2312e-06
5.23109e-06
5.23098e-06
5.23087e-06
5.23076e-06
5.23064e-06
5.23052e-06
5.2304e-06
5.23027e-06
5.23014e-06
5.23e-06
5.22985e-06
5.2297e-06
5.22954e-06
5.22938e-06
5.2292e-06
5.22902e-06
5.22883e-06
5.22863e-06
5.22841e-06
5.22819e-06
5.22795e-06
5.2277e-06
5.22743e-06
5.22715e-06
5.22685e-06
5.22653e-06
5.2262e-06
5.22584e-06
5.22545e-06
5.22505e-06
5.22461e-06
5.22415e-06
5.22366e-06
5.22313e-06
5.22256e-06
5.22196e-06
5.22131e-06
5.22061e-06
5.21986e-06
5.21906e-06
5.21819e-06
5.21725e-06
5.21624e-06
5.21516e-06
5.214e-06
5.21275e-06
5.21143e-06
5.21004e-06
5.20861e-06
5.20745e-06
5.20731e-06
5.20776e-06
5.20756e-06
0.00341871
0.00350869
0.00357747
0.00362623
0.00365604
0.00366793
0.00366283
0.0036416
0.00360503
0.00355385
0.00348875
0.00341037
0.00331929
0.00321607
0.00310124
0.00297529
0.00283866
0.00269177
0.00253496
0.00236842
0.00219228
0.00200638
0.00181035
0.00160345
0.0013845
0.00115167
0.00090298
0.000638099
0.000355929
0.000353774
5.23193e-06
5.23184e-06
5.23174e-06
5.23164e-06
5.23154e-06
5.23144e-06
5.23134e-06
5.23124e-06
5.23113e-06
5.23102e-06
5.23091e-06
5.23079e-06
5.23068e-06
5.23056e-06
5.23043e-06
5.2303e-06
5.23017e-06
5.23003e-06
5.22989e-06
5.22973e-06
5.22957e-06
5.22941e-06
5.22923e-06
5.22905e-06
5.22886e-06
5.22866e-06
5.22844e-06
5.22822e-06
5.22798e-06
5.22773e-06
5.22746e-06
5.22718e-06
5.22688e-06
5.22656e-06
5.22622e-06
5.22586e-06
5.22548e-06
5.22507e-06
5.22464e-06
5.22417e-06
5.22368e-06
5.22315e-06
5.22258e-06
5.22197e-06
5.22132e-06
5.22062e-06
5.21987e-06
5.21906e-06
5.21818e-06
5.21724e-06
5.21622e-06
5.21512e-06
5.21394e-06
5.21268e-06
5.21134e-06
5.20992e-06
5.20846e-06
5.20738e-06
5.20745e-06
5.20798e-06
5.20772e-06
0.00314337
0.00326591
0.00336529
0.00344281
0.00349969
0.00353704
0.00355594
0.00355735
0.00354221
0.00351136
0.0034656
0.00340569
0.00333231
0.00324613
0.00314779
0.00303786
0.00291691
0.00278544
0.00264393
0.00249269
0.00233199
0.00216192
0.00198231
0.00179274
0.00159238
0.0013798
0.00115301
0.000909358
0.000647272
0.00036394
0.000365128
5.23207e-06
5.23198e-06
5.23188e-06
5.23178e-06
5.23168e-06
5.23158e-06
5.23148e-06
5.23138e-06
5.23128e-06
5.23117e-06
5.23106e-06
5.23095e-06
5.23083e-06
5.23071e-06
5.23059e-06
5.23047e-06
5.23034e-06
5.2302e-06
5.23006e-06
5.22992e-06
5.22977e-06
5.22961e-06
5.22944e-06
5.22927e-06
5.22908e-06
5.22889e-06
5.22869e-06
5.22847e-06
5.22825e-06
5.22801e-06
5.22776e-06
5.22749e-06
5.22721e-06
5.22691e-06
5.22659e-06
5.22625e-06
5.22589e-06
5.2255e-06
5.2251e-06
5.22466e-06
5.2242e-06
5.2237e-06
5.22317e-06
5.2226e-06
5.22199e-06
5.22134e-06
5.22063e-06
5.21987e-06
5.21906e-06
5.21817e-06
5.21722e-06
5.21619e-06
5.21509e-06
5.21389e-06
5.21261e-06
5.21124e-06
5.20979e-06
5.20832e-06
5.20736e-06
5.20762e-06
5.20822e-06
5.2079e-06
0.00280805
0.00296613
0.00309902
0.00320809
0.00329467
0.00335999
0.00340522
0.00343148
0.00343979
0.00343114
0.00340644
0.00336655
0.00331228
0.00324441
0.00316366
0.00307073
0.00296629
0.00285095
0.00272528
0.00258975
0.00244475
0.00229054
0.00212718
0.00195446
0.00177195
0.00157862
0.00137299
0.00115275
0.000914939
0.000656371
0.000372509
0.000377316
5.23221e-06
5.23212e-06
5.23202e-06
5.23192e-06
5.23183e-06
5.23173e-06
5.23163e-06
5.23152e-06
5.23142e-06
5.23131e-06
5.23121e-06
5.2311e-06
5.23098e-06
5.23087e-06
5.23075e-06
5.23063e-06