/*--------------------------------*- C++ -*----------------------------------*\
  =========                 |
  \\      /  F ield         | OpenFOAM: The Open Source CFD Toolbox
   \\    /   O peration     | Website:  https://openfoam.org
    \\  /    A nd           | Version:  7
     \\/     M anipulation  |
\*---------------------------------------------------------------------------*/
FoamFile
{
    version     2.0;
    format      ascii;
    class       volScalarField;
    location    "800";
    object      nuTilda;
}
// * * * * * * * * * * * * * * * * * * * * * * * * * * * * * * * * * * * * * //

dimensions      [0 2 -1 0 0 0 0];

internalField   nonuniform List<scalar> 
23064
(
3.43221e-05
3.43243e-05
3.43221e-05
3.43264e-05
3.43243e-05
3.43221e-05
3.43284e-05
3.43264e-05
3.43243e-05
3.43221e-05
3.43303e-05
3.43284e-05
3.43263e-05
3.43243e-05
3.43221e-05
3.43322e-05
3.43303e-05
3.43283e-05
3.43263e-05
3.43243e-05
3.43221e-05
3.4334e-05
3.43322e-05
3.43303e-05
3.43283e-05
3.43263e-05
3.43242e-05
3.43221e-05
3.43357e-05
3.43339e-05
3.43321e-05
3.43302e-05
3.43283e-05
3.43263e-05
3.43242e-05
3.43221e-05
3.43373e-05
3.43357e-05
3.43339e-05
3.43321e-05
3.43302e-05
3.43283e-05
3.43263e-05
3.43242e-05
3.43221e-05
3.43389e-05
3.43373e-05
3.43356e-05
3.43339e-05
3.43321e-05
3.43302e-05
3.43283e-05
3.43263e-05
3.43242e-05
3.43221e-05
3.43404e-05
3.43389e-05
3.43373e-05
3.43356e-05
3.43339e-05
3.43321e-05
3.43302e-05
3.43282e-05
3.43262e-05
3.43242e-05
3.43221e-05
3.43418e-05
3.43404e-05
3.43389e-05
3.43373e-05
3.43356e-05
3.43339e-05
3.4332e-05
3.43302e-05
3.43282e-05
3.43262e-05
3.43242e-05
3.43221e-05
3.43432e-05
3.43418e-05
3.43404e-05
3.43389e-05
3.43373e-05
3.43356e-05
3.43338e-05
3.4332e-05
3.43301e-05
3.43282e-05
3.43262e-05
3.43242e-05
3.43221e-05
3.43445e-05
3.43432e-05
3.43418e-05
3.43404e-05
3.43389e-05
3.43373e-05
3.43356e-05
3.43338e-05
3.4332e-05
3.43301e-05
3.43281e-05
3.43262e-05
3.43241e-05
3.43221e-05
3.43457e-05
3.43445e-05
3.43432e-05
3.43418e-05
3.43404e-05
3.43388e-05
3.43372e-05
3.43355e-05
3.43338e-05
3.4332e-05
3.43301e-05
3.43281e-05
3.43261e-05
3.43241e-05
3.43221e-05
3.43469e-05
3.43458e-05
3.43445e-05
3.43432e-05
3.43418e-05
3.43404e-05
3.43388e-05
3.43372e-05
3.43355e-05
3.43338e-05
3.43319e-05
3.433e-05
3.43281e-05
3.43261e-05
3.43241e-05
3.43221e-05
3.4348e-05
3.43469e-05
3.43458e-05
3.43445e-05
3.43432e-05
3.43418e-05
3.43403e-05
3.43388e-05
3.43372e-05
3.43355e-05
3.43337e-05
3.43319e-05
3.433e-05
3.43281e-05
3.43261e-05
3.43241e-05
3.43221e-05
3.43491e-05
3.4348e-05
3.43469e-05
3.43458e-05
3.43445e-05
3.43432e-05
3.43418e-05
3.43403e-05
3.43388e-05
3.43372e-05
3.43355e-05
3.43337e-05
3.43319e-05
3.433e-05
3.4328e-05
3.43261e-05
3.43241e-05
3.4322e-05
3.43501e-05
3.43491e-05
3.43481e-05
3.43469e-05
3.43458e-05
3.43445e-05
3.43432e-05
3.43418e-05
3.43403e-05
3.43388e-05
3.43371e-05
3.43354e-05
3.43337e-05
3.43318e-05
3.43299e-05
3.4328e-05
3.4326e-05
3.4324e-05
3.4322e-05
3.43511e-05
3.43501e-05
3.43491e-05
3.43481e-05
3.43469e-05
3.43458e-05
3.43445e-05
3.43432e-05
3.43418e-05
3.43403e-05
3.43388e-05
3.43371e-05
3.43354e-05
3.43336e-05
3.43318e-05
3.43299e-05
3.43279e-05
3.4326e-05
3.4324e-05
3.4322e-05
3.4352e-05
3.43511e-05
3.43501e-05
3.43491e-05
3.43481e-05
3.43469e-05
3.43458e-05
3.43445e-05
3.43432e-05
3.43418e-05
3.43403e-05
3.43387e-05
3.43371e-05
3.43354e-05
3.43336e-05
3.43318e-05
3.43298e-05
3.43279e-05
3.43259e-05
3.4324e-05
3.4322e-05
3.43528e-05
3.4352e-05
3.43511e-05
3.43501e-05
3.43491e-05
3.43481e-05
3.43469e-05
3.43458e-05
3.43445e-05
3.43432e-05
3.43418e-05
3.43403e-05
3.43387e-05
3.43371e-05
3.43354e-05
3.43336e-05
3.43317e-05
3.43298e-05
3.43279e-05
3.43259e-05
3.4324e-05
3.4322e-05
3.43536e-05
3.43528e-05
3.4352e-05
3.43511e-05
3.43501e-05
3.43491e-05
3.43481e-05
3.4347e-05
3.43458e-05
3.43445e-05
3.43432e-05
3.43417e-05
3.43403e-05
3.43387e-05
3.4337e-05
3.43353e-05
3.43335e-05
3.43317e-05
3.43298e-05
3.43278e-05
3.43259e-05
3.43239e-05
3.4322e-05
3.43544e-05
3.43537e-05
3.43529e-05
3.4352e-05
3.43511e-05
3.43502e-05
3.43492e-05
3.43481e-05
3.4347e-05
3.43458e-05
3.43445e-05
3.43432e-05
3.43417e-05
3.43402e-05
3.43387e-05
3.4337e-05
3.43353e-05
3.43335e-05
3.43316e-05
3.43297e-05
3.43278e-05
3.43258e-05
3.43239e-05
3.4322e-05
3.43551e-05
3.43544e-05
3.43537e-05
3.43529e-05
3.4352e-05
3.43511e-05
3.43502e-05
3.43492e-05
3.43481e-05
3.4347e-05
3.43458e-05
3.43445e-05
3.43431e-05
3.43417e-05
3.43402e-05
3.43386e-05
3.4337e-05
3.43353e-05
3.43334e-05
3.43316e-05
3.43297e-05
3.43277e-05
3.43258e-05
3.43239e-05
3.4322e-05
3.43558e-05
3.43552e-05
3.43544e-05
3.43537e-05
3.43529e-05
3.4352e-05
3.43511e-05
3.43502e-05
3.43492e-05
3.43481e-05
3.4347e-05
3.43458e-05
3.43445e-05
3.43431e-05
3.43417e-05
3.43402e-05
3.43386e-05
3.4337e-05
3.43352e-05
3.43334e-05
3.43315e-05
3.43296e-05
3.43277e-05
3.43257e-05
3.43238e-05
3.4322e-05
3.43565e-05
3.43559e-05
3.43552e-05
3.43545e-05
3.43537e-05
3.43529e-05
3.43521e-05
3.43511e-05
3.43502e-05
3.43492e-05
3.43481e-05
3.4347e-05
3.43458e-05
3.43445e-05
3.43431e-05
3.43417e-05
3.43402e-05
3.43386e-05
3.43369e-05
3.43352e-05
3.43334e-05
3.43315e-05
3.43296e-05
3.43276e-05
3.43257e-05
3.43238e-05
3.4322e-05
3.43571e-05
3.43565e-05
3.43559e-05
3.43552e-05
3.43545e-05
3.43537e-05
3.43529e-05
3.43521e-05
3.43512e-05
3.43502e-05
3.43492e-05
3.43481e-05
3.4347e-05
3.43458e-05
3.43445e-05
3.43431e-05
3.43417e-05
3.43402e-05
3.43386e-05
3.43369e-05
3.43351e-05
3.43333e-05
3.43314e-05
3.43295e-05
3.43276e-05
3.43256e-05
3.43238e-05
3.43219e-05
3.43577e-05
3.43571e-05
3.43565e-05
3.43559e-05
3.43552e-05
3.43545e-05
3.43537e-05
3.43529e-05
3.43521e-05
3.43512e-05
3.43502e-05
3.43492e-05
3.43481e-05
3.4347e-05
3.43458e-05
3.43445e-05
3.43431e-05
3.43417e-05
3.43401e-05
3.43385e-05
3.43369e-05
3.43351e-05
3.43333e-05
3.43314e-05
3.43294e-05
3.43275e-05
3.43256e-05
3.43237e-05
3.43219e-05
3.43583e-05
3.43577e-05
3.43572e-05
3.43566e-05
3.43559e-05
3.43552e-05
3.43545e-05
3.43538e-05
3.43529e-05
3.43521e-05
3.43512e-05
3.43502e-05
3.43492e-05
3.43481e-05
3.4347e-05
3.43458e-05
3.43445e-05
3.43431e-05
3.43416e-05
3.43401e-05
3.43385e-05
3.43368e-05
3.4335e-05
3.43332e-05
3.43313e-05
3.43294e-05
3.43274e-05
3.43255e-05
3.43237e-05
3.43219e-05
3.43588e-05
3.43583e-05
3.43577e-05
3.43572e-05
3.43566e-05
3.43559e-05
3.43553e-05
3.43545e-05
3.43538e-05
3.4353e-05
3.43521e-05
3.43512e-05
3.43502e-05
3.43492e-05
3.43481e-05
3.4347e-05
3.43457e-05
3.43445e-05
3.43431e-05
3.43416e-05
3.43401e-05
3.43385e-05
3.43368e-05
3.4335e-05
3.43332e-05
3.43312e-05
3.43293e-05
3.43274e-05
3.43254e-05
3.43236e-05
3.43219e-05
0.000160331
3.43593e-05
3.43588e-05
3.43583e-05
3.43578e-05
3.43572e-05
3.43566e-05
3.4356e-05
3.43553e-05
3.43546e-05
3.43538e-05
3.4353e-05
3.43521e-05
3.43512e-05
3.43502e-05
3.43492e-05
3.43481e-05
3.4347e-05
3.43457e-05
3.43444e-05
3.43431e-05
3.43416e-05
3.43401e-05
3.43384e-05
3.43367e-05
3.4335e-05
3.43331e-05
3.43312e-05
3.43292e-05
3.43273e-05
3.43254e-05
3.43236e-05
3.43219e-05
0.000249156
0.000164347
3.43598e-05
3.43593e-05
3.43588e-05
3.43583e-05
3.43578e-05
3.43572e-05
3.43566e-05
3.4356e-05
3.43553e-05
3.43546e-05
3.43538e-05
3.4353e-05
3.43521e-05
3.43512e-05
3.43503e-05
3.43492e-05
3.43481e-05
3.4347e-05
3.43457e-05
3.43444e-05
3.43431e-05
3.43416e-05
3.434e-05
3.43384e-05
3.43367e-05
3.43349e-05
3.4333e-05
3.43311e-05
3.43292e-05
3.43272e-05
3.43253e-05
3.43235e-05
3.43218e-05
0.000478298
0.000251195
0.000168443
3.43602e-05
3.43598e-05
3.43593e-05
3.43589e-05
3.43584e-05
3.43578e-05
3.43572e-05
3.43566e-05
3.4356e-05
3.43553e-05
3.43546e-05
3.43538e-05
3.4353e-05
3.43522e-05
3.43512e-05
3.43503e-05
3.43492e-05
3.43481e-05
3.4347e-05
3.43457e-05
3.43444e-05
3.4343e-05
3.43416e-05
3.434e-05
3.43384e-05
3.43367e-05
3.43349e-05
3.4333e-05
3.4331e-05
3.43291e-05
3.43271e-05
3.43252e-05
3.43234e-05
3.43218e-05
0.000725481
0.000481909
0.000253273
0.000172682
3.43607e-05
3.43603e-05
3.43598e-05
3.43594e-05
3.43589e-05
3.43584e-05
3.43578e-05
3.43573e-05
3.43567e-05
3.4356e-05
3.43553e-05
3.43546e-05
3.43538e-05
3.4353e-05
3.43522e-05
3.43513e-05
3.43503e-05
3.43492e-05
3.43481e-05
3.4347e-05
3.43457e-05
3.43444e-05
3.4343e-05
3.43416e-05
3.434e-05
3.43383e-05
3.43366e-05
3.43348e-05
3.43329e-05
3.4331e-05
3.4329e-05
3.4327e-05
3.43251e-05
3.43234e-05
3.43218e-05
0.00098683
0.000730748
0.000485596
0.000255357
0.000177058
3.43611e-05
3.43607e-05
3.43603e-05
3.43598e-05
3.43594e-05
3.43589e-05
3.43584e-05
3.43579e-05
3.43573e-05
3.43567e-05
3.4356e-05
3.43554e-05
3.43546e-05
3.43539e-05
3.43531e-05
3.43522e-05
3.43513e-05
3.43503e-05
3.43493e-05
3.43482e-05
3.4347e-05
3.43457e-05
3.43444e-05
3.4343e-05
3.43415e-05
3.434e-05
3.43383e-05
3.43366e-05
3.43347e-05
3.43328e-05
3.43309e-05
3.43289e-05
3.43269e-05
3.43251e-05
3.43233e-05
3.43218e-05
0.00125104
0.000993933
0.000736038
0.000489247
0.000257551
0.000181548
3.43615e-05
3.43611e-05
3.43607e-05
3.43603e-05
3.43599e-05
3.43594e-05
3.43589e-05
3.43584e-05
3.43579e-05
3.43573e-05
3.43567e-05
3.43561e-05
3.43554e-05
3.43547e-05
3.43539e-05
3.43531e-05
3.43522e-05
3.43513e-05
3.43503e-05
3.43493e-05
3.43482e-05
3.4347e-05
3.43457e-05
3.43444e-05
3.4343e-05
3.43415e-05
3.43399e-05
3.43383e-05
3.43365e-05
3.43347e-05
3.43328e-05
3.43308e-05
3.43288e-05
3.43268e-05
3.4325e-05
3.43232e-05
3.43217e-05
0.00151081
0.00125997
0.00100102
0.000741379
0.000493024
0.000259792
0.000186216
3.43618e-05
3.43615e-05
3.43611e-05
3.43607e-05
3.43603e-05
3.43599e-05
3.43594e-05
3.4359e-05
3.43585e-05
3.43579e-05
3.43573e-05
3.43567e-05
3.43561e-05
3.43554e-05
3.43547e-05
3.43539e-05
3.43531e-05
3.43522e-05
3.43513e-05
3.43503e-05
3.43493e-05
3.43482e-05
3.4347e-05
3.43457e-05
3.43444e-05
3.4343e-05
3.43415e-05
3.43399e-05
3.43382e-05
3.43365e-05
3.43346e-05
3.43327e-05
3.43307e-05
3.43287e-05
3.43267e-05
3.43249e-05
3.43232e-05
3.43217e-05
0.00176223
0.00152133
0.00126877
0.00100809
0.00074678
0.000496779
0.000262091
0.000191026
3.43622e-05
3.43619e-05
3.43615e-05
3.43612e-05
3.43608e-05
3.43604e-05
3.43599e-05
3.43595e-05
3.4359e-05
3.43585e-05
3.43579e-05
3.43574e-05
3.43568e-05
3.43561e-05
3.43554e-05
3.43547e-05
3.43539e-05
3.43531e-05
3.43522e-05
3.43513e-05
3.43503e-05
3.43493e-05
3.43482e-05
3.4347e-05
3.43457e-05
3.43444e-05
3.4343e-05
3.43415e-05
3.43399e-05
3.43382e-05
3.43364e-05
3.43346e-05
3.43326e-05
3.43306e-05
3.43286e-05
3.43266e-05
3.43248e-05
3.43231e-05
3.43216e-05
0.0020036
0.001774
0.00153156
0.00127744
0.00101515
0.000752117
0.000500708
0.000264493
0.000196029
3.43625e-05
3.43622e-05
3.43619e-05
3.43615e-05
3.43612e-05
3.43608e-05
3.43604e-05
3.436e-05
3.43595e-05
3.4359e-05
3.43585e-05
3.4358e-05
3.43574e-05
3.43568e-05
3.43561e-05
3.43554e-05
3.43547e-05
3.43539e-05
3.43531e-05
3.43523e-05
3.43513e-05
3.43503e-05
3.43493e-05
3.43482e-05
3.4347e-05
3.43457e-05
3.43444e-05
3.4343e-05
3.43414e-05
3.43398e-05
3.43381e-05
3.43364e-05
3.43345e-05
3.43325e-05
3.43305e-05
3.43285e-05
3.43265e-05
3.43247e-05
3.4323e-05
3.43216e-05
0.00223431
0.00201623
0.00178528
0.00154149
0.00128596
0.00102213
0.000757598
0.000504691
0.000266894
0.000201203
3.43629e-05
3.43626e-05
3.43622e-05
3.43619e-05
3.43616e-05
3.43612e-05
3.43608e-05
3.43604e-05
3.436e-05
3.43595e-05
3.4359e-05
3.43585e-05
3.4358e-05
3.43574e-05
3.43568e-05
3.43562e-05
3.43555e-05
3.43547e-05
3.4354e-05
3.43531e-05
3.43523e-05
3.43513e-05
3.43504e-05
3.43493e-05
3.43482e-05
3.4347e-05
3.43457e-05
3.43444e-05
3.43429e-05
3.43414e-05
3.43398e-05
3.43381e-05
3.43363e-05
3.43344e-05
3.43325e-05
3.43304e-05
3.43284e-05
3.43264e-05
3.43245e-05
3.43229e-05
3.43216e-05
0.00245415
0.00224742
0.00202819
0.00179608
0.00155111
0.00129427
0.00102912
0.000763136
0.000508747
0.0002695
0.000206547
3.43632e-05
3.43629e-05
3.43626e-05
3.43623e-05
3.43619e-05
3.43616e-05
3.43612e-05
3.43608e-05
3.43604e-05
3.436e-05
3.43596e-05
3.43591e-05
3.43586e-05
3.4358e-05
3.43574e-05
3.43568e-05
3.43562e-05
3.43555e-05
3.43548e-05
3.4354e-05
3.43532e-05
3.43523e-05
3.43514e-05
3.43504e-05
3.43493e-05
3.43482e-05
3.4347e-05
3.43457e-05
3.43444e-05
3.43429e-05
3.43414e-05
3.43398e-05
3.43381e-05
3.43362e-05
3.43343e-05
3.43324e-05
3.43303e-05
3.43283e-05
3.43263e-05
3.43244e-05
3.43228e-05
3.43215e-05
0.00266304
0.00246735
0.00225964
0.00203942
0.00180632
0.0015603
0.00130244
0.00103608
0.000768795
0.00051306
0.000272148
0.000212128
3.43635e-05
3.43632e-05
3.43629e-05
3.43626e-05
3.43623e-05
3.4362e-05
3.43616e-05
3.43613e-05
3.43609e-05
3.43605e-05
3.436e-05
3.43596e-05
3.43591e-05
3.43586e-05
3.4358e-05
3.43575e-05
3.43569e-05
3.43562e-05
3.43555e-05
3.43548e-05
3.4354e-05
3.43532e-05
3.43523e-05
3.43514e-05
3.43504e-05
3.43493e-05
3.43482e-05
3.4347e-05
3.43457e-05
3.43444e-05
3.43429e-05
3.43414e-05
3.43397e-05
3.4338e-05
3.43362e-05
3.43343e-05
3.43323e-05
3.43302e-05
3.43282e-05
3.43261e-05
3.43243e-05
3.43227e-05
3.43215e-05
0.00286082
0.00267589
0.00247939
0.00227088
0.00204984
0.00181591
0.00156913
0.00131037
0.00104307
0.000774647
0.000517404
0.000274971
0.000217919
3.43638e-05
3.43635e-05
3.43632e-05
3.4363e-05
3.43627e-05
3.43623e-05
3.4362e-05
3.43617e-05
3.43613e-05
3.43609e-05
3.43605e-05
3.43601e-05
3.43596e-05
3.43591e-05
3.43586e-05
3.43581e-05
3.43575e-05
3.43569e-05
3.43562e-05
3.43555e-05
3.43548e-05
3.4354e-05
3.43532e-05
3.43523e-05
3.43514e-05
3.43504e-05
3.43493e-05
3.43482e-05
3.4347e-05
3.43457e-05
3.43443e-05
3.43429e-05
3.43413e-05
3.43397e-05
3.4338e-05
3.43361e-05
3.43342e-05
3.43322e-05
3.43301e-05
3.4328e-05
3.4326e-05
3.43241e-05
3.43225e-05
3.43214e-05
0.00304716
0.00287284
0.0026873
0.00249018
0.00228101
0.00205935
0.0018249
0.00157747
0.00131815
0.0010501
0.000780524
0.000522021
0.000277951
0.000223894
3.4364e-05
3.43638e-05
3.43635e-05
3.43633e-05
3.4363e-05
3.43627e-05
3.43624e-05
3.4362e-05
3.43617e-05
3.43613e-05
3.43609e-05
3.43605e-05
3.43601e-05
3.43596e-05
3.43592e-05
3.43586e-05
3.43581e-05
3.43575e-05
3.43569e-05
3.43563e-05
3.43556e-05
3.43548e-05
3.43541e-05
3.43532e-05
3.43524e-05
3.43514e-05
3.43504e-05
3.43493e-05
3.43482e-05
3.4347e-05
3.43457e-05
3.43443e-05
3.43429e-05
3.43413e-05
3.43397e-05
3.43379e-05
3.43361e-05
3.43341e-05
3.43321e-05
3.433e-05
3.43279e-05
3.43259e-05
3.4324e-05
3.43224e-05
3.43213e-05
0.00322163
0.00305782
0.0028831
0.00269714
0.00249958
0.00228996
0.00206797
0.00183308
0.00158542
0.00132574
0.00105709
0.000786701
0.000526901
0.000281088
0.000230128
3.43643e-05
3.43641e-05
3.43638e-05
3.43636e-05
3.43633e-05
3.4363e-05
3.43627e-05
3.43624e-05
3.43621e-05
3.43617e-05
3.43614e-05
3.4361e-05
3.43606e-05
3.43601e-05
3.43597e-05
3.43592e-05
3.43587e-05
3.43581e-05
3.43576e-05
3.43569e-05
3.43563e-05
3.43556e-05
3.43549e-05
3.43541e-05
3.43533e-05
3.43524e-05
3.43514e-05
3.43504e-05
3.43494e-05
3.43482e-05
3.4347e-05
3.43457e-05
3.43443e-05
3.43429e-05
3.43413e-05
3.43396e-05
3.43379e-05
3.4336e-05
3.4334e-05
3.4332e-05
3.43299e-05
3.43278e-05
3.43257e-05
3.43238e-05
3.43223e-05
3.43213e-05
0.00338361
0.00323034
0.00306638
0.00289146
0.00270527
0.00250745
0.00229768
0.00207546
0.00184057
0.00159285
0.00133307
0.0010642
0.000793112
0.00053202
0.000284388
0.000236623
3.43646e-05
3.43644e-05
3.43641e-05
3.43639e-05
3.43636e-05
3.43633e-05
3.43631e-05
3.43628e-05
3.43624e-05
3.43621e-05
3.43618e-05
3.43614e-05
3.4361e-05
3.43606e-05
3.43602e-05
3.43597e-05
3.43592e-05
3.43587e-05
3.43582e-05
3.43576e-05
3.4357e-05
3.43563e-05
3.43556e-05
3.43549e-05
3.43541e-05
3.43533e-05
3.43524e-05
3.43515e-05
3.43504e-05
3.43494e-05
3.43482e-05
3.4347e-05
3.43457e-05
3.43443e-05
3.43428e-05
3.43413e-05
3.43396e-05
3.43378e-05
3.43359e-05
3.43339e-05
3.43319e-05
3.43297e-05
3.43276e-05
3.43255e-05
3.43237e-05
3.43221e-05
3.43212e-05
0.00353228
0.00338971
0.00323659
0.00307268
0.00289775
0.00271153
0.00251373
0.00230393
0.00208188
0.00184719
0.00159971
0.00134024
0.00107136
0.000799713
0.000537374
0.0002879
0.000243282
3.43648e-05
3.43646e-05
3.43644e-05
3.43642e-05
3.43639e-05
3.43636e-05
3.43634e-05
3.43631e-05
3.43628e-05
3.43625e-05
3.43621e-05
3.43618e-05
3.43614e-05
3.4361e-05
3.43606e-05
3.43602e-05
3.43597e-05
3.43593e-05
3.43587e-05
3.43582e-05
3.43576e-05
3.4357e-05
3.43564e-05
3.43557e-05
3.43549e-05
3.43541e-05
3.43533e-05
3.43524e-05
3.43515e-05
3.43505e-05
3.43494e-05
3.43482e-05
3.4347e-05
3.43457e-05
3.43443e-05
3.43428e-05
3.43412e-05
3.43395e-05
3.43377e-05
3.43358e-05
3.43338e-05
3.43318e-05
3.43296e-05
3.43274e-05
3.43254e-05
3.43235e-05
3.4322e-05
3.43211e-05
0.00366666
0.00353507
0.00339296
0.00324017
0.00307652
0.00290178
0.00271579
0.00251817
0.00230874
0.00208707
0.00185287
0.00160605
0.00134714
0.00107856
0.000806625
0.000543258
0.000291619
0.000250183
3.43651e-05
3.43649e-05
3.43647e-05
3.43644e-05
3.43642e-05
3.43639e-05
3.43637e-05
3.43634e-05
3.43631e-05
3.43628e-05
3.43625e-05
3.43622e-05
3.43618e-05
3.43615e-05
3.43611e-05
3.43607e-05
3.43602e-05
3.43598e-05
3.43593e-05
3.43588e-05
3.43582e-05
3.43577e-05
3.4357e-05
3.43564e-05
3.43557e-05
3.4355e-05
3.43542e-05
3.43533e-05
3.43524e-05
3.43515e-05
3.43505e-05
3.43494e-05
3.43482e-05
3.4347e-05
3.43457e-05
3.43443e-05
3.43428e-05
3.43412e-05
3.43395e-05
3.43377e-05
3.43358e-05
3.43338e-05
3.43316e-05
3.43295e-05
3.43273e-05
3.43252e-05
3.43233e-05
3.43218e-05
3.43211e-05
0.00378547
0.00366532
0.00353456
0.00339311
0.00324086
0.00307766
0.00290342
0.00271782
0.00252076
0.00231189
0.00209092
0.00185758
0.00161171
0.00135373
0.00108586
0.000813967
0.000549363
0.000295549
0.000257365
3.43653e-05
3.43651e-05
3.43649e-05
3.43647e-05
3.43645e-05
3.43642e-05
3.4364e-05
3.43637e-05
3.43634e-05
3.43632e-05
3.43629e-05
3.43625e-05
3.43622e-05
3.43619e-05
3.43615e-05
3.43611e-05
3.43607e-05
3.43603e-05
3.43598e-05
3.43593e-05
3.43588e-05
3.43583e-05
3.43577e-05
3.43571e-05
3.43564e-05
3.43557e-05
3.4355e-05
3.43542e-05
3.43534e-05
3.43525e-05
3.43515e-05
3.43505e-05
3.43494e-05
3.43483e-05
3.4347e-05
3.43457e-05
3.43443e-05
3.43428e-05
3.43412e-05
3.43395e-05
3.43376e-05
3.43357e-05
3.43337e-05
3.43315e-05
3.43293e-05
3.43271e-05
3.4325e-05
3.43231e-05
3.43216e-05
3.43211e-05
0.00388725
0.00377913
0.00366019
0.00353045
0.00338988
0.00323839
0.00307595
0.00290237
0.00271754
0.00252127
0.00231327
0.00209335
0.00186121
0.00161665
0.00136007
0.00109327
0.00082149
0.000555761
0.000299742
0.000264799
3.43656e-05
3.43654e-05
3.43652e-05
3.4365e-05
3.43647e-05
3.43645e-05
3.43643e-05
3.4364e-05
3.43638e-05
3.43635e-05
3.43632e-05
3.43629e-05
3.43626e-05
3.43623e-05
3.43619e-05
3.43615e-05
3.43612e-05
3.43607e-05
3.43603e-05
3.43598e-05
3.43594e-05
3.43588e-05
3.43583e-05
3.43577e-05
3.43571e-05
3.43565e-05
3.43558e-05
3.4355e-05
3.43542e-05
3.43534e-05
3.43525e-05
3.43515e-05
3.43505e-05
3.43494e-05
3.43483e-05
3.4347e-05
3.43457e-05
3.43443e-05
3.43428e-05
3.43411e-05
3.43394e-05
3.43376e-05
3.43356e-05
3.43336e-05
3.43314e-05
3.43292e-05
3.43269e-05
3.43248e-05
3.43229e-05
3.43215e-05
3.43212e-05
0.00397023
0.00387491
0.00376845
0.00365095
0.00352246
0.00338301
0.00323256
0.00307109
0.00289851
0.00271471
0.00251951
0.00231277
0.00209424
0.00186365
0.00162087
0.00136605
0.00110059
0.00082928
0.00056265
0.000304179
0.000272492
3.43658e-05
3.43656e-05
3.43654e-05
3.43652e-05
3.4365e-05
3.43648e-05
3.43646e-05
3.43643e-05
3.43641e-05
3.43638e-05
3.43635e-05
3.43632e-05
3.43629e-05
3.43626e-05
3.43623e-05
3.43619e-05
3.43616e-05
3.43612e-05
3.43608e-05
3.43603e-05
3.43599e-05
3.43594e-05
3.43589e-05
3.43583e-05
3.43578e-05
3.43571e-05
3.43565e-05
3.43558e-05
3.4355e-05
3.43543e-05
3.43534e-05
3.43525e-05
3.43516e-05
3.43505e-05
3.43494e-05
3.43483e-05
3.4347e-05
3.43457e-05
3.43443e-05
3.43428e-05
3.43411e-05
3.43394e-05
3.43375e-05
3.43355e-05
3.43335e-05
3.43313e-05
3.4329e-05
3.43267e-05
3.43245e-05
3.43226e-05
3.43215e-05
3.43213e-05
0.00403237
0.0039508
0.00385764
0.00375308
0.00363726
0.00351028
0.00337221
0.00322308
0.00306288
0.00289158
0.00270909
0.00251534
0.0023102
0.00209342
0.00186485
0.00162421
0.00137149
0.00110784
0.000837428
0.000569906
0.000308881
0.000280446
3.43661e-05
3.43659e-05
3.43657e-05
3.43655e-05
3.43653e-05
3.43651e-05
3.43648e-05
3.43646e-05
3.43644e-05
3.43641e-05
3.43638e-05
3.43636e-05
3.43633e-05
3.4363e-05
3.43627e-05
3.43623e-05
3.4362e-05
3.43616e-05
3.43612e-05
3.43608e-05
3.43604e-05
3.43599e-05
3.43594e-05
3.43589e-05
3.43584e-05
3.43578e-05
3.43572e-05
3.43565e-05
3.43558e-05
3.43551e-05
3.43543e-05
3.43534e-05
3.43525e-05
3.43516e-05
3.43506e-05
3.43495e-05
3.43483e-05
3.4347e-05
3.43457e-05
3.43443e-05
3.43427e-05
3.43411e-05
3.43393e-05
3.43375e-05
3.43355e-05
3.43334e-05
3.43311e-05
3.43288e-05
3.43265e-05
3.43243e-05
3.43224e-05
3.43215e-05
3.43214e-05
0.0040713
0.00400465
0.0039258
0.00383506
0.00373266
0.00361878
0.00349358
0.00335718
0.00320965
0.00305102
0.00288131
0.00270049
0.00250857
0.00230537
0.00209081
0.00186464
0.00162652
0.00137641
0.00111506
0.000845783
0.000577529
0.000313855
0.000288631
3.43663e-05
3.43661e-05
3.43659e-05
3.43657e-05
3.43655e-05
3.43653e-05
3.43651e-05
3.43649e-05
3.43646e-05
3.43644e-05
3.43642e-05
3.43639e-05
3.43636e-05
3.43633e-05
3.4363e-05
3.43627e-05
3.43624e-05
3.4362e-05
3.43617e-05
3.43613e-05
3.43609e-05
3.43604e-05
3.436e-05
3.43595e-05
3.4359e-05
3.43584e-05
3.43578e-05
3.43572e-05
3.43566e-05
3.43559e-05
3.43551e-05
3.43543e-05
3.43535e-05
3.43526e-05
3.43516e-05
3.43506e-05
3.43495e-05
3.43483e-05
3.43471e-05
3.43457e-05
3.43443e-05
3.43427e-05
3.43411e-05
3.43393e-05
3.43374e-05
3.43354e-05
3.43332e-05
3.4331e-05
3.43287e-05
3.43263e-05
3.43241e-05
3.43222e-05
3.43216e-05
3.43216e-05
0.00408429
0.00403395
0.00397065
0.0038948
0.00380675
0.00370677
0.00359512
0.003472
0.00333756
0.00319194
0.00303521
0.00286744
0.00268869
0.00249894
0.00229816
0.00208621
0.00186283
0.00162775
0.00138075
0.00112205
0.000854328
0.00058553
0.000319123
0.000297151
3.43665e-05
3.43664e-05
3.43662e-05
3.4366e-05
3.43658e-05
3.43656e-05
3.43654e-05
3.43651e-05
3.43649e-05
3.43647e-05
3.43644e-05
3.43642e-05
3.43639e-05
3.43637e-05
3.43634e-05
3.43631e-05
3.43628e-05
3.43624e-05
3.43621e-05
3.43617e-05
3.43613e-05
3.43609e-05
3.43605e-05
3.436e-05
3.43595e-05
3.4359e-05
3.43585e-05
3.43579e-05
3.43573e-05
3.43566e-05
3.43559e-05
3.43551e-05
3.43544e-05
3.43535e-05
3.43526e-05
3.43516e-05
3.43506e-05
3.43495e-05
3.43483e-05
3.43471e-05
3.43457e-05
3.43443e-05
3.43427e-05
3.4341e-05
3.43392e-05
3.43373e-05
3.43353e-05
3.43331e-05
3.43309e-05
3.43285e-05
3.43261e-05
3.43238e-05
3.43221e-05
3.43218e-05
3.43217e-05
0.00406827
0.00403585
0.00398954
0.00392988
0.00385732
0.00377225
0.003675
0.00356589
0.00344514
0.003313
0.00316962
0.00301514
0.0028497
0.00267341
0.00248629
0.00228833
0.00207941
0.00185935
0.00162782
0.00138428
0.00112872
0.00086293
0.000593829
0.00032465
0.000306012
3.43668e-05
3.43666e-05
3.43664e-05
3.43662e-05
3.4366e-05
3.43658e-05
3.43656e-05
3.43654e-05
3.43652e-05
3.4365e-05
3.43647e-05
3.43645e-05
3.43642e-05
3.4364e-05
3.43637e-05
3.43634e-05
3.43631e-05
3.43628e-05
3.43625e-05
3.43621e-05
3.43618e-05
3.43614e-05
3.4361e-05
3.43605e-05
3.43601e-05
3.43596e-05
3.4359e-05
3.43585e-05
3.43579e-05
3.43573e-05
3.43566e-05
3.43559e-05
3.43552e-05
3.43544e-05
3.43535e-05
3.43526e-05
3.43517e-05
3.43506e-05
3.43495e-05
3.43483e-05
3.43471e-05
3.43457e-05
3.43443e-05
3.43427e-05
3.4341e-05
3.43392e-05
3.43373e-05
3.43352e-05
3.4333e-05
3.43307e-05
3.43283e-05
3.43259e-05
3.43235e-05
3.4322e-05
3.4322e-05
3.43219e-05
0.00401976
0.00400713
0.00397951
0.00393755
0.00388183
0.00381286
0.00373108
0.00363688
0.00353062
0.0034126
0.0032831
0.00314231
0.00299048
0.00282779
0.00265439
0.00247034
0.00227567
0.00207031
0.00185409
0.00162646
0.0013869
0.0011349
0.000871487
0.000602302
0.000330541
0.000315146
3.4367e-05
3.43668e-05
3.43667e-05
3.43665e-05
3.43663e-05
3.43661e-05
3.43659e-05
3.43657e-05
3.43655e-05
3.43652e-05
3.4365e-05
3.43648e-05
3.43645e-05
3.43643e-05
3.4364e-05
3.43638e-05
3.43635e-05
3.43632e-05
3.43629e-05
3.43625e-05
3.43622e-05
3.43618e-05
3.43614e-05
3.4361e-05
3.43606e-05
3.43601e-05
3.43596e-05
3.43591e-05
3.43585e-05
3.4358e-05
3.43573e-05
3.43567e-05
3.4356e-05
3.43552e-05
3.43544e-05
3.43536e-05
3.43527e-05
3.43517e-05
3.43507e-05
3.43496e-05
3.43484e-05
3.43471e-05
3.43457e-05
3.43442e-05
3.43427e-05
3.4341e-05
3.43392e-05
3.43372e-05
3.43351e-05
3.43329e-05
3.43306e-05
3.43281e-05
3.43256e-05
3.43233e-05
3.4322e-05
3.43222e-05
3.43221e-05
0.00393494
0.0039442
0.00393719
0.00391469
0.0038774
0.00382595
0.00376089
0.00368273
0.00359192
0.00348885
0.00337392
0.00324742
0.00310965
0.00296089
0.0028014
0.00263134
0.00245085
0.00225998
0.00205873
0.00184673
0.00162356
0.00138839
0.00114044
0.000879913
0.000611282
0.000336744
0.000324573
3.43673e-05
3.43671e-05
3.43669e-05
3.43667e-05
3.43665e-05
3.43663e-05
3.43661e-05
3.43659e-05
3.43657e-05
3.43655e-05
3.43653e-05
3.43651e-05
3.43648e-05
3.43646e-05
3.43644e-05
3.43641e-05
3.43638e-05
3.43635e-05
3.43632e-05
3.43629e-05
3.43626e-05
3.43622e-05
3.43618e-05
3.43615e-05
3.4361e-05
3.43606e-05
3.43601e-05
3.43597e-05
3.43591e-05
3.43586e-05
3.4358e-05
3.43574e-05
3.43567e-05
3.4356e-05
3.43553e-05
3.43545e-05
3.43536e-05
3.43527e-05
3.43517e-05
3.43507e-05
3.43496e-05
3.43484e-05
3.43471e-05
3.43457e-05
3.43442e-05
3.43427e-05
3.43409e-05
3.43391e-05
3.43371e-05
3.4335e-05
3.43328e-05
3.43304e-05
3.43279e-05
3.43254e-05
3.43231e-05
3.43221e-05
3.43225e-05
3.43223e-05
0.00380957
0.0038431
0.00385886
0.00385782
0.00384077
0.00380847
0.00376162
0.00370082
0.00362663
0.00353956
0.00344009
0.00332861
0.00320554
0.00307121
0.002926
0.00277016
0.00260396
0.00242755
0.00224106
0.00204434
0.00183716
0.00161888
0.00138861
0.00114522
0.000888225
0.000620378
0.000343317
0.000334402
3.43675e-05
3.43673e-05
3.43671e-05
3.4367e-05
3.43668e-05
3.43666e-05
3.43664e-05
3.43662e-05
3.4366e-05
3.43658e-05
3.43656e-05
3.43654e-05
3.43651e-05
3.43649e-05
3.43647e-05
3.43644e-05
3.43641e-05
3.43639e-05
3.43636e-05
3.43633e-05
3.4363e-05
3.43626e-05
3.43623e-05
3.43619e-05
3.43615e-05
3.43611e-05
3.43607e-05
3.43602e-05
3.43597e-05
3.43592e-05
3.43586e-05
3.4358e-05
3.43574e-05
3.43568e-05
3.43561e-05
3.43553e-05
3.43545e-05
3.43537e-05
3.43527e-05
3.43518e-05
3.43507e-05
3.43496e-05
3.43484e-05
3.43471e-05
3.43457e-05
3.43442e-05
3.43426e-05
3.43409e-05
3.43391e-05
3.43371e-05
3.43349e-05
3.43327e-05
3.43302e-05
3.43277e-05
3.43251e-05
3.43228e-05
3.43222e-05
3.43228e-05
3.43226e-05
0.00363912
0.00369947
0.00374044
0.00376307
0.00376831
0.00375706
0.00373012
0.00368822
0.00363203
0.00356219
0.00347926
0.00338376
0.00327618
0.00315697
0.00302658
0.0028854
0.00273375
0.00257194
0.00240021
0.00221858
0.00202701
0.00182512
0.00161227
0.00138741
0.00114913
0.000896042
0.000629565
0.000350291
0.00034476
3.43677e-05
3.43676e-05
3.43674e-05
3.43672e-05
3.4367e-05
3.43668e-05
3.43667e-05
3.43665e-05
3.43663e-05
3.43661e-05
3.43659e-05
3.43656e-05
3.43654e-05
3.43652e-05
3.4365e-05
3.43647e-05
3.43645e-05
3.43642e-05
3.43639e-05
3.43636e-05
3.43633e-05
3.4363e-05
3.43627e-05
3.43623e-05
3.43619e-05
3.43616e-05
3.43611e-05
3.43607e-05
3.43602e-05
3.43598e-05
3.43592e-05
3.43587e-05
3.43581e-05
3.43575e-05
3.43568e-05
3.43561e-05
3.43553e-05
3.43545e-05
3.43537e-05
3.43528e-05
3.43518e-05
3.43508e-05
3.43496e-05
3.43484e-05
3.43471e-05
3.43457e-05
3.43442e-05
3.43426e-05
3.43409e-05
3.4339e-05
3.4337e-05
3.43348e-05
3.43325e-05
3.43301e-05
3.43275e-05
3.43248e-05
3.43227e-05
3.43224e-05
3.43232e-05
3.43228e-05
0.00341873
0.00350871
0.00357748
0.00362625
0.00365606
0.00366795
0.00366285
0.00364161
0.00360504
0.00355386
0.00348877
0.00341039
0.00331931
0.00321609
0.00310126
0.00297532
0.00283869
0.0026918
0.00253499
0.00236846
0.00219232
0.00200643
0.00181042
0.00160354
0.00138462
0.00115184
0.000903258
0.000638653
0.000357691
0.000355566
3.4368e-05
3.43678e-05
3.43676e-05
3.43675e-05
3.43673e-05
3.43671e-05
3.43669e-05
3.43667e-05
3.43665e-05
3.43663e-05
3.43661e-05
3.43659e-05
3.43657e-05
3.43655e-05
3.43653e-05
3.4365e-05
3.43648e-05
3.43645e-05
3.43643e-05
3.4364e-05
3.43637e-05
3.43634e-05
3.43631e-05
3.43627e-05
3.43624e-05
3.4362e-05
3.43616e-05
3.43612e-05
3.43608e-05
3.43603e-05
3.43598e-05
3.43593e-05
3.43587e-05
3.43581e-05
3.43575e-05
3.43569e-05
3.43561e-05
3.43554e-05
3.43546e-05
3.43537e-05
3.43528e-05
3.43518e-05
3.43508e-05
3.43497e-05
3.43485e-05
3.43472e-05
3.43458e-05
3.43442e-05
3.43426e-05
3.43409e-05
3.4339e-05
3.43369e-05
3.43348e-05
3.43324e-05
3.43299e-05
3.43273e-05
3.43246e-05
3.43225e-05
3.43226e-05
3.43236e-05
3.43231e-05
0.0031434
0.00326593
0.00336531
0.00344283
0.00349971
0.00353706
0.00355595
0.00355737
0.00354222
0.00351138
0.00346562
0.00340571
0.00333233
0.00324615
0.00314781
0.00303789
0.00291694
0.00278547
0.00264396
0.00249272
0.00233204
0.00216197
0.00198237
0.00179281
0.00159247
0.00137992
0.00115318
0.000909631
0.000647811
0.000365626
0.000366812
3.43682e-05
3.43681e-05
3.43679e-05
3.43677e-05
3.43675e-05
3.43673e-05
3.43672e-05
3.4367e-05
3.43668e-05
3.43666e-05
3.43664e-05
3.43662e-05
3.4366e-05
3.43658e-05
3.43655e-05
3.43653e-05
3.43651e-05
3.43648e-05
3.43646e-05
3.43643e-05
3.4364e-05
3.43637e-05
3.43634e-05
3.43631e-05
3.43628e-05
3.43624e-05
3.43621e-05
3.43617e-05
3.43612e-05
3.43608e-05
3.43603e-05
3.43599e-05
3.43593e-05
3.43588e-05
3.43582e-05
3.43576e-05
3.43569e-05
3.43562e-05
3.43554e-05
3.43546e-05
3.43538e-05
3.43529e-05
3.43519e-05
3.43508e-05
3.43497e-05
3.43485e-05
3.43472e-05
3.43458e-05
3.43442e-05
3.43426e-05
3.43408e-05
3.43389e-05
3.43369e-05
3.43347e-05
3.43323e-05
3.43297e-05
3.4327e-05
3.43243e-05
3.43225e-05
3.4323e-05
3.43241e-05
3.43235e-05
0.00280808
0.00296616
0.00309905
0.00320811
0.00329469
0.00336001
0.00340524
0.0034315
0.00343981
0.00343116
0.00340646
0.00336657
0.00331231
0.00324443
0.00316368
0.00307076
0.00296631
0.00285098
0.00272531
0.00258978
0.00244479
0.00229058
0.00212723
0.00195452
0.00177202
0.00157871
0.00137311
0.00115292
0.000915209
0.000656895
0.000374121
0.000378895
3.43685e-05
3.43683e-05
3.43681e-05
3.4368e-05
3.43678e-05
3.43676e-05
3.43674e-05
3.43672e-05
3.4367e-05
3.43669e-05
3.43667e-05
3.43665e-05
3.43663e-05
3.4366e-05
3.43658e-05
3.43656e-05
3.43654e-05