/*--------------------------------*- C++ -*----------------------------------*\
  =========                 |
  \\      /  F ield         | OpenFOAM: The Open Source CFD Toolbox
   \\    /   O peration     | Website:  https://openfoam.org
    \\  /    A nd           | Version:  7
     \\/     M anipulation  |
\*---------------------------------------------------------------------------*/
FoamFile
{
    version     2.0;
    format      ascii;
    class       volScalarField;
    location    "800";
    object      p;
}
// * * * * * * * * * * * * * * * * * * * * * * * * * * * * * * * * * * * * * //

dimensions      [0 2 -2 0 0 0 0];

internalField   nonuniform List<scalar> 
23064
(
-4.63099
-4.6673
-4.90698
-4.6971
-4.93996
-5.18233
-4.8824
-4.96586
-5.2113
-5.45708
-5.1185
-5.15992
-5.23295
-5.48114
-5.73117
-5.38304
-5.40485
-5.43617
-5.49829
-5.74931
-6.00446
-5.69519
-5.67772
-5.69007
-5.71106
-5.76162
-6.01568
-6.27678
-6.05533
-5.99982
-5.97123
-5.97404
-5.98432
-6.02287
-6.28004
-6.54795
-6.45883
-6.37128
-6.30341
-6.26356
-6.2565
-6.25594
-6.28192
-6.54231
-6.81814
-6.90512
-6.78704
-6.68632
-6.60591
-6.55451
-6.5375
-6.52583
-6.53858
-6.80225
-7.08704
-7.39445
-7.24671
-7.1144
-7.00026
-6.9071
-6.84399
-6.81679
-6.7937
-6.79272
-7.05973
-7.35459
-7.9264
-7.75056
-7.58753
-7.44078
-7.31298
-7.20686
-7.13179
-7.09418
-7.0596
-7.04416
-7.31444
-7.62067
-8.50077
-8.29812
-8.10596
-7.92741
-7.76602
-7.62444
-7.50515
-7.41784
-7.36966
-7.32318
-7.29271
-7.56634
-7.88507
-9.11761
-8.8892
-8.66917
-8.46046
-8.26625
-8.09006
-7.9345
-7.80179
-7.70203
-7.64304
-7.58452
-7.53828
-7.81515
-8.14797
-9.77713
-9.52385
-9.277
-9.03937
-8.81397
-8.60392
-8.41276
-8.24297
-8.09671
-7.98415
-7.91413
-7.84326
-7.78061
-8.06071
-8.4088
-10.4797
-10.2024
-9.92953
-9.66397
-9.40863
-9.16636
-8.94029
-8.73393
-8.54978
-8.3896
-8.26401
-8.18269
-8.09933
-8.01963
-8.30275
-8.66765
-11.2259
-10.925
-10.627
-10.3344
-10.0501
-9.7768
-9.51751
-9.27526
-9.05351
-8.85468
-8.68047
-8.54149
-8.44878
-8.35265
-8.25508
-8.54106
-8.92445
-12.0161
-11.6924
-11.3698
-11.0509
-10.7384
-10.4351
-10.1438
-9.86727
-9.60862
-9.37129
-9.15766
-8.96903
-8.81652
-8.71213
-8.60299
-8.48687
-8.77553
-9.17888
-12.8515
-12.5052
-12.1585
-11.8138
-11.4739
-11.1413
-10.8189
-10.5094
-10.2155
-9.94026
-9.68714
-9.4584
-9.25525
-9.08883
-8.97248
-8.85013
-8.71476
-9.00579
-9.43103
-13.7327
-13.3642
-12.9937
-12.6237
-12.2569
-11.8958
-11.5431
-11.2015
-10.8735
-10.5621
-10.27
-10.0009
-9.75699
-9.53894
-9.35836
-9.22973
-9.09397
-8.93855
-9.23169
-9.68058
-14.6609
-14.2705
-13.8764
-13.4814
-13.0881
-12.699
-12.3166
-11.9436
-11.5825
-11.236
-10.9068
-10.5978
-10.3125
-10.0531
-9.82002
-9.62485
-9.48381
-9.3344
-9.15814
-9.45295
-9.92723
-15.6374
-15.225
-14.8076
-14.3878
-13.9682
-13.5514
-13.1399
-12.7361
-12.3425
-11.9618
-11.5966
-11.2495
-10.9234
-10.6217
-10.3465
-10.0982
-9.88823
-9.7345
-9.57126
-9.37331
-9.66934
-10.1707
-16.6634
-16.2291
-15.7885
-15.344
-14.8983
-14.454
-14.0135
-13.5794
-13.154
-12.7398
-12.3394
-11.9553
-11.5901
-11.2467
-10.9283
-10.6373
-10.3733
-10.1483
-9.98151
-9.80416
-9.58393
-9.88066
-10.4115
-17.7404
-17.2842
-16.8202
-16.351
-15.8793
-15.4076
-14.9385
-14.4743
-14.0174
-13.5703
-13.1353
-12.715
-12.3119
-11.9285
-11.5674
-11.2322
-10.9251
-10.6454
-10.4048
-10.2247
-10.0332
-9.78975
-10.0866
-10.6489
-18.8699
-18.3917
-17.9043
-17.4103
-16.9125
-16.4135
-15.9157
-15.4216
-14.9334
-14.4537
-13.9847
-13.5289
-13.0885
-12.6662
-12.2643
-11.8856
-11.5334
-11.2098
-10.9139
-10.6577
-10.4639
-10.2579
-9.9905
-10.2869
-10.8829
-20.0535
-19.5532
-19.0422
-18.5234
-17.9993
-17.4729
-16.9463
-16.4223
-15.903
-15.3909
-14.8882
-14.3972
-13.9202
-13.4597
-13.018
-12.5976
-12.2009
-11.8314
-11.4913
-11.1792
-10.9068
-10.699
-10.4785
-10.1862
-10.4812
-11.1131
-21.2932
-20.7705
-20.2357
-19.6918
-19.1413
-18.5871
-18.0318
-17.4776
-16.9271
-16.3826
-15.8463
-15.3205
-14.8074
-14.3093
-13.8285
-13.3673
-12.928
-12.5133
-12.1263
-11.7694
-11.4407
-11.1517
-10.9298
-10.6945
-10.3765
-10.6695
-11.3394
-22.5907
-22.0454
-21.4866
-20.9172
-20.3401
-19.758
-19.1734
-18.589
-18.0072
-17.4302
-16.8603
-16.2997
-15.7507
-15.2153
-14.6959
-14.1946
-13.7137
-13.2556
-12.8225
-12.4179
-12.0439
-11.6982
-11.3925
-11.1561
-10.9058
-10.5614
-10.8512
-11.5616
-23.9482
-23.38
-22.7968
-22.2015
-21.5973
-20.9869
-20.373
-19.758
-19.1445
-18.5348
-17.9311
-17.3358
-16.7508
-16.1784
-15.6207
-15.0799
-14.558
-14.0573
-13.58
-13.1285
-12.706
-12.3146
-11.9518
-11.629
-11.3775
-11.1122
-10.7404
-11.0262
-11.7795
-25.3677
-24.7762
-24.1682
-23.5468
-22.9151
-22.2759
-21.6322
-20.9862
-20.3407
-19.6979
-19.0602
-18.4298
-17.8088
-17.1994
-16.6036
-16.0234
-15.461
-14.9183
-14.3977
-13.9012
-13.4309
-12.9903
-12.5815
-12.2014
-11.8609
-11.5942
-11.3134
-10.9136
-11.1941
-11.9926
-26.8515
-26.2364
-25.6032
-24.9552
-24.2954
-23.627
-22.9528
-22.2754
-21.5974
-20.9211
-20.249
-19.5833
-18.926
-18.2793
-17.6453
-17.0259
-16.4232
-15.8391
-15.2756
-14.7348
-14.2189
-13.7298
-13.2708
-12.8442
-12.4464
-12.0882
-11.8056
-11.5095
-11.0807
-11.3548
-12.2011
-531.878
-28.4019
-27.7628
-27.1039
-26.4287
-25.7404
-25.0423
-24.337
-23.6276
-22.9165
-22.2062
-21.4992
-20.7976
-20.1037
-19.4195
-18.7471
-18.0884
-17.4454
-16.8199
-16.214
-15.6295
-15.0685
-14.5329
-14.0248
-13.5473
-13.1026
-12.687
-12.3104
-12.0118
-11.7002
-11.2416
-11.5078
-12.4046
-531.927
-557.218
-30.0215
-29.3579
-28.6728
-27.9699
-27.2525
-26.5239
-25.7871
-25.0449
-24.3001
-23.5551
-22.8125
-22.0746
-21.3435
-20.6213
-19.9101
-19.2118
-18.5284
-17.8616
-17.2134
-16.5856
-15.9799
-15.3985
-14.8432
-14.3159
-13.8196
-13.3566
-12.9228
-12.5275
-12.2124
-11.8851
-11.396
-11.6529
-12.6031
-531.956
-557.265
-583.113
-31.7128
-31.0242
-30.3124
-29.5812
-28.8341
-28.0744
-27.3052
-26.5297
-25.7503
-24.9699
-24.1911
-23.4161
-22.6472
-21.8864
-21.1359
-20.3976
-19.6734
-18.9651
-18.2745
-17.6034
-16.9536
-16.3267
-15.7248
-15.1495
-14.6028
-14.0875
-13.606
-13.1537
-12.7394
-12.4073
-12.0641
-11.5437
-11.7896
-12.7958
-531.971
-557.29
-583.157
-609.551
-33.4787
-32.7645
-32.0254
-31.2652
-30.4876
-29.6961
-28.8939
-28.084
-27.2695
-26.4529
-25.6369
-24.8241
-24.0166
-23.2166
-22.4261
-21.6472
-20.8817
-20.1315
-19.3983
-18.6839
-17.9898
-17.3178
-16.6696
-16.0471
-15.4517
-14.8853
-14.3508
-13.8506
-13.3796
-12.946
-12.5964
-12.2372
-11.6847
-11.9179
-12.9825
-531.985
-557.302
-583.18
-609.591
-636.618
-35.3218
-34.5816
-33.8146
-33.0247
-32.2159
-31.3918
-30.5555
-29.7107
-28.8599
-28.0063
-27.1525
-26.3009
-25.4539
-24.6138
-23.7826
-22.9624
-22.1551
-21.3623
-20.586
-19.8279
-19.0895
-18.3724
-17.6782
-17.0085
-16.3651
-15.7496
-15.1634
-14.6095
-14.0902
-13.6002
-13.1468
-12.7792
-12.404
-11.8187
-12.0372
-13.163
-531.998
-557.312
-583.186
-609.61
-636.655
-664.296
-37.2452
-36.4784
-35.6828
-34.8626
-34.0218
-33.1641
-32.2931
-31.4122
-30.5245
-29.6328
-28.74
-27.8488
-26.9614
-26.0802
-25.2074
-24.3451
-23.495
-22.6592
-21.8392
-21.0368
-20.2536
-19.4911
-18.7509
-18.0344
-17.3432
-16.6789
-16.0429
-15.4368
-14.8632
-14.3246
-13.8153
-13.3416
-12.9558
-12.5643
-11.9455
-12.1473
-13.3373
-532.012
-557.322
-583.193
-609.614
-636.668
-664.33
-692.679
-39.252
-38.458
-37.6331
-36.7817
-35.9082
-35.0161
-34.1095
-33.1915
-32.2657
-31.335
-30.4022
-29.4702
-28.5413
-27.6181
-26.7027
-25.7972
-24.9036
-24.0237
-23.1593
-22.312
-21.4835
-20.6752
-19.8887
-19.1252
-18.3864
-17.6735
-16.9881
-16.3316
-15.7053
-15.1118
-14.5538
-14.0249
-13.5306
-13.1258
-12.718
-12.065
-12.248
-13.5052
-532.025
-557.331
-583.198
-609.615
-636.669
-664.339
-692.707
-721.757
-41.3455
-40.5236
-39.6687
-38.7854
-37.8782
-36.9508
-36.0075
-35.0516
-34.0865
-33.1156
-32.1418
-31.1678
-30.1964
-29.23
-28.2707
-27.3212
-26.3829
-25.458
-24.5483
-23.6553
-22.7807
-21.926
-21.0926
-20.2819
-19.4952
-18.7338
-17.9992
-17.2926
-16.6155
-15.9688
-15.3552
-14.7774
-14.2287
-13.7134
-13.2891
-12.8648
-12.177
-12.3388
-13.6659
-532.038
-557.34
-583.203
-609.618
-636.666
-664.335
-692.713
-721.782
-751.624
-43.5291
-42.6787
-41.793
-40.877
-39.9352
-38.9716
-37.9904
-36.9954
-35.9901
-34.9778
-33.9617
-32.9446
-31.9293
-30.9185
-29.9144
-28.9192
-27.9353
-26.9642
-26.0081
-25.0685
-24.1469
-23.2449
-22.364
-21.5055
-20.6705
-19.8605
-19.0767
-18.3201
-17.5923
-16.8943
-16.2272
-15.5932
-14.9952
-14.4264
-13.8898
-13.4455
-13.0046
-12.2814
-12.4193
-13.8188
-532.052
-557.349
-583.207
-609.617
-636.661
-664.328
-692.704
-721.784
-751.643
-782.333
-45.8065
-44.9266
-44.0095
-43.0599
-42.0824
-41.0816
-40.0615
-39.0263
-37.9794
-36.9245
-35.8648
-34.8033
-33.743
-32.6863
-31.6359
-30.5942
-29.5632
-28.5448
-27.541
-26.5535
-25.584
-24.6338
-23.7045
-22.7974
-21.9136
-21.0545
-20.2211
-19.4146
-18.6361
-17.8869
-17.1679
-16.4801
-15.8256
-15.2073
-14.6181
-14.0596
-13.5947
-13.1371
-12.378
-12.4893
-13.9644
-532.065
-557.357
-583.211
-609.616
-636.656
-664.318
-692.691
-721.769
-751.64
-782.348
-813.945
-48.1813
-47.2714
-46.3219
-45.3376
-44.3235
-43.2843
-42.2241
-41.1475
-40.0578
-38.959
-37.8545
-36.7471
-35.6402
-34.5366
-33.4385
-32.3487
-31.2692
-30.2021
-29.1494
-28.1129
-27.0941
-26.0946
-25.1159
-24.1592
-23.2259
-22.3169
-21.4335
-20.5767
-19.7476
-18.947
-18.1762
-17.4361
-16.7275
-16.0522
-15.4133
-14.8034
-14.2227
-13.7366
-13.2622
-12.4668
-12.5485
-14.1019
-532.077
-557.365
-583.213
-609.614
-636.649
-664.307
-692.674
-721.749
-751.617
-782.335
-813.952
-846.509
-50.6574
-49.7169
-48.7338
-47.7139
-46.6621
-45.5834
-44.4822
-43.3627
-42.229
-41.0849
-39.9339
-38.7794
-37.6244
-36.4722
-35.325
-34.1856
-33.0561
-31.939
-30.8359
-29.7489
-28.6796
-27.6295
-26.6002
-25.5928
-24.6088
-23.6492
-22.7151
-21.8074
-20.9271
-20.0753
-19.2526
-18.4602
-17.6988
-16.9691
-16.2728
-15.613
-14.9822
-14.379
-13.8709
-13.3796
-12.5474
-12.5965
-14.2302
-532.089
-557.372
-583.214
-609.612
-636.641
-664.294
-692.657
-721.728
-751.593
-782.309
-813.935
-846.511
-880.176
-53.2391
-52.2667
-51.2494
-50.193
-49.1026
-47.9829
-46.8392
-45.6756
-44.4965
-43.3056
-42.1068
-40.9035
-39.6991
-38.4965
-37.2987
-36.108
-34.9272
-33.7581
-32.6032
-31.4642
-30.3429
-29.2409
-28.1596
-27.1004
-26.0645
-25.0531
-24.0673
-23.1079
-22.1759
-21.2722
-20.3976
-19.5527
-18.7385
-17.9558
-17.2049
-16.4874
-15.8064
-15.1544
-14.5281
-13.9976
-13.4892
-12.6199
-12.633
-14.3507
-532.098
-557.376
-583.215
-609.607
-636.631
-664.28
-692.638
-721.705
-751.565
-782.277
-813.901
-846.487
-880.17
-914.989
-55.9304
-54.9254
-53.8729
-52.7787
-51.6483
-50.4869
-49.2992
-48.0901
-46.8641
-45.6249
-44.3768
-43.1232
-41.8676
-40.6132
-39.3628
-38.1195
-36.8853
-35.6629
-34.4544
-33.2618
-32.0868
-30.9312
-29.7965
-28.6839
-27.5949
-26.5305
-25.4919
-24.4798
-23.4953
-22.539
-21.6118
-20.7142
-19.8471
-19.0111
-18.2069
-17.4345
-16.6956
-15.9933
-15.3197
-14.6701
-14.1163
-13.5907
-12.6841
-12.6575
-14.4619
-532.106
-557.379
-583.212
-609.6
-636.62
-664.263
-692.615
-721.677
-751.533
-782.241
-813.861
-846.446
-880.137
-914.977
-951.068
-58.7359
-57.6973
-56.6086
-55.4755
-54.3039
-53.0992
-51.8665
-50.6103
-49.3358
-48.0468
-46.7476
-45.4421
-44.1336
-42.8255
-41.5211
-40.2229
-38.9339
-37.6562
-36.3924
-35.1444
-33.9141
-32.7033
-31.5135
-30.3461
-29.2024
-28.0836
-26.9908
-25.9249
-24.8866
-23.8769
-22.8963
-21.9456
-21.0252
-20.1357
-19.2777
-18.4518
-17.658
-16.8974
-16.1734
-15.478
-14.8047
-14.2269
-13.6839
-12.7399
-12.67
-14.5626
-532.112
-557.38
-583.207
-609.591
-636.604
-664.244
-692.592
-721.649
-751.5
-782.202
-813.817
-846.398
-880.089
-914.936
-951.045
-988.536
-61.6605
-60.5873
-59.461
-58.288
-57.0738
-55.8243
-54.545
-53.2405
-51.9158
-50.5754
-49.2237
-47.8641
-46.5009
-45.1377
-43.777
-42.4223
-41.0763
-39.7417
-38.4206
-37.1154
-35.8279
-34.56
-33.3134
-32.0894
-30.8895
-29.7148
-28.5662
-27.445
-26.3519
-25.2874
-24.2526
-23.2477
-22.2734
-21.3301
-20.4183
-19.5383
-18.6906
-17.8751
-17.0926
-16.3466
-15.6292
-14.9317
-14.3293
-13.7688
-12.7873
-12.67
-14.6542
-532.114
-557.378
-583.199
-609.578
-636.587
-664.222
-692.564
-721.616
-751.461
-782.16
-813.77
-846.347
-880.032
-914.877
-950.996
-988.504
-1027.6
-64.7088
-63.5997
-62.4351
-61.2206
-59.9626
-58.6672
-57.3394
-55.985
-54.6087
-53.2149
-51.8085
-50.3937
-48.9738
-47.553
-46.1346
-44.7214
-43.3167
-41.9227
-40.5426
-39.1782
-37.8315
-36.5046
-35.1993
-33.9168
-32.6588
-31.4264
-30.2206
-29.0425
-27.893
-26.7726
-25.6821
-24.6221
-23.593
-22.5951
-21.6289
-20.6946
-19.7925
-18.923
-18.0856
-17.2811
-16.5128
-15.7731
-15.0511
-14.4232
-13.8449
-12.8262
-12.6571
-14.7357
-532.112
-557.371
-583.187
-609.562
-636.565
-664.196
-692.533
-721.58
-751.422
-782.113
-813.717
-846.289
-879.97
-914.811
-950.927
-988.445
-1027.55
-1068.3
-67.8864
-66.7404
-65.5356
-64.2787
-62.9752
-61.6322
-60.2548
-58.8483
-57.4187
-55.97
-54.5072
-53.0348
-51.5565
-50.0763
-48.5976
-47.1241
-45.6582
-44.2035
-42.7618
-41.3362
-39.9283
-38.5404
-37.1743
-35.8315
-34.5134
-33.2214
-31.9565
-30.7199
-29.5123
-28.3344
-27.1869
-26.0704
-24.9853
-23.9319
-22.9106
-21.9214
-20.9646
-20.0403
-19.1487
-18.2894
-17.4626
-16.6718
-15.9094
-15.1626
-14.5085
-13.9122
-12.8564
-12.6313
-14.8065
-532.106
-557.36
-583.17
-609.54
-636.539
-664.165
-692.497
-721.54
-751.375
-782.062
-813.662
-846.229
-879.904
-914.74
-950.852
-988.367
-1027.48
-1068.24
-1110.9
-71.1985
-70.0144
-68.7683
-67.4669
-66.1169
-64.7242
-63.2955
-61.8357
-60.3506
-58.8452
-57.3242
-55.7921
-54.253
-52.7117
-51.1708
-49.6344
-48.1056
-46.5873
-45.0823
-43.5931
-42.1219
-40.6709
-39.2418
-37.8365
-36.4562
-35.1026
-33.7768
-32.4796
-31.2122
-29.9751
-28.7691
-27.5947
-26.4522
-25.342
-24.2644
-23.2195
-22.2074
-21.228
-20.2815
-19.3678
-18.4863
-17.637
-16.8234
-16.0382
-15.2662
-14.5851
-13.9706
-12.878
-12.5921
-14.8645
-532.095
-557.344
-583.149
-609.514
-636.508
-664.13
-692.456
-721.494
-751.324
-782.007
-813.6
-846.162
-879.832
-914.662
-950.769
-988.28
-1027.39
-1068.16
-1110.83
-1155.56
-74.6507
-73.4272
-72.1382
-70.7913
-69.3924
-67.9491
-66.4668
-64.952
-63.4097
-61.8452
-60.2639
-58.6702
-57.0685
-55.4632
-53.8583
-52.257
-50.6626
-49.0788
-47.508
-45.953
-44.4159
-42.8996
-41.4053
-39.9353
-38.4908
-37.0734
-35.6845
-34.3248
-32.9955
-31.6974
-30.4309
-29.1968
-27.9955
-26.8271
-25.692
-24.5902
-23.5218
-22.4867
-21.4847
-20.5159
-19.58
-18.6762
-17.8043
-16.9676
-16.1592
-15.3617
-14.6527
-14.0197
-12.8911
-12.5392
-14.9116
-532.078
-557.321
-583.121
-609.481
-636.469
-664.088
-692.409
-721.442
-751.268
-781.945
-813.532
-846.09
-879.753
-914.577
-950.679
-988.184
-1027.29
-1068.06
-1110.73
-1155.48
-1202.55
-78.2498
-76.9853
-75.6516
-74.2573
-72.8083
-71.3121
-69.7746
-68.2022
-66.6007
-64.9757
-63.3318
-61.6741
-60.0076
-58.3365
-56.6644
-54.996
-53.334
-51.6821
-50.0431
-48.4198
-46.8149
-45.2303
-43.6688
-42.1314
-40.6203
-39.137
-37.6825
-36.2583
-34.8651
-33.5038
-32.1751
-30.8795
-29.6175
-28.3892
-27.195
-26.035
-24.909
-23.8172
-22.7591
-21.7346
-20.7434
-19.7851
-18.8589
-17.9642
-17.1042
-16.2723
-15.449
-14.7113
-14.0595
-12.8956
-12.4722
-14.9467
-532.054
-557.293
-583.086
-609.442
-636.425
-664.038
-692.355
-721.383
-751.204
-781.876
-813.459
-846.011
-879.667
-914.486
-950.583
-988.083
-1027.18
-1067.94
-1110.62
-1155.36
-1202.45
-1252.08
-82.002
-80.6941
-79.3148
-77.8707
-76.37
-74.8191
-73.2246
-71.5926
-69.9296
-68.2413
-66.5327
-64.8089
-63.0751
-61.3358
-59.5948
-57.8562
-56.1244
-54.4018
-52.692
-50.998
-49.3224
-47.6676
-46.0357
-44.429
-42.8488
-41.2969
-39.7747
-38.2835
-36.824
-35.3975
-34.0043
-32.6452
-31.3205
-30.0305
-28.7757
-27.5558
-26.3709
-25.2209
-24.1055
-23.0245
-21.9774
-20.9637
-19.9831
-19.0343
-18.1166
-17.233
-16.3774
-15.528
-14.7607
-14.0897
-12.8915
-12.3911
-14.9689
-532.023
-557.255
-583.042
-609.394
-636.371
-663.98
-692.292
-721.316
-751.132
-781.799
-813.377
-845.924
-879.575
-914.387
-950.476
-987.97
-1027.06
-1067.82
-1110.49
-1155.23
-1202.32
-1251.96
-1304.49
-85.9138
-84.5612
-83.1332
-81.6382
-80.0836
-78.4759
-76.822
-75.1287
-73.4021
-71.648
-69.8724
-68.0802
-66.2769
-64.4664
-62.6538
-60.8433
-59.0381
-57.2425
-55.4594
-53.6922
-51.9432
-50.2151
-48.5107
-46.8314
-45.1797
-43.557
-41.9646
-40.4037
-38.8757
-37.3815
-35.9215
-34.4967
-33.1073
-31.7537
-30.4361
-29.1546
-27.9091
-26.6994
-25.5254
-24.3867
-23.2827
-22.213
-21.1768
-20.1737
-19.2023
-18.2614
-17.3539
-16.4744
-15.5986
-14.8009
-14.1101
-12.8788
-12.2956
-14.9772
-531.983
-557.209
-582.99
-609.337
-636.309
-663.913
-692.22
-721.24
-751.052
-781.713
-813.285
-845.828
-879.473
-914.279
-950.363
-987.85
-1026.94
-1067.69
-1110.35
-1155.08
-1202.17
-1251.81
-1304.35
-1360.07
-89.9923
-88.5934
-87.1149
-85.5668
-83.9558
-82.289
-80.5732
-78.8161
-77.024
-75.2019
-73.3566
-71.4937
-69.6178
-67.7341
-65.847
-63.9613
-62.0811
-60.2096
-58.3501
-56.5064
-54.6816
-52.8779
-51.0978
-49.344
-47.6177
-45.9211
-44.2558
-42.6229
-41.0237
-39.4592
-37.9301
-36.4372
-34.9808
-33.5613
-32.1789
-30.8338
-29.5258
-28.2548
-27.0205
-25.8226
-24.6605
-23.5336
-22.4412
-21.3826
-20.3569
-19.3627
-18.3984
-17.4669
-16.5631
-15.6607
-14.8318
-14.1207
-12.8577
-12.1855
-14.972
-531.934
-557.153
-582.928
-609.269
-636.235
-663.835
-692.137
-721.152
-750.96
-781.618
-813.183
-845.722
-879.361
-914.16
-950.24
-987.721
-1026.8
-1067.54
-1110.19
-1154.93
-1202
-1251.64
-1304.18
-1359.89
-1419.23
-94.2451
-92.7973
-91.267
-89.6633
-87.9935
-86.2652
-84.4854
-82.6619
-80.8011
-78.909
-76.9913
-75.0546
-73.1037
-71.1442
-69.18
-67.2166
-65.2576
-63.3077
-61.3693
-59.4468
-57.5426
-55.6603
-53.8019
-51.97
-50.1666
-48.3935
-46.6524
-44.9448
-43.2717
-41.6344
-40.0335
-38.4698
-36.944
-35.4563
-34.0069
-32.5959
-31.2234
-29.8891
-28.5927
-27.3339
-26.1121
-24.9267
-23.777
-22.662
-21.5808
-20.5325
-19.5154
-18.5276
-17.5717
-16.6434
-15.7144
-14.8532
-14.1213
-12.8283
-12.0607
-14.9527
-531.874
-557.086
-582.854
-609.19
-636.15
-663.745
-692.042
-721.053
-750.857
-781.51
-813.07
-845.604
-879.239
-914.033
-950.104
-987.579
-1026.65
-1067.38
-1110.03
-1154.75
-1201.82
-1251.45
-1303.98
-1359.7
-1419.03
-1482.42
-98.6806
-97.1818
-95.5968
-93.9344
-92.2036
-90.411
-88.565
-86.673
-84.7404
-82.7751
-80.7829
-78.7698
-76.7411
-74.7022
-72.6583
-70.6143
-68.5741
-66.5419
-64.5221
-62.5171
-60.5314
-58.5672
-56.6275
-54.7148
-52.8311
-50.9785
-49.1587
-47.3732
-45.6234
-43.9106
-42.2351
-40.5982
-39.0004
-37.4418
-35.923
-34.4438
-33.0045
-31.6047
-30.2442
-28.9226
-27.6394
-26.3938
-25.1852
-24.0126
-22.8751
-21.7713
-20.7003
-19.6603
-18.6489
-17.6684
-16.7154
-15.7594
-14.8652
-14.1116
-12.7908
-11.9211
-14.9191
-531.802
-557.007
-582.767
-609.098
-636.052
-663.642
-691.933
-720.941
-750.74
-781.388
-812.943
-845.473
-879.102
-913.89
-949.955
-987.424
-1026.49
-1067.21
-1109.85
-1154.56
-1201.63
-1251.24
-1303.77
-1359.47
-1418.79
-1482.18
-1550.15
-103.307
-101.754
-100.112
-98.389
-96.5946
-94.7352
-92.8196
-90.8559
-88.8491
-86.8082
-84.7378
-82.6453
-80.5361
-78.4151
-76.2883
-74.1601
-72.0358
-69.9191
-67.8137
-65.7239
-63.6528
-61.604
-59.5796
-57.5828
-55.6158
-53.6808
-51.7791
-49.913
-48.0835
-46.2918
-44.5391
-42.826
-41.1533
-39.5213
-37.9304
-36.3806
-34.872
-33.4044
-31.9776
-30.5911
-29.2444
-27.9368
-26.6676
-25.4358
-24.2405
-23.0803
-21.954
-20.8603
-19.7972
-18.7621
-17.7569
-16.7788
-15.7958
-14.8676
-14.0917
-12.7453
-11.7665
-14.87
-531.716
-556.914
-582.667
-608.991
-635.939
-663.525
-691.81
-720.812
-750.607
-781.251
-812.802
-845.327
-878.95
-913.734
-949.793
-987.255
-1026.31
-1067.03
-1109.66
-1154.36
-1201.41
-1251.02
-1303.54
-1359.23
-1418.54
-1481.91
-1549.88
-1623.14
-108.133
-106.523
-104.821
-103.035
-101.173
-99.2446
-97.2571
-95.2181
-93.1343
-91.0142
-88.8636
-86.6878
-84.4947
-82.2891
-80.0759
-77.8608
-75.6486
-73.4438
-71.2504
-69.0722
-66.9129
-64.7756
-62.6637
-60.5794
-58.5259
-56.5046
-54.5183
-52.5682
-50.6558
-48.7824
-46.9492
-45.1571
-43.4065
-41.6982
-40.0325
-38.4093
-36.8288
-35.291
-33.7954
-32.3417
-30.9294
-29.5577
-28.226
-26.9333
-25.6785
-24.4604
-23.2777
-22.1288
-21.0124
-19.9262
-18.8672
-17.837
-16.8336
-15.8236
-14.8606
-14.0612
-12.6921
-11.5968
-14.8047
-531.617
-556.805
-582.551
-608.868
-635.809
-663.39
-691.669
-720.668
-750.458
-781.098
-812.643
-845.164
-878.782
-913.56
-949.614
-987.069
-1026.11
-1066.83
-1109.44
-1154.14
-1201.18
-1250.78
-1303.28
-1358.97
-1418.27
-1481.63
-1549.57
-1622.82
-1702.17
-113.169
-111.5
-109.734
-107.88
-105.949
-103.947
-101.884
-99.7676
-97.6037
-95.4013
-93.1661
-90.905
-88.6246
-86.3304
-84.0279
-81.7227
-79.4194
-77.1231
-74.8379
-72.5678
-70.3164
-68.0879
-65.8847
-63.71
-61.566
-59.4558
-57.3811
-55.3436
-53.3451
-51.3867
-49.4699
-47.5955
-45.7642
-43.9766
-42.233
-40.5336
-38.8785
-37.2677
-35.7006
-34.1773
-32.6969
-31.259
-29.8625
-28.5068
-27.1906
-25.9129
-24.6722
-23.467
-22.2956
-21.1564
-20.047
-18.9641
-17.9088
-16.8799
-15.8427
-14.8442
-14.0202
-12.6316
-11.412
-14.7225
-531.501
-556.679
-582.416
-608.727
-635.661
-663.237
-691.51
-720.505
-750.29
-780.926
-812.467
-844.983
-878.595
-913.368
-949.416
-986.864
-1025.9
-1066.61
-1109.22
-1153.9
-1200.93
-1250.52
-1303.01
-1358.68
-1417.97
-1481.31
-1549.24
-1622.46
-1701.78
-1787.71
-118.425
-116.692
-114.859
-112.936
-110.931
-108.854
-106.711
-104.513
-102.265
-99.9769
-97.6539
-95.3039
-92.9325
-90.5465
-88.151
-85.7518
-83.3544
-80.9629
-78.5823
-76.2166
-73.8704
-71.5462
-69.2485
-66.9796
-64.7422
-62.539
-60.3727
-58.2444
-56.1563
-54.1095
-52.1059
-50.1459
-48.2303
-46.3601
-44.5357
-42.757
-41.0243
-39.3376
-37.6966
-36.1008
-34.5498
-33.0431
-31.5797
-30.1586
-28.779
-27.4396
-26.139
-24.8757
-23.6481
-22.4542
-21.2922
-20.1597
-19.0528
-17.9721
-16.9175
-15.8532
-14.8185
-13.9687
-12.5638
-11.2119
-14.6245
-531.369
-556.536
-582.264
-608.567
-635.494
-663.063
-691.33
-720.32
-750.102
-780.733
-812.27
-844.781
-878.388
-913.155
-949.196
-986.639
-1025.67
-1066.36
-1108.96
-1153.64
-1200.66
-1250.24
-1302.71
-1358.37
-1417.64
-1480.97
-1548.88
-1622.08
-1701.37
-1787.25
-1880.56
-123.911
-122.112
-120.208
-118.21
-116.128
-113.971
-111.745
-109.462
-107.128
-104.749
-102.335
-99.8925
-97.4264
-94.9449
-92.4526
-89.9558
-87.46
-84.9702
-82.4904
-80.0256
-77.5798
-75.1574
-72.7609
-70.3942
-68.0596
-65.7601
-63.4981
-61.2756
-59.0941
-56.9556
-54.8613
-52.8123
-50.8094
-48.8533
-46.9447
-45.0835
-43.2702
-41.5045
-39.7864
-38.1155
-36.4912
-34.9129
-33.38
-31.8912
-30.4458
-29.0425
-27.6799
-26.3566
-25.0709
-23.8209
-22.6045
-21.4198
-20.264
-19.1331
-18.027
-16.9464
-15.8551
-14.7835
-13.9061
-12.4893
-10.9974
-14.5078
-531.219
-556.374
-582.091
-608.385
-635.304
-662.867
-691.128
-720.113
-749.89
-780.517
-812.049
-844.557
-878.157
-912.919
-948.955
-986.392
-1025.41
-1066.1
-1108.69
-1153.36
-1200.37
-1249.93
-1302.39
-1358.03
-1417.29
-1480.6
-1548.49
-1621.67
-1700.93
-1786.77
-1880
-1985.18
-129.64
-127.769
-125.791
-123.715
-121.552
-119.31
-116.998
-114.625
-112.199
-109.728
-107.219
-104.678
-102.115
-99.5327
-96.9401
-94.3424
-91.7443
-89.1514
-86.569
-84.0013
-81.453
-78.9271
-76.4286
-73.9599
-71.5242
-69.1244
-66.7633
-64.4424
-62.164
-59.93
-57.7414
-55.5996
-53.5059
-51.4604
-49.4642
-47.5172
-45.6199
-43.7722
-41.9739
-40.2247
-38.5242
-36.8716
-35.2663
-33.7073
-32.1935
-30.7239
-29.2971
-27.9115
-26.5656
-25.2575
-23.9852
-22.7465
-21.539
-20.3601
-19.2051
-18.0734
-16.9667
-15.8485
-14.7394
-13.8328
-12.4088
-10.7681
-14.3735
-531.05
-556.192
-581.896
-608.181
-635.091
-662.648
-690.902
-719.881
-749.653
-780.275
-811.803
-844.307
-877.902
-912.658
-948.688
-986.119
-1025.13
-1065.81
-1108.39
-1153.05
-1200.04
-1249.59
-1302.04
-1357.67
-1416.9
-1480.19
-1548.06
-1621.22
-1700.46
-1786.26
-1879.43
-1984.5
-2106.15
-135.624
-133.677
-131.619
-129.46
-127.211
-124.881
-122.478
-120.012
-117.49
-114.921
-112.313
-109.671
-107.005
-104.32
-101.622
-98.9186
-96.214
-93.5147
-90.8248
-88.1503
-85.495
-82.8629
-80.2573
-77.683
-75.1421
-72.6381
-70.1735
-67.7506
-65.3715
-63.0379
-60.7515
-58.5135
-56.3247
-54.1862
-52.0987
-50.0625
-48.0778
-46.1446
-44.2629
-42.4322
-40.6524
-38.9225
-37.2419
-35.6097
-34.0249
-32.4864
-30.9928
-29.5426
-28.1342
-26.7658
-25.4356
-24.1411
-22.8801
-21.6499
-20.4477
-19.2688
-18.1115
-16.9783
-15.8335
-14.6864
-13.7485
-12.3225
-10.5242
-14.2206
-530.863
-555.989
-581.679
-607.953
-634.853
-662.402
-690.648
-719.622
-749.389
-780.006
-811.529
-844.029
-877.618
-912.369
-948.393
-985.817
-1024.82
-1065.49
-1108.06
-1152.71
-1199.69
-1249.23
-1301.65
-1357.27
-1416.48
-1479.75
-1547.59
-1620.73
-1699.93
-1785.71
-1878.84
-1983.81
-2105.42
-2176.53
-141.875
-139.847
-137.705
-135.459
-133.119
-130.696
-128.197
-125.632
-123.011
-120.34
-117.627
-114.88
-112.106
-109.313
-106.507
-103.693
-100.877
-98.067
-95.2661
-92.4802
-89.7134
-86.9702
-84.2543
-81.5692
-78.9196
-76.3071
-73.7353
-71.2063
-68.7222
-66.2852
-63.8967
-61.5582
-59.2709
-57.0356
-54.853
-52.7239
-50.648
-48.626
-46.6573
-44.7419
-42.8793
-41.0689
-39.31
-37.6017
-35.9431
-34.3328
-32.7697
-31.2522
-29.7789
-28.3479
-26.9572
-25.6048
-24.2884
-23.0051
-21.7523
-20.527
-19.3241
-18.1411
-16.9814
-15.81
-14.6248
-13.6533
-12.2309
-10.2663
-14.0484
-530.656
-555.764
-581.439
-607.7
-634.589
-662.128
-690.368
-719.336
-749.096
-779.707
-811.225
-843.72
-877.304
-912.049
-948.067
-985.485
-1024.48
-1065.14
-1107.7
-1152.34
-1199.3
-1248.83
-1301.24
-1356.83
-1416.02
-1479.27
-1547.08
-1620.19
-1699.37
-1785.11
-1878.2
-1983.1
-2104.63
-2175.61
-2199
-148.407
-146.293
-144.061
-141.723
-139.287
-136.765
-134.165
-131.497
-128.77
-125.992
-123.171
-120.313
-117.428
-114.523
-111.602
-108.674
-105.743
-102.817
-99.9005
-96.9986
-94.1158
-91.2573
-88.4261
-85.6272
-82.8632
-80.1384
-77.4545
-74.8153
-72.2222
-69.6775
-67.1827
-64.7399
-62.3497
-60.0137
-57.7324
-55.5061
-53.3356
-51.2207
-49.1615
-47.1578
-45.2091
-43.3148
-41.4743
-39.6867
-37.951
-36.2661
-34.6306
-33.0431
-31.5022
-30.0059
-28.5524
-27.1396
-25.7653
-24.4269
-23.1215
-21.8462
-20.5978
-19.371
-18.1623
-16.9759
-15.7784
-14.555
-13.5469
-12.1349
-9.99508
-13.8577
-530.428
-555.517
-581.174
-607.421
-634.297
-661.827
-690.056
-719.018
-748.771
-779.376
-810.888
-843.379
-876.956
-911.696
-947.708
-985.12
-1024.1
-1064.76
-1107.31
-1151.93
-1198.88
-1248.39
-1300.78
-1356.35
-1415.52
-1478.74
-1546.53
-1619.6
-1698.74
-1784.44
-1877.48
-1982.33
-2103.79
-2174.86
-2198.08
-2221.79
-155.236
-153.03
-150.702
-148.265
-145.728
-143.102
-140.396
-137.619
-134.781
-131.89
-128.954
-125.982
-122.981
-119.957
-116.918
-113.87
-110.819
-107.773
-104.736
-101.713
-98.71
-95.7314
-92.7806
-89.8625
-86.9806
-84.1383
-81.3383
-78.584
-75.8774
-73.2204
-70.6155
-68.0636
-65.5668
-63.1257
-60.7413
-58.4143
-56.145
-53.9336
-51.78
-49.6842
-47.6457
-45.6641
-43.7385
-41.8682
-40.0523
-38.2895
-36.5786
-34.9182
-33.3067
-31.7424
-30.2233
-28.7476
-27.3129
-25.9168
-24.5566
-23.2293
-21.9316
-20.6602
-19.4095
-18.1753
-16.962
-15.7388
-14.4775
-13.4294
-12.0352
-9.71121
-13.645
-530.174
-555.247
-580.886
-607.116
-633.977
-661.494
-689.713
-718.667
-748.413
-779.01
-810.516
-843.003
-876.574
-911.307
-947.312
-984.717
-1023.69
-1064.34
-1106.88
-1151.49
-1198.42
-1247.91
-1300.28
-1355.83
-1414.98
-1478.17
-1545.93
-1618.96
-1698.06
-1783.71
-1876.7
-1981.48
-2102.88
-2173.97
-2197.31
-2220.89
-2245.12
-162.377
-160.072
-157.643
-155.1
-152.455
-149.719
-146.901
-144.01
-141.055
-138.046
-134.991
-131.897
-128.774
-125.627
-122.463
-119.291
-116.116
-112.944
-109.781
-106.633
-103.504
-100.4
-97.3252
-94.2834
-91.2787
-88.3142
-85.3932
-82.5193
-79.6941
-76.9209
-74.2009
-71.5363
-68.9276
-66.3775
-63.886
-61.4537
-59.0813
-56.7692
-54.5174
-52.3257
-50.1937
-48.1209
-46.1066
-44.1502
-42.2506
-40.4066
-38.6171
-36.8805
-35.1955
-33.5601
-31.9727
-30.4312
-28.9335
-27.477
-26.0593
-24.6775
-23.3283
-22.0084
-20.7141
-19.4397
-18.1802
-16.9398
-15.6912
-14.3923
-13.3008
-11.9328
-9.41476
-13.4142
-529.878
-554.941
-580.566
-606.784
-633.63
-661.133
-689.338
-718.282
-748.019
-778.608
-810.107
-842.589
-876.153
-910.878
-946.877
-984.275
-1023.24
-1063.88
-1106.4
-1151
-1197.92
-1247.39
-1299.74
-1355.27
-1414.39
-1477.55
-1545.27
-1618.27
-1697.32
-1782.92
-1875.84
-1980.54
-2101.87
-2172.98
-2196.43
-2220.15
-2244.22
-2268.56
-169.849
-167.437
-164.899
-162.244
-159.485
-156.631
-153.694
-150.682
-147.605
-144.472
-141.291
-138.07
-134.818
-131.542
-128.249
-124.947
-121.642
-118.339
-115.045
-111.766
-108.507
-105.273
-102.068
-98.897
-95.7642
-92.6729
-89.6265
-86.6279
-83.6802
-80.7852
-77.9457
-75.163
-72.4389
-69.7747
-67.1713
-64.6297
-62.1501
-59.7331
-57.3787
-55.0869
-52.8575
-50.6897
-48.5829
-46.5367
-44.5498
-42.6211
-40.7495
-38.9335
-37.1716
-35.4621
-33.8033
-32.193
-30.6293
-29.1097
-27.6318
-26.1927
-24.7895
-23.4186
-22.0766
-20.7596
-19.4617
-18.177
-16.9095
-15.6359
-14.3005
-13.1612
-11.8285
-9.10754
-13.1632
-529.548
-554.589
-580.203
-606.412
-633.248
-660.741
-688.932
-717.864
-747.59
-778.169
-809.66
-842.134
-875.691
-910.409
-946.4
-983.79
-1022.74
-1063.37
-1105.88
-1150.47
-1197.37
-1246.82
-1299.15
-1354.65
-1413.74
-1476.87
-1544.55
-1617.5
-1696.51
-1782.05
-1874.9
-1979.53
-2100.76
-2171.89
-2195.43
-2219.28
-2243.47
-2267.71
-2292.58
-177.666
-175.142
-172.487
-169.713
-166.831
-163.853
-160.79
-157.65
-154.443
-151.179
-147.866
-144.512
-141.126
-137.715
-134.287
-130.849
-127.407
-123.968
-120.538
-117.122
-113.726
-110.356
-107.017
-103.712
-100.446
-97.223
-94.045
-90.9171
-87.8414
-84.8204
-81.8564
-78.9512
-76.1063
-73.3236
-70.6038
-67.948
-65.3568
-62.8305
-60.3694
-57.9732
-55.6419
-53.3751
-51.172
-49.0319
-46.954
-44.9368
-42.9796
-41.0807
-39.2386
-37.4517
-35.7181
-34.036
-32.4033
-30.8175
-29.2764
-27.7771
-26.3168
-24.8924
-23.5001
-22.1362
-20.7967
-19.4756
-18.1659
-16.8713
-15.573
-14.2026
-13.0104
-11.7233
-8.79071
-12.8896
-529.199
-554.21
-579.801
-605.993
-632.817
-660.305
-688.489
-717.41
-747.126
-777.693
-809.174
-841.639
-875.187
-909.897
-945.879
-983.261
-1022.2
-1062.82
-1105.32
-1149.88
-1196.77
-1246.2
-1298.5
-1353.97
-1413.03
-1476.13
-1543.77
-1616.67
-1695.63
-1781.1
-1873.87
-1978.41