/*--------------------------------*- C++ -*----------------------------------*\
  =========                 |
  \\      /  F ield         | OpenFOAM: The Open Source CFD Toolbox
   \\    /   O peration     | Website:  https://openfoam.org
    \\  /    A nd           | Version:  7
     \\/     M anipulation  |
\*---------------------------------------------------------------------------*/
FoamFile
{
    version     2.0;
    format      ascii;
    class       surfaceScalarField;
    location    "800";
    object      phi;
}
// * * * * * * * * * * * * * * * * * * * * * * * * * * * * * * * * * * * * * //

dimensions      [0 3 -1 0 0 0 0];

internalField   nonuniform List<scalar> 
45818
(
0.0756462
0.146607
0.0724755
0.140197
0.0757432
0.14993
0.0694364
0.134072
0.0725659
0.143375
0.0758204
0.153245
0.0665273
0.128215
0.0695254
0.137113
0.0726381
0.146557
0.0758792
0.156552
0.0637311
0.122636
0.0666113
0.131129
0.069601
0.14015
0.0727088
0.149728
0.0759282
0.159856
0.0610595
0.117272
0.0638321
0.125415
0.0666904
0.134039
0.0696751
0.143183
0.0727661
0.15289
0.0759623
0.163157
0.058504
0.112156
0.061169
0.119935
0.0639147
0.128191
0.0667681
0.136947
0.069731
0.146218
0.0727987
0.156053
0.0759732
0.166467
0.0560581
0.107282
0.0585936
0.114731
0.0612317
0.122618
0.0639774
0.130982
0.066809
0.139868
0.0697586
0.149259
0.072818
0.159208
0.0759691
0.169761
0.0537122
0.102619
0.0561485
0.109727
0.0586783
0.117284
0.061308
0.125288
0.0640318
0.133759
0.0668635
0.142764
0.0697947
0.152282
0.0728174
0.16236
0.0759552
0.173051
0.0514649
0.0981601
0.0538044
0.104963
0.056235
0.112171
0.0587582
0.119834
0.0613744
0.127945
0.0640799
0.136543
0.0668981
0.14566
0.0697892
0.15531
0.0727935
0.165522
0.0759265
0.17632
0.0493166
0.0939019
0.051558
0.100407
0.0538868
0.107312
0.056304
0.114625
0.0588146
0.122394
0.0614175
0.130607
0.0641096
0.139331
0.0668961
0.148553
0.0697956
0.158308
0.0727915
0.168657
0.0758612
0.179588
0.0472573
0.0898349
0.0494029
0.0960571
0.0516435
0.10265
0.0539639
0.109652
0.0563703
0.117069
0.0588662
0.124945
0.0614557
0.133261
0.0641344
0.142093
0.0669025
0.151446
0.0697569
0.161343
0.0727246
0.171793
0.0757893
0.182853
0.0452793
0.0859503
0.0473454
0.0918924
0.0494915
0.098209
0.0517138
0.1049
0.0540234
0.111999
0.0564201
0.119515
0.058903
0.127498
0.0614606
0.135935
0.0641259
0.14487
0.0668807
0.154322
0.0697302
0.164337
0.0726662
0.174916
0.0756943
0.186097
0.0433952
0.0822304
0.0453705
0.0879251
0.0474272
0.0939567
0.0495613
0.100361
0.0517792
0.107144
0.0540754
0.114343
0.0564564
0.121962
0.0589214
0.130037
0.0614841
0.138577
0.0641261
0.147624
0.0668625
0.15719
0.0696752
0.167328
0.0725796
0.178031
0.0755794
0.189345
0.0415802
0.078688
0.0434783
0.0841227
0.0454555
0.0898968
0.0475002
0.0960178
0.0496299
0.102511
0.0518343
0.109385
0.0541248
0.116675
0.0564897
0.124394
0.0589485
0.132573
0.0614743
0.141229
0.0640979
0.150389
0.0667976
0.160068
0.069597
0.170311
0.0724865
0.181124
0.0754497
0.192572
0.0398506
0.0752915
0.0416701
0.0804962
0.0435601
0.0860181
0.0455253
0.0918717
0.0475705
0.0980772
0.0496831
0.104662
0.0518719
0.111638
0.0541489
0.119016
0.0565031
0.126839
0.0589287
0.135118
0.0614547
0.143872
0.0640465
0.15314
0.0667329
0.162932
0.069504
0.173293
0.0723518
0.184222
0.0752968
0.195786
0.0381886
0.0720585
0.0399309
0.0770306
0.0417487
0.0823076
0.0436394
0.0879039
0.0455938
0.0938484
0.0476183
0.100142
0.0497266
0.106807
0.0519132
0.113874
0.0541669
0.121352
0.0565077
0.12926
0.0589361
0.137637
0.0614252
0.146493
0.0640037
0.155869
0.0666567
0.165779
0.0693912
0.176254
0.0722123
0.187307
0.0751324
0.198972
0.0365957
0.068964
0.0382707
0.0737187
0.040015
0.0787644
0.0418248
0.0841222
0.0436997
0.089798
0.0456497
0.095817
0.0476749
0.102194
0.0497647
0.108956
0.0519343
0.116107
0.054176
0.123684
0.0564921
0.131704
0.0588832
0.140179
0.0613675
0.149129
0.0639226
0.158603
0.0665623
0.168608
0.0692734
0.179192
0.0720563
0.190383
0.0749132
0.202164
0.0350745
0.0660013
0.0366796
0.0705551
0.0383516
0.075382
0.0400828
0.0805064
0.0418869
0.085935
0.0437574
0.0916903
0.0456945
0.0977974
0.0477062
0.104252
0.0497903
0.1111
0.0519428
0.11834
0.0541725
0.126003
0.0564752
0.134112
0.0588524
0.142694
0.0612914
0.151761
0.0638367
0.161329
0.0664347
0.171447
0.0691176
0.182131
0.0718822
0.193414
0.0747058
0.205324
0.0336174
0.0631809
0.0351525
0.0675284
0.0367573
0.0721494
0.0384199
0.077045
0.0401531
0.0822401
0.0419428
0.0877496
0.043804
0.0935808
0.0457389
0.0997647
0.0477326
0.10631
0.0498033
0.113239
0.0519389
0.120573
0.0541551
0.128323
0.0564395
0.136525
0.0587984
0.145187
0.0612275
0.15437
0.0637176
0.164046
0.0662973
0.174267
0.0689435
0.18507
0.0716699
0.19645
0.0744653
0.208471
0.0322158
0.0604824
0.0336909
0.0646425
0.0352307
0.0690551
0.036831
0.0737383
0.0384856
0.0787125
0.0402058
0.0839771
0.0419975
0.0895561
0.0438479
0.0954718
0.0457635
0.101734
0.0477538
0.10836
0.0498052
0.115373
0.0519323
0.122796
0.0541202
0.130643
0.0563849
0.138938
0.058716
0.147698
0.0611268
0.156961
0.0635936
0.16675
0.06614
0.17707
0.0687664
0.187973
0.0714427
0.199472
0.0742
0.211604
0.0308781
0.0579021
0.0322897
0.0618836
0.0337695
0.0661037
0.0352962
0.0705899
0.0368885
0.0753354
0.0385465
0.0803718
0.0402609
0.0857137
0.0420382
0.0913658
0.0438793
0.097356
0.0457878
0.1037
0.0477574
0.110407
0.0497968
0.117508
0.0519019
0.125014
0.0540814
0.132946
0.0563178
0.141337
0.0586333
0.150192
0.0610063
0.159548
0.0634633
0.169426
0.065973
0.179864
0.0685443
0.190872
0.0711875
0.202485
0.0738982
0.21472
0.0295934
0.055441
0.030949
0.0592428
0.0323687
0.0632843
0.0338354
0.0675645
0.0353641
0.0721143
0.0369484
0.0769334
0.038592
0.0820407
0.0402998
0.0874521
0.0420663
0.0931788
0.0438981
0.0992457
0.0457959
0.105661
0.0477548
0.112449
0.0497759
0.119634
0.051869
0.127227
0.0540188
0.135245
0.0562418
0.143728
0.0585227
0.152676
0.0608845
0.162127
0.0632963
0.172103
0.0657812
0.182627
0.0683292
0.19373
0.0709341
0.205449
0.0735983
0.217803
0.0283645
0.0530871
0.0296637
0.0567262
0.0310221
0.0605894
0.0324337
0.064686
0.0338988
0.0690298
0.0354208
0.0736419
0.0370021
0.0785233
0.038644
0.0836965
0.0403397
0.0891788
0.0420969
0.0949799
0.043913
0.101129
0.0457915
0.107625
0.0477334
0.114492
0.0497474
0.121756
0.0518135
0.129432
0.053945
0.137542
0.0561483
0.146103
0.0584068
0.155153
0.0607175
0.164705
0.0631045
0.17478
0.0655577
0.185398
0.0680625
0.196602
0.0706209
0.208426
0.073247
0.220868
0.0271857
0.0508375
0.0284345
0.0543163
0.0297423
0.0580059
0.0310939
0.0619292
0.0324939
0.0660909
0.0339573
0.0704934
0.0354763
0.0751677
0.0370446
0.0801228
0.0386693
0.0853668
0.0403584
0.0909173
0.0421063
0.0967866
0.043918
0.103002
0.0457831
0.109575
0.0477144
0.116525
0.0496977
0.123872
0.0517478
0.131629
0.0538623
0.139828
0.0560297
0.14848
0.0582662
0.157605
0.0605577
0.167252
0.0629213
0.177416
0.0653229
0.188138
0.0677861
0.199437
0.0703246
0.211348
0.0728942
0.223902
0.0260588
0.0486876
0.0272572
0.0520148
0.0285066
0.055552
0.0298018
0.0592981
0.0311518
0.0632714
0.0325565
0.0674917
0.0340068
0.0719628
0.0355178
0.0766945
0.037083
0.0817091
0.0387062
0.087019
0.0403796
0.092644
0.0421181
0.0985865
0.0439078
0.104877
0.0457586
0.111531
0.0476665
0.118556
0.0496415
0.125978
0.0516709
0.133821
0.0537608
0.142097
0.0559048
0.150841
0.0581091
0.160053
0.060388
0.169785
0.0626866
0.180052
0.0650599
0.190864
0.0674849
0.202276
0.0699536
0.214289
0.072485
0.226935
0.0249769
0.0466355
0.0261269
0.0498179
0.0273234
0.053198
0.0285666
0.0567872
0.0298615
0.0605883
0.0312062
0.0646217
0.0326014
0.0688971
0.0340551
0.0734255
0.0355531
0.0782245
0.0371103
0.083305
0.0387191
0.0886795
0.0403881
0.094374
0.042106
0.100388
0.0438914
0.106745
0.0457302
0.113467
0.0476224
0.120575
0.0495705
0.128079
0.0515802
0.136001
0.0536418
0.14436
0.0557648
0.153185
0.0579395
0.162502
0.0601667
0.172305
0.0624555
0.182657
0.0647906
0.193559
0.067169
0.205061
0.0695994
0.217175
0.0720793
0.229922
0.0239428
0.0446731
0.025045
0.0477173
0.0261937
0.0509477
0.0273855
0.0543791
0.0286303
0.0580183
0.0299185
0.0618759
0.0312601
0.065963
0.0326501
0.0703021
0.0340908
0.0748878
0.0355871
0.0797477
0.03713
0.0848941
0.0387358
0.0903318
0.0403905
0.0960895
0.0420977
0.102182
0.0438611
0.108614
0.0456806
0.115409
0.0475558
0.12259
0.0494842
0.130175
0.051467
0.138176
0.053504
0.146621
0.0555974
0.155527
0.057746
0.164923
0.0599357
0.174825
0.0621862
0.185261
0.0644747
0.196253
0.0668283
0.207832
0.0692072
0.220047
0.071634
0.232882
0.0229507
0.0427987
0.0240072
0.0457109
0.0251085
0.0488026
0.0262533
0.0520799
0.0274511
0.0555583
0.0286828
0.059254
0.0299707
0.0631653
0.0313057
0.0673075
0.032694
0.0716989
0.0341216
0.0763533
0.0356072
0.0812705
0.0371485
0.0864814
0.0387336
0.0919887
0.040374
0.0978132
0.0420719
0.103971
0.0438196
0.110475
0.0456207
0.117344
0.047474
0.1246
0.0493868
0.132255
0.051345
0.140335
0.0533573
0.148861
0.0554224
0.157851
0.0575302
0.167328
0.0596983
0.177313
0.0618937
0.187842
0.0641574
0.198924
0.0664461
0.210593
0.0687952
0.222885
0.0711522
0.235828
0.0220006
0.0410074
0.0230142
0.0437917
0.0240707
0.0467488
0.0251696
0.0498862
0.0263146
0.0532164
0.0274963
0.0567449
0.0287391
0.0604857
0.0300189
0.0644521
0.0313436
0.0686579
0.0327175
0.073103
0.0341471
0.0778134
0.0356225
0.0827965
0.037153
0.088062
0.0387302
0.0936325
0.0403599
0.0995252
0.0420371
0.105754
0.0437705
0.112325
0.0455511
0.119267
0.047386
0.126601
0.0492705
0.134329
0.0512054
0.142487
0.0531944
0.151089
0.0552237
0.160157
0.0573055
0.169721
0.0594283
0.179779
0.0616034
0.190396
0.0638071
0.201563
0.0660476
0.213341
0.0683269
0.225711
0.0706541
0.238731
0.0210899
0.0392955
0.0220627
0.0419589
0.0230754
0.044787
0.0241299
0.0477884
0.0252265
0.0509744
0.0263667
0.054346
0.0275516
0.0579324
0.0287777
0.0617269
0.0300522
0.0657434
0.0313788
0.0699966
0.0327511
0.074499
0.0341691
0.0792667
0.0356351
0.0843144
0.0371463
0.0896459
0.0387092
0.0952831
0.040326
0.101236
0.0419925
0.107532
0.0437026
0.114173
0.0454712
0.121182
0.0472856
0.128586
0.0491417
0.136393
0.0510534
0.144628
0.0530078
0.153305
0.0550111
0.162452
0.057057
0.172092
0.059138
0.182244
0.0612714
0.192932
0.063432
0.204178
0.0656393
0.216028
0.0678655
0.228499
0.0701129
0.241617
1.54506e-06
-5.12118e-05
0.0202177
0.0376613
0.0211492
0.040209
0.0221221
0.0429122
0.0231328
0.0457841
0.024186
0.0488289
0.0252812
0.0520598
0.0264146
0.055483
0.0275956
0.0591145
0.0288201
0.0629591
0.030093
0.0670293
0.0314065
0.0713412
0.0327622
0.0759059
0.0341722
0.0807296
0.0356288
0.0858319
0.0371335
0.0912216
0.0386856
0.0969235
0.0402854
0.102944
0.0419327
0.109301
0.0436285
0.116016
0.0453701
0.123097
0.0471612
0.130566
0.0490041
0.138442
0.0508825
0.146753
0.052806
0.15551
0.0547761
0.164733
0.0567861
0.174444
0.0588348
0.184681
0.0609197
0.195444
0.0630371
0.20678
0.065183
0.218711
0.0673576
0.231255
0.0695654
0.244442
3.18682e-06
-6.02233e-05
1.58902e-06
-5.2801e-05
0.0193819
0.0360963
0.0202771
0.0385334
0.0212087
0.0411223
0.0221767
0.0438684
0.0231874
0.0467827
0.0242377
0.0498724
0.0253246
0.0531498
0.0264591
0.0566195
0.0276385
0.0602961
0.0288562
0.0641958
0.030116
0.0683197
0.0314244
0.072679
0.032782
0.0772961
0.0341791
0.0821794
0.0356227
0.0873426
0.0371117
0.0927956
0.0386495
0.0985593
0.0402364
0.10464
0.0418667
0.111063
0.0435405
0.117846
0.0452652
0.124993
0.0470294
0.132541
0.048839
0.140486
0.0506928
0.148867
0.0525895
0.157696
0.0545223
0.166997
0.0564914
0.176787
0.0585029
0.187097
0.060535
0.197946
0.0626142
0.209349
0.0647119
0.221357
0.0668285
0.233992
0.0689615
0.247258
4.96264e-06
-6.77859e-05
3.29868e-06
-6.19329e-05
1.62402e-06
-5.44252e-05
0.018582
0.0346041
0.0194381
0.0369354
0.0203329
0.0394093
0.021263
0.0420361
0.0222319
0.0448239
0.0232393
0.0477811
0.0242852
0.0509118
0.0253718
0.0542372
0.026501
0.0577569
0.0276736
0.0614787
0.0288847
0.0654271
0.0301393
0.0696048
0.0314396
0.0740215
0.0327806
0.0786945
0.0341669
0.0836352
0.0356026
0.0888517
0.0370787
0.0943665
0.0386036
0.100192
0.0401684
0.106338
0.0417831
0.112821
0.04344
0.119671
0.0451391
0.126884
0.04688
0.1345
0.0486628
0.142516
0.050492
0.150964
0.0523527
0.159866
0.054251
0.169237
0.0561843
0.179106
0.0581473
0.189485
0.0601389
0.200422
0.0621566
0.211905
0.0641978
0.223987
0.066258
0.236695
0.068333
0.25004
6.82277e-06
-7.46122e-05
5.10611e-06
-6.95933e-05
3.39135e-06
-6.37001e-05
1.71484e-06
-5.61402e-05
0.0178146
0.0331773
0.0186364
0.0354058
0.0194935
0.0377748
0.0203858
0.0402865
0.0213154
0.0429526
0.0222824
0.0457808
0.0232864
0.04878
0.0243315
0.0519522
0.0254141
0.055324
0.0265402
0.0588904
0.0276961
0.0626672
0.028907
0.0666594
0.0301549
0.0708895
0.0314422
0.0753599
0.0327789
0.0800826
0.0341564
0.0850815
0.0355764
0.090354
0.0370431
0.095927
0.038546
0.101814
0.0400966
0.108025
0.0416857
0.114575
0.0433234
0.121487
0.0449992
0.128764
0.0467169
0.136446
0.0484714
0.144536
0.0502624
0.153054
0.0520923
0.162025
0.053956
0.171465
0.0558521
0.181401
0.0577756
0.191848
0.0597267
0.202852
0.0616893
0.214413
0.0636774
0.226568
0.0656845
0.239344
0.0676881
0.25278
8.81043e-06
-8.12762e-05
7.04363e-06
-7.65497e-05
5.30128e-06
-7.15032e-05
3.51893e-06
-6.55041e-05
1.73846e-06
-5.78787e-05
0.0170796
0.0318124
0.0178687
0.033945
0.01869
0.0362092
0.019546
0.0386145
0.0204378
0.041164
0.0213655
0.0438695
0.0223291
0.0467381
0.0233303
0.0497812
0.024365
0.0530013
0.025451
0.0564133
0.0265632
0.0600233
0.0277253
0.063849
0.028923
0.0678913
0.0301629
0.0721687
0.0314436
0.0766952
0.0327687
0.0814703
0.0341355
0.0865224
0.0355389
0.0918581
0.036985
0.0974881
0.03848
0.103431
0.04001
0.1097
0.0415835
0.116315
0.0431979
0.123288
0.0448468
0.130634
0.0465376
0.138379
0.0482675
0.146531
0.0500253
0.155121
0.051822
0.164159
0.0536436
0.173674
0.0554939
0.183683
0.0573689
0.194206
0.0592711
0.20527
0.0611923
0.216898
0.063114
0.229138
0.0650497
0.241982
0.0670002
0.255475
1.09093e-05
-8.79998e-05
9.09075e-06
-8.33233e-05
7.27847e-06
-7.85269e-05
5.46939e-06
-7.34536e-05
3.62783e-06
-6.73934e-05
1.81803e-06
-5.96969e-05
0.016376
0.0305084
0.0171315
0.0325497
0.0179201
0.0347149
0.0187408
0.0370145
0.0195973
0.039455
0.0204847
0.0420448
0.0214099
0.0447887
0.0223711
0.0476973
0.0233693
0.0507768
0.0244102
0.0540421
0.0254758
0.0575007
0.0265913
0.0611573
0.0277453
0.0650267
0.0289328
0.0691214
0.0301647
0.0734476
0.0314388
0.0780251
0.0327445
0.0828612
0.0340983
0.0879629
0.0354925
0.0933506
0.0369256
0.0990424
0.0384001
0.105041
0.039913
0.111371
0.041466
0.118047
0.0430548
0.12508
0.0446819
0.13249
0.0463458
0.140301
0.0480362
0.14852
0.0497695
0.157174
0.0515203
0.166282
0.0533061
0.175861
0.0551205
0.185931
0.0569484
0.196529
0.0587922
0.20767
0.0606439
0.219368
0.0625309
0.231657
0.0644002
0.244582
0.0662745
0.25813
1.31268e-05
-9.491e-05
1.12527e-05
-9.01617e-05
9.39136e-06
-8.54362e-05
7.53503e-06
-8.05925e-05
5.6236e-06
-7.54493e-05
3.79826e-06
-6.93735e-05
1.88693e-06
-6.15838e-05
0.0157004
0.029263
0.0164262
0.0312137
0.0171825
0.0332872
0.0179681
0.0354877
0.0187898
0.037822
0.0196423
0.0402974
0.0205312
0.0429235
0.0214539
0.0457058
0.0224128
0.0486538
0.0234071
0.0517799
0.0244362
0.0550817
0.0255066
0.0585854
0.0266104
0.0622922
0.0277541
0.0662054
0.0289336
0.0703525
0.0301553
0.0747311
0.0314164
0.0793532
0.0327205
0.084239
0.0340586
0.0893968
0.0354349
0.0948413
0.0368524
0.10059
0.0383076
0.106646
0.0398014
0.113035
0.0413337
0.119768
0.0428943
0.126868
0.0444931
0.134343
0.0461288
0.142209
0.0477924
0.150497
0.0494862
0.159208
0.0512112
0.168377
0.0529538
0.178028
0.0547162
0.188164
0.0564969
0.198824
0.0582987
0.210015
0.0601026
0.221797
0.0619099
0.234147
0.0637161
0.24714
0.0655091
0.260758
1.54731e-05
-0.000102116
1.35374e-05
-9.71947e-05
1.15977e-05
-9.2368e-05
9.69323e-06
-8.75943e-05
7.78558e-06
-8.27545e-05
5.86518e-06
-7.75162e-05
3.89445e-06
-7.13809e-05
1.9418e-06
-6.35257e-05
0.0150547
0.0280709
0.0157498
0.0299393
0.0164735
0.0319228
0.0172293
0.034026
0.0180168
0.0362607
0.018835
0.0386293
0.0196875
0.041141
0.0205724
0.0438051
0.0214933
0.0466253
0.0224447
0.0496163
0.0234372
0.0527789
0.024461
0.0561273
0.0255211
0.0596747
0.0266211
0.0634253
0.0277567
0.0673822
0.0289346
0.0715732
0.0301497
0.0759979
0.0313964
0.0806774
0.0326812
0.0856164
0.0340041
0.0908275
0.0353697
0.096324
0.036773
0.102125
0.0382076
0.10824
0.0396771
0.114692
0.0411812
0.121481
0.0427263
0.128634
0.0442982
0.136173
0.0459008
0.1441
0.0475348
0.152449
0.0491891
0.16123
0.050871
0.17046
0.0525765
0.180168
0.0542917
0.190369
0.0560267
0.201096
0.0577637
0.212354
0.059517
0.22419
0.0612542
0.236609
0.0630025
0.249647
0.0647374
0.263334
1.79339e-05
-0.000109656
1.59295e-05
-0.000104508
1.39559e-05
-9.95529e-05
1.20238e-05
-9.46986e-05
1.00443e-05
-8.98531e-05
8.05462e-06
-8.49439e-05
6.04278e-06
-7.96645e-05
4.04699e-06
-7.34861e-05
2.0464e-06
-6.55721e-05
0.0144349
0.0269339
0.0151004
0.0287203
0.0157964
0.0306164
0.016521
0.0326311
0.0172752
0.0347675
0.0180622
0.0370336
0.0188789
0.039438
0.0197294
0.041984
0.0206103
0.044688
0.0215278
0.0475421
0.0224803
0.0505732
0.0234625
0.0537774
0.024481
0.0571674
0.0255394
0.0607564
0.0266313
0.0645508
0.0277567
0.0685601
0.0289243
0.0727985
0.03012
0.0772742
0.0313602
0.0819984
0.0326334
0.0869872
0.0339457
0.0922516
0.035292
0.097805
0.036671
0.103661
0.03809
0.109827
0.0395427
0.116331
0.0410226
0.123185
0.0425408
0.130392
0.0440859
0.137988
0.0456552
0.14598
0.0472512
0.154387
0.048871
0.16323
0.0505121
0.172524
0.0521705
0.182289
0.0538413
0.192554
0.0555266
0.203333
0.0572128
0.214658
0.0588974
0.226546
0.0605873
0.239025
0.0622459
0.252138
0.0638995
0.265871
2.05743e-05
-0.000117635
1.84928e-05
-0.00011222
1.64518e-05
-0.000107004
1.44349e-05
-0.000101964
1.24048e-05
-9.7059e-05
1.03939e-05
-9.21923e-05
8.33804e-06
-8.72391e-05
6.31214e-06
-8.19296e-05
4.20527e-06
-7.56449e-05
2.0828e-06
-6.76549e-05
0.0138411
0.0258457
0.0144799
0.0275544
0.0151472
0.0293694
0.0158422
0.0312953
0.0165662
0.0333401
0.0173208
0.0355088
0.0181042
0.0378082
0.0189199
0.0402474
0.019766
0.0428284
0.020648
0.0455678
0.0215575
0.0484649
0.0225032
0.0515325
0.0234801
0.0547783
0.0244997
0.058207
0.0255464
0.0618413
0.026628
0.0656794
0.0277504
0.069734
0.0289
0.0740185
0.0300941
0.0785402
0.0313163
0.0833155
0.0325803
0.0883526
0.0338747
0.0936689
0.0352031
0.0992729
0.0365679
0.105183
0.0379613
0.111409
0.0393898
0.117963
0.0408515
0.124874
0.0423328
0.132145
0.0438511
0.139792
0.0453909
0.14784
0.0469537
0.156304
0.0485391
0.165203
0.0501358
0.174559
0.0517497
0.184381
0.0533721
0.194709
0.0549967
0.205549
0.0566283
0.216927
0.0582531
0.22888
0.0598641
0.241406
0.0614597
0.254578
0.0630454
0.268363
2.3356e-05
-0.000126046
2.11885e-05
-0.000120331
1.90994e-05
-0.000114867
1.70157e-05
-0.000109585
1.49279e-05
-0.000104487
1.28655e-05
-9.95306e-05
1.07637e-05
-9.46179e-05
8.69294e-06
-8.96199e-05
6.5628e-06
-8.42871e-05
4.37336e-06
-7.79354e-05
2.18631e-06
-6.98412e-05
0.0132716
0.0248061
0.0138849
0.0264408
0.0145245
0.0281771
0.0151903
0.0300213
0.0158856
0.0319758
0.0166085
0.0340525
0.0173611
0.0362519
0.018144
0.0385841
0.0189572
0.0410562
0.0198008
0.0436756
0.0206754
0.0464499
0.0215845
0.0493836
0.0225249
0.0524877
0.0235029
0.0557751
0.0245043
0.059249
0.0255522
0.0629171
0.0266272
0.0668027
0.0277343
0.0708997
0.028881
0.0752316
0.0300571
0.0797995
0.0312727
0.0846231
0.0325124
0.0897149
0.0337938
0.0950782
0.0351067
0.100734
0.0364458
0.106699
0.0378201
0.112978
0.0392253
0.11959
0.0406578
0.126549
0.0421173
0.133879
0.0436011
0.141582
0.0451042
0.14969
0.0466338
0.158209
0.0481748
0.167164
0.0497357
0.176573
0.0512976
0.186455
0.0528743
0.196831
0.0544469
0.207731
0.0560151
0.219165
0.057578
0.231166
0.0591216
0.243745
0.0606623
0.256961
0.0621484
0.270819
2.63507e-05
-0.000135016
2.40867e-05
-0.000128944
2.19128e-05
-0.000123144
1.97261e-05
-0.000117578
1.75728e-05
-0.00011223
1.548e-05
-0.000107101
1.32997e-05
-0.000102067
1.11822e-05
-9.71071e-05
9.00756e-06
-9.20646e-05
6.76871e-06
-8.66824e-05
4.51495e-06
-8.0264e-05
2.2676e-06
-7.21087e-05
0.0127276
0.0238107
0.0133153
0.0253757
0.0139278
0.0270375
0.0145663
0.028801
0.0152335
0.0306735
0.0159277
0.0326567
0.01665
0.0347636
0.0174001
0.0369958
0.018181
0.0393603
0.0189917
0.0418653
0.0198339
0.0445171
0.020705
0.0473294
0.0216088
0.0502996
0.0225453
0.0534454
0.0235115
0.0567679
0.0245142
0.0602871
0.0255453
0.0639989
0.0266137
0.0679234
0.0277128
0.0720679
0.0288443
0.0764445
0.0300088
0.0810634
0.0312037
0.0859317
0.0324369
0.0910719
0.0336977
0.0964871
0.0349927
0.102187
0.0363176
0.108201
0.0376713
0.114532
0.0390474
0.1212
0.0404567
0.12821
0.041883
0.135597
0.0433314
0.143355
0.0448063
0.151517
0.0462952
0.160089
0.0477967
0.169103
0.0493083
0.178562
0.0508245
0.188505
0.0523455
0.198932
0.0538684
0.209878
0.0553797
0.221364
0.0568743
0.233414
0.0583523
0.246055
0.0597987
0.259311
0.061212
0.273225
2.955e-05
-0.000144565
2.71784e-05
-0.000138108
2.488e-05
-0.000131911
2.26374e-05
-0.000126056
2.04094e-05
-0.000120414
1.82502e-05
-0.000115
1.59839e-05
-0.000109786
1.38422e-05
-0.000104727
1.16207e-05
-9.97202e-05
9.33518e-06
-9.4631e-05
7.02857e-06
-8.9196e-05
4.70708e-06
-8.27034e-05
2.35193e-06
-7.44606e-05
0.0122056
0.0228608
0.0127675
0.0243584
0.013356
0.0259475
0.0139694
0.0276345
0.0146083
0.0294261
0.0152738
0.0313273
0.0159664
0.0333403
0.0166873
0.0354764
0.0174378
0.037739
0.0182157
0.0401364
0.0190254
0.0426738
0.0198591
0.0453631
0.0207313
0.0482069
0.0216247
0.0512202
0.0225544
0.0544025
0.0235168
0.0577653
0.0245077
0.0613247
0.0255322
0.0650804
0.0265889
0.0690473
0.0276779
0.0732343
0.0287999
0.0776534
0.0299515
0.0823156
0.0311413
0.0872273
0.0323552
0.0924144
0.0335981
0.0978817
0.0348711
0.103634
0.0361719
0.109701
0.0375001
0.11608
0.0388592
0.122798
0.0402331
0.129859
0.041634
0.137294
0.0430528
0.145108
0.0444897
0.153323
0.0459355
0.16195
0.0473977
0.171014
0.0488622
0.180525
0.0503354
0.190515
0.0518017
0.200999
0.0532604
0.211997
0.0547033
0.223534
0.056137
0.235629
0.0575391
0.248314
0.058919
0.261604
0.060246
0.275568
3.29735e-05
-0.000154712
3.0453e-05
-0.00014784
2.80778e-05
-0.000141305
2.57389e-05
-0.000135013
2.33974e-05
-0.000129044
2.11926e-05
-0.000123357
1.88891e-05
-0.000117905
1.66877e-05
-0.000112631
1.43851e-05
-0.000107491
1.20507e-05
-0.000102436
9.69398e-06
-9.72964e-05
7.31501e-06
-9.18039e-05
4.88343e-06
-8.52349e-05
2.4116e-06
-7.68722e-05
0.0117043
0.0219525
0.0122448
0.0233835
0.0128081
0.0249063
0.0133954
0.0265215
0.0140086
0.0282341
0.0146475
0.0300525
0.0153139
0.0319799
0.0160044
0.0340231
0.0167242
0.0361901
0.0174697
0.038485
0.0182455
0.0409163
0.0190473
0.0434856
0.0198851
0.0462093
0.0207419
0.0490897
0.0216429
0.0521316
0.0225637
0.0553556
0.0235194
0.0587536
0.0245051
0.0623518
0.0255179
0.0661514
0.0265694
0.0701558
0.0276453
0.0743889
0.0287508
0.0788541
0.0298944
0.0835625
0.0310599
0.0885225
0.0322545
0.093758
0.0334832
0.0992696
0.0347348
0.105071
0.0360186
0.111182
0.0373227
0.117616
0.038645
0.124386
0.039992
0.131501
0.0413648
0.138982
0.0427482
0.14685
0.0441456
0.155112
0.0455571
0.163791
0.0469699
0.172906
0.0483914
0.182469
0.0498099
0.192507
0.0512234
0.203036
0.0526223
0.214078
0.0540071
0.225664
0.0553688
0.237799
0.0566977
0.250536
0.0579821
0.263868
0.0592455
0.277868
3.65887e-05
-0.00016557
3.39908e-05
-0.000158249
3.1466e-05
-0.000151228
2.90207e-05
-0.000144587
2.66441e-05
-0.000138259
2.43236e-05
-0.000132175
2.19149e-05
-0.000126383
1.96161e-05
-0.000120834
1.72842e-05
-0.00011553
1.48951e-05
-0.000110335
1.25157e-05
-0.000105257
1.00829e-05
-0.000100064
7.56269e-06
-9.44831e-05
5.03795e-06
-8.78612e-05
2.55258e-06
-7.94248e-05
0.0112262
0.0210825
0.0117424
0.0224549
0.0122821
0.0239095
0.0128473
0.0254543
0.0134354
0.0270947
0.0140481
0.0288335
0.0146858
0.0306806
0.0153481
0.0326362
0.01604
0.0347072
0.0167567
0.036903
0.0175017
0.0392288
0.0182736
0.0416899
0.0190724
0.0442983
0.0199027
0.0470485
0.0207657
0.0499669
0.0216484
0.0530469
0.0225653
0.0563097
0.0235107
0.0597479
0.0244897
0.06338
0.0254973
0.0672235
0.0265308
0.0712703
0.0275951
0.0755446
0.028694
0.0800545
0.0298147
0.0848077
0.0309659
0.0898111
0.0321541
0.0950872
0.0333586
0.100646
0.0345881
0.106502
0.0358442
0.112661
0.0371214
0.11914
0.0384232
0.125955
0.0397435
0.133123
0.0410808
0.14065
0.0424285
0.148567
0.0437892
0.15688
0.0451526
0.165608
0.0465247
0.174773
0.0478956
0.184383
0.0492599
0.19447
0.050615
0.205043
0.0519571
0.216128
0.0532786
0.227755
0.0545608
0.239936
0.0558201
0.252698
0.057033
0.266081
0.0581973
0.280096
4.053e-05
-0.000177209
3.77794e-05
-0.000169358
3.51287e-05
-0.000161912
3.25946e-05
-0.000154802
3.00489e-05
-0.000147992
2.76325e-05
-0.000141568
2.51686e-05
-0.000135428
2.2823e-05
-0.000129589
2.0423e-05
-0.000123972
1.79416e-05
-0.000118577
1.55038e-05
-0.000113323
1.29851e-05
-0.00010816
1.04387e-05
-0.00010294
7.84673e-06
-9.72919e-05
5.27197e-06
-9.05806e-05
2.61241e-06
-8.20372e-05
0.0107658
0.020252
0.011261
0.0215639
0.0117791
0.0229579
0.0123207
0.0244361
0.0128836
0.0260061
0.0134722
0.0276707
0.0140847
0.0294346
0.0147217
0.0313069
0.015385
0.0332913
0.0160718
0.0353921
0.016786
0.0376187
0.017528
0.0399744
0.0182954
0.042467
0.0190927
0.0451083
0.0199176
0.0478965
0.0207652
0.0508502
0.0216505
0.0539617
0.0225592
0.0572612
0.0234994
0.0607383
0.0244681
0.0644092
0.0254641
0.0682902
0.0264859
0.0723795
0.0275437
0.0766949
0.0286247
0.0812446
0.0297325
0.0860412
0.0308722
0.091093
0.0320296
0.0964161
0.0332149
0.102019
0.0344267
0.107919
0.0356623
0.11412
0.0369126
0.12065
0.0381853
0.127513
0.0394738
0.13473
0.0407717
0.142306
0.042089
0.150267
0.0434053
0.158628
0.0447344
0.167398
0.0460585
0.17661
0.0473774
0.186266
0.0486911
0.196394
0.0499894
0.207011
0.0512609
0.218145
0.0525142
0.229801
0.0537332
0.242023
0.0549081
0.254822
0.0560352
0.268243
0.0570855
0.282281
4.47367e-05
-0.000189677
4.18562e-05
-0.000181286
3.90592e-05
-0.000173289
3.63603e-05
-0.000165678
3.36948e-05
-0.000158448
3.1201e-05
-0.00015156
2.86087e-05
-0.000145008
2.61751e-05
-0.00013878
2.36664e-05
-0.000132833
2.11778e-05
-0.000127208
1.86744e-05
-0.000121747
1.61249e-05
-0.000116463
1.34876e-05
-0.000111208
1.08326e-05
-0.000105926
8.18303e-06
-0.000100203
5.39345e-06
-9.33616e-05
2.6735e-06
-8.47107e-05
0.0103243
0.0194583
0.0107995
0.0207136
0.0112965
0.0220465
0.0118155
0.0234631
0.0123564
0.0249634
0.0129202
0.0265581
0.0135086
0.0282468
0.0141184
0.030038
0.0147549
0.031937
0.0154155
0.0339477
0.0161013
0.0360768
0.016815
0.0383318
0.0175534
0.0407163
0.0183198
0.0432399
0.0191118
0.0459142
0.0199277
0.048734
0.0207749
0.0517257
0.0216485
0.0548725
0.0225534
0.0582072
0.0234832
0.0617232
0.0244403
0.065433
0.0254246
0.0693514
0.0264399
0.0734834
0.0274811
0.0778385
0.0285491
0.0824279
0.0296454
0.0872679
0.0307558
0.0923668
0.0319004
0.0977306
0.0330715
0.103374
0.0342578
0.109324
0.0354615
0.115571
0.0366876
0.122148
0.0379336
0.129053
0.0391853
0.136316
0.0404515
0.143944
0.0417257
0.151947
0.0430091
0.160353
0.0442888
0.169168
0.0455623
0.178425
0.0468333
0.188123
0.0480901
0.198293
0.0493228
0.208949
0.0505412
0.220119
0.0517213
0.231813
0.0528659
0.244065
0.0539626
0.256895
0.0550053
0.270323
0.0559894
0.284393
4.93019e-05
-0.000203097
4.62427e-05
-0.000194064
4.32845e-05
-0.000185512
4.04375e-05
-0.000177366
3.7638e-05
-0.000169621
3.50228e-05
-0.00016227
3.23208e-05
-0.000155273
2.97876e-05
-0.000148621
2.72232e-05
-0.000142337
2.46214e-05
-0.000136276
2.20123e-05
-0.000130546
1.93938e-05
-0.000125016
1.66913e-05
-0.000119667
1.4001e-05
-0.000114377
1.12491e-05
-0.000108992
8.40874e-06
-0.000103218
5.57114e-06
-9.62592e-05
2.78958e-06
-8.75003e-05
0.00990389
0.0186976
0.0103579
0.0198998
0.0108344
0.0211757
0.0113323
0.0225297
0.0118516
0.0239679
0.0123922
0.0254913
0.0129559
0.0271107
0.013541
0.0288241
0.0141533
0.0306395
0.0147867
0.0325658
0.0154457
0.0346033
0.0161295
0.0367623
0.0168371
0.0390481
0.0175711
0.0414651
0.01833
0.0440216
0.0191195
0.0467225
0.0199351
0.0495739
0.0207784
0.0525958
0.0216431
0.0557828
0.0225377
0.0591528
0.0234544
0.0627091
0.0244062
0.0664514
0.025384
0.0704074
0.0263826
0.0745818
0.0274109
0.0789767
0.0284609
0.0836124
0.0295343
0.0884894
0.0306405
0.0936267
0.0317609
0.0990413
0.0329042
0.104728
0.0340663
0.110719
0.0352509
0.117008
0.0364516
0.12363
0.0376594
0.130579
0.0388844
0.137883
0.0401152
0.145554
0.0413514
0.153605
0.0425854
0.162056
0.0438159
0.170914
0.0450515
0.180207
0.0462656
0.189948
0.0474632
0.200153
0.0486377
0.210853
0.0497843
0.222056
0.0508926
0.233786
0.0519591
0.246069
0.0529751
0.258925
0.053932
0.27238
0.0548479
0.286455
5.42226e-05
-0.000217438
5.09347e-05
-0.000207789
4.77982e-05
-0.000198577
4.47881e-05
-0.000189862
4.18737e-05
-0.000181602
3.90653e-05
-0.000173663
3.62985e-05
-0.000166247
3.3653e-05
-0.000159138
3.09885e-05
-0.000152386
2.82627e-05
-0.000145978
2.56016e-05
-0.000139866
2.29055e-05
-0.000134058
2.01297e-05
-0.000128455
1.7367e-05
-0.000123033
1.45408e-05
-0.000117669
1.1622e-05
-0.000112205
8.69665e-06
-0.000106344
5.81375e-06
-9.92833e-05
2.88355e-06
-9.03838e-05
0.00949702
0.0179722
0.00993474
0.0191208
0.0103906
0.0203436
0.0108685
0.0216395
0.0113661
0.0230151
0.0118852
0.0244749
0.0124257
0.0260215
0.0129892
0.0276625
0.0135742
0.0294032
0.0141823
0.0312439
0.0148156
0.0331959
0.0154716
0.0352612
0.0161523
0.037447
0.0168589
0.0397603
0.0175869
0.0422082
0.0183469
0.0447942
0.0191244
0.0475331
0.0199311
0.0504212
0.0207641
0.0534747
0.0216285
0.056692
0.0225114
0.0600958
0.0234293
0.063686
0.0243595
0.0674758
0.025327
0.0714629
0.0263141
0.0756786
0.0273244
0.0801133
0.0283629
0.0847838
0.0294271
0.0897029
0.0305068
0.0948808
0.0316079
0.100337
0.0327243
0.10607
0.0338723
0.112097
0.0350214
0.118438
0.0361917
0.125098
0.0373691
0.132094
0.0385587
0.13944
0.0397501
0.147156
0.0409484
0.155242
0.0421408
0.163731
0.0433319
0.172634
0.044507
0.181965
0.0456655
0.191746
0.0468076
0.201983
0.0479217
0.212715
0.0490001
0.223948
0.0500368
0.235709
0.0510252
0.248019
0.0519568
0.2609
0.0528008
0.274427
0.0536047
0.288478
5.94972e-05
-0.000232909
5.60303e-05
-0.000222534
5.26991e-05