/*--------------------------------*- C++ -*----------------------------------*\
  =========                 |
  \\      /  F ield         | OpenFOAM: The Open Source CFD Toolbox
   \\    /   O peration     | Website:  https://openfoam.org
    \\  /    A nd           | Version:  7
     \\/     M anipulation  |
\*---------------------------------------------------------------------------*/
FoamFile
{
    version     2.0;
    format      ascii;
    class       volVectorField;
    location    "800";
    object      U;
}
// * * * * * * * * * * * * * * * * * * * * * * * * * * * * * * * * * * * * * //

dimensions      [0 1 -1 0 0 0 0];

internalField   nonuniform List<vector> 
23064
(
(49.7322 13.3362 4.81173e-17)
(49.7369 13.36 6.43881e-18)
(49.7327 13.3361 0)
(49.7412 13.3835 -5.94394e-17)
(49.7376 13.3597 3.05909e-18)
(49.7331 13.336 6.57974e-18)
(49.7468 13.4073 -5.70605e-17)
(49.7421 13.383 5.67789e-17)
(49.7384 13.3594 -6.34467e-17)
(49.7336 13.3358 -3.30633e-18)
(49.7531 13.4318 -2.03779e-18)
(49.7481 13.4067 2.88028e-17)
(49.743 13.3825 -6.22044e-17)
(49.7391 13.3591 3.74628e-18)
(49.7342 13.3357 -3.6254e-18)
(49.7596 13.4571 0)
(49.7547 13.431 -3.34722e-17)
(49.7493 13.406 -6.33928e-17)
(49.744 13.382 6.12982e-17)
(49.7399 13.3587 3.86136e-18)
(49.7347 13.3355 0)
(49.7666 13.4831 -2.61522e-18)
(49.7616 13.4561 -2.44887e-18)
(49.7563 13.4302 3.50625e-17)
(49.7506 13.4052 1.31971e-16)
(49.7449 13.3815 6.62604e-17)
(49.7407 13.3584 -3.99239e-18)
(49.7353 13.3353 6.29349e-17)
(49.774 13.51 -9.01999e-17)
(49.7689 13.482 5.26974e-18)
(49.7635 13.4551 0)
(49.7579 13.4292 -7.85555e-17)
(49.7519 13.4045 -6.42111e-17)
(49.7459 13.3809 -1.29378e-16)
(49.7415 13.358 0)
(49.7359 13.3351 -1.30679e-16)
(49.7817 13.5379 -9.40385e-17)
(49.7767 13.5088 4.26482e-17)
(49.7712 13.4808 0)
(49.7655 13.454 -3.92142e-17)
(49.7595 13.4283 7.03813e-17)
(49.7531 13.4037 4.63488e-18)
(49.7468 13.3803 1.37374e-16)
(49.7423 13.3575 4.22428e-18)
(49.7365 13.3348 -6.63469e-18)
(49.7897 13.5668 -3.39274e-18)
(49.7848 13.5365 5.40074e-17)
(49.7794 13.5075 -4.93403e-17)
(49.7736 13.4796 -4.30425e-17)
(49.7674 13.4529 4.11047e-17)
(49.7611 13.4273 -4.84291e-18)
(49.7544 13.4028 0)
(49.7478 13.3796 -1.3657e-16)
(49.7431 13.3571 7.4965e-17)
(49.7372 13.3346 4.93913e-17)
(49.798 13.5969 0)
(49.7933 13.5653 -6.27712e-17)
(49.788 13.5351 5.8282e-17)
(49.7822 13.5061 9.64266e-17)
(49.7759 13.4783 8.95788e-17)
(49.7694 13.4517 -8.83722e-17)
(49.7628 13.4262 0)
(49.7558 13.4019 -4.69915e-18)
(49.7488 13.3789 -2.6914e-18)
(49.7439 13.3566 -6.08183e-17)
(49.7379 13.3343 6.95641e-17)
(49.8065 13.6281 -3.42772e-17)
(49.802 13.5952 0)
(49.7968 13.5637 1.15797e-16)
(49.7911 13.5335 -5.40078e-17)
(49.7849 13.5046 -4.69881e-17)
(49.7783 13.4769 -4.66168e-17)
(49.7714 13.4504 1.7217e-16)
(49.7644 13.4251 9.05045e-17)
(49.7571 13.401 0)
(49.7498 13.3782 7.2701e-17)
(49.7448 13.3561 0)
(49.7386 13.3339 -6.86613e-17)
(49.8153 13.6606 0)
(49.811 13.6263 -3.69904e-17)
(49.806 13.5935 0)
(49.8004 13.562 -6.0143e-17)
(49.7943 13.5319 6.16504e-17)
(49.7876 13.503 5.36903e-17)
(49.7806 13.4754 5.8965e-17)
(49.7734 13.4491 -2.07538e-18)
(49.7661 13.4239 -8.40324e-17)
(49.7584 13.4 -8.18318e-17)
(49.7508 13.3774 4.82667e-18)
(49.7457 13.3555 7.54367e-17)
(49.7394 13.3336 -8.19448e-18)
(49.8242 13.6944 -4.21871e-17)
(49.8203 13.6587 2.6237e-18)
(49.8155 13.6245 1.14881e-16)
(49.8101 13.5917 6.55185e-17)
(49.804 13.5603 -6.82782e-17)
(49.7974 13.5302 -5.71574e-17)
(49.7904 13.5014 -5.27498e-17)
(49.783 13.4739 5.94316e-17)
(49.7754 13.4477 -8.57689e-17)
(49.7677 13.4227 -5.6047e-18)
(49.7597 13.399 7.57487e-17)
(49.7518 13.3766 7.35549e-17)
(49.7466 13.3549 -8.39705e-17)
(49.7401 13.3332 8.33307e-18)
(49.8334 13.7296 2.15095e-19)
(49.8297 13.6924 4.16058e-17)
(49.8253 13.6567 -4.49971e-17)
(49.82 13.6225 -7.27538e-17)
(49.8141 13.5898 2.81705e-18)
(49.8076 13.5584 1.29596e-16)
(49.8006 13.5284 2.23793e-19)
(49.7932 13.4997 -1.03023e-17)
(49.7854 13.4723 -1.13662e-16)
(49.7774 13.4462 1.03185e-16)
(49.7694 13.4214 0)
(49.7611 13.3979 -2.15916e-19)
(49.7529 13.3758 -6.76666e-17)
(49.7475 13.3543 9.62344e-18)
(49.741 13.3328 0)
(49.8428 13.7664 -3.34152e-18)
(49.8395 13.7275 0)
(49.8353 13.6903 5.04841e-17)
(49.8303 13.6546 8.79869e-17)
(49.8246 13.6205 -5.07484e-18)
(49.8182 13.5877 -7.0725e-17)
(49.8113 13.5564 -6.91725e-17)
(49.8038 13.5265 -2.26551e-19)
(49.796 13.4979 6.45293e-17)
(49.7878 13.4707 -1.06815e-16)
(49.7794 13.4447 -9.60863e-17)
(49.7711 13.4201 5.60372e-18)
(49.7625 13.3967 9.24539e-17)
(49.7539 13.3749 -9.14431e-17)
(49.7484 13.3536 1.59428e-16)
(49.7418 13.3324 1.62091e-16)
(49.8524 13.8047 0)
(49.8494 13.7642 0)
(49.8455 13.7253 -3.14722e-18)
(49.8408 13.6881 -4.98496e-17)
(49.8353 13.6524 -3.76152e-17)
(49.8291 13.6183 0)
(49.8223 13.5856 -7.99545e-17)
(49.8149 13.5544 4.12589e-18)
(49.807 13.5245 -4.03838e-18)
(49.7988 13.4961 -5.68803e-17)
(49.7902 13.4689 2.07571e-16)
(49.7815 13.4431 -1.0137e-16)
(49.7728 13.4187 -1.00486e-16)
(49.7638 13.3955 -8.5945e-17)
(49.755 13.374 1.63205e-16)
(49.7494 13.3529 -1.57619e-16)
(49.7427 13.3319 -1.51715e-16)
(49.8621 13.8447 -1.04366e-16)
(49.8595 13.8024 -6.05455e-17)
(49.856 13.7619 0)
(49.8516 13.723 6.67291e-18)
(49.8463 13.6858 0)
(49.8404 13.6501 9.12131e-17)
(49.8337 13.616 4.9831e-18)
(49.8264 13.5834 7.90241e-17)
(49.8185 13.5522 8.69894e-18)
(49.8102 13.5225 6.50552e-17)
(49.8016 13.4941 7.19944e-18)
(49.7926 13.4671 -1.07658e-16)
(49.7835 13.4415 1.00129e-16)
(49.7745 13.4172 9.36409e-17)
(49.7652 13.3943 -9.01151e-17)
(49.756 13.373 -9.24155e-17)
(49.7503 13.3522 0)
(49.7436 13.3313 1.6835e-16)
(49.872 13.8865 3.53276e-17)
(49.8698 13.8423 6.51278e-17)
(49.8667 13.8 1.29802e-16)
(49.8626 13.7594 -3.60119e-18)
(49.8576 13.7205 0)
(49.8519 13.6833 -3.23026e-18)
(49.8454 13.6477 -8.99258e-17)
(49.8383 13.6136 -5.09332e-18)
(49.8305 13.5811 -4.68001e-18)
(49.8222 13.55 4.5731e-18)
(49.8135 13.5203 -1.3056e-16)
(49.8044 13.4921 -7.75548e-18)
(49.795 13.4652 -7.16495e-18)
(49.7855 13.4398 -6.64049e-18)
(49.7762 13.4156 9.81588e-17)
(49.7666 13.393 1.00158e-16)
(49.7571 13.372 -7.45503e-17)
(49.7513 13.3514 -1.04013e-17)
(49.7446 13.3308 -1.66716e-16)
(49.8821 13.9301 4.48292e-17)
(49.8803 13.8839 2.55573e-18)
(49.8776 13.8397 0)
(49.8739 13.7974 -6.08581e-17)
(49.8692 13.7568 0)
(49.8637 13.7179 6.9753e-18)
(49.8575 13.6807 -1.0379e-16)
(49.8505 13.6451 -6.04205e-18)
(49.8428 13.6111 8.71386e-17)
(49.8346 13.5786 8.02452e-17)
(49.8259 13.5476 7.34399e-17)
(49.8167 13.5181 7.36036e-17)
(49.8072 13.49 7.48361e-18)
(49.7974 13.4633 -1.08301e-16)
(49.7876 13.438 1.00158e-16)
(49.7779 13.414 -2.03091e-16)
(49.768 13.3916 -1.12439e-17)
(49.7582 13.3709 1.70895e-16)
(49.7523 13.3505 1.05619e-17)
(49.7456 13.3302 0)
(49.8923 13.9756 -4.89331e-17)
(49.8911 13.9274 4.22133e-17)
(49.8887 13.8812 -2.61193e-18)
(49.8854 13.837 7.0876e-17)
(49.8811 13.7946 4.38455e-18)
(49.8759 13.754 -3.76149e-18)
(49.8699 13.7152 5.78087e-17)
(49.8631 13.678 1.08658e-16)
(49.8556 13.6425 6.16118e-18)
(49.8474 13.6085 -9.12863e-17)
(49.8387 13.5761 -7.89097e-17)
(49.8295 13.5452 -7.72574e-17)
(49.8199 13.5157 0)
(49.81 13.4878 -1.34856e-16)
(49.7998 13.4612 1.20937e-16)
(49.7896 13.4361 -1.05996e-16)
(49.7796 13.4124 1.05035e-16)
(49.7694 13.3902 0)
(49.7592 13.3698 -9.66691e-17)
(49.7533 13.3497 -1.71415e-16)
(49.7466 13.3295 -1.84994e-16)
(49.9028 14.0231 0)
(49.902 13.9728 -1.81724e-18)
(49.9001 13.9246 -4.14628e-17)
(49.8971 13.8784 0)
(49.8932 13.8341 -1.55708e-16)
(49.8883 13.7917 0)
(49.8826 13.7511 0)
(49.876 13.7123 -5.70068e-17)
(49.8687 13.6752 4.2266e-19)
(49.8607 13.6397 0)
(49.852 13.6058 -9.04048e-17)
(49.8429 13.5735 4.95975e-18)
(49.8332 13.5426 -7.60806e-17)
(49.8231 13.5133 8.39659e-18)
(49.8128 13.4855 -3.5893e-18)
(49.8022 13.4591 1.47151e-17)
(49.7917 13.4341 -1.16981e-16)
(49.7813 13.4106 0)
(49.7708 13.3887 -5.08331e-19)
(49.7603 13.3686 1.12286e-17)
(49.7544 13.3487 -3.60825e-18)
(49.7477 13.3288 3.32081e-16)
(49.9134 14.0728 0)
(49.9131 14.0202 -3.52845e-18)
(49.9116 13.9699 1.03445e-16)
(49.9091 13.9216 9.34717e-17)
(49.9056 13.8754 8.55946e-17)
(49.901 13.8311 7.57606e-17)
(49.8956 13.7887 0)
(49.8892 13.7481 0)
(49.8821 13.7093 -1.27127e-16)
(49.8743 13.6722 0)
(49.8658 13.6368 0)
(49.8567 13.603 9.5103e-17)
(49.847 13.5707 0)
(49.8369 13.54 7.51548e-17)
(49.8264 13.5108 1.51202e-16)
(49.8156 13.4831 -1.13893e-17)
(49.8046 13.4568 1.20844e-16)
(49.7937 13.4321 -2.81218e-18)
(49.7831 13.4088 1.26158e-17)
(49.7722 13.3871 -1.17262e-17)
(49.7614 13.3674 1.11502e-17)
(49.7554 13.3477 1.71782e-16)
(49.7489 13.328 -1.76653e-16)
(49.9241 14.1247 -6.73288e-17)
(49.9244 14.0698 3.68373e-18)
(49.9234 14.0172 4.97324e-17)
(49.9214 13.9667 -5.35284e-17)
(49.9182 13.9184 -9.20835e-17)
(49.914 13.8722 -8.43512e-17)
(49.9089 13.8279 0)
(49.9028 13.7855 -4.64093e-18)
(49.8959 13.7449 0)
(49.8883 13.7062 1.18363e-16)
(49.8799 13.6691 7.10211e-18)
(49.8709 13.6337 9.60058e-17)
(49.8613 13.6 0)
(49.8511 13.5678 0)
(49.8405 13.5372 5.91454e-17)
(49.8296 13.5081 -2.75713e-16)
(49.8184 13.4806 1.29454e-16)
(49.8071 13.4545 1.08464e-17)
(49.7958 13.43 1.1071e-16)
(49.7848 13.4069 1.18936e-16)
(49.7737 13.3855 -9.81792e-17)
(49.7625 13.3661 0)
(49.7565 13.3467 1.11446e-17)
(49.75 13.3272 9.3319e-18)
(49.9351 14.1789 7.20841e-17)
(49.9359 14.1215 6.62717e-17)
(49.9355 14.0666 7.75588e-18)
(49.9338 14.0139 5.3705e-18)
(49.9311 13.9634 -5.63017e-17)
(49.9273 13.9151 -6.16132e-18)
(49.9225 13.8688 -8.87212e-17)
(49.9167 13.8245 -7.63103e-17)
(49.9101 13.7821 -7.4214e-17)
(49.9027 13.7416 0)
(49.8945 13.7029 -1.23582e-16)
(49.8855 13.6659 0)
(49.876 13.6306 -1.00837e-16)
(49.8659 13.5969 0)
(49.8553 13.5648 4.89737e-18)
(49.8442 13.5343 -2.46715e-16)
(49.8328 13.5054 2.89193e-16)
(49.8212 13.478 1.26669e-16)
(49.8095 13.4521 -1.29152e-16)
(49.7978 13.4278 -1.39224e-17)
(49.7865 13.4049 -1.04525e-16)
(49.7751 13.3838 1.83993e-16)
(49.7636 13.3647 1.16351e-17)
(49.7575 13.3456 0)
(49.7512 13.3262 0)
(49.9462 14.2355 -2.62623e-18)
(49.9476 14.1756 2.41504e-18)
(49.9477 14.1182 -8.61059e-18)
(49.9466 14.0632 0)
(49.9442 14.0104 -5.34076e-17)
(49.9408 13.9599 5.51746e-17)
(49.9364 13.9116 -9.86103e-17)
(49.931 13.8653 8.74813e-17)
(49.9246 13.821 8.00462e-17)
(49.9174 13.7786 1.48638e-16)
(49.9094 13.7381 6.94679e-17)
(49.9006 13.6995 2.48478e-16)
(49.8912 13.6625 0)
(49.8811 13.6273 0)
(49.8705 13.5937 1.02149e-16)
(49.8594 13.5617 -9.94739e-17)
(49.8479 13.5314 1.57673e-16)
(49.8361 13.5026 -1.44854e-16)
(49.824 13.4753 -2.6171e-16)
(49.8119 13.4496 -1.25898e-16)
(49.7999 13.4255 -1.47476e-17)
(49.7882 13.4029 2.67851e-17)
(49.7765 13.382 1.03086e-16)
(49.7648 13.3633 0)
(49.7586 13.3444 0)
(49.7525 13.3253 0)
(49.9575 14.2946 2.74116e-18)
(49.9595 14.2321 -2.52085e-18)
(49.9602 14.1721 4.63186e-18)
(49.9595 14.1146 0)
(49.9577 14.0595 0)
(49.9547 14.0068 -5.62346e-17)
(49.9506 13.9562 0)
(49.9455 13.9079 9.08513e-17)
(49.9395 13.8616 0)
(49.9325 13.8173 0)
(49.9247 13.775 -7.87183e-17)
(49.9161 13.7345 -7.69592e-17)
(49.9068 13.6959 -2.52349e-16)
(49.8968 13.659 0)
(49.8862 13.6239 -6.80546e-18)
(49.8751 13.5904 -8.35138e-17)
(49.8635 13.5585 1.76719e-16)
(49.8516 13.5283 0)
(49.8393 13.4996 -1.50519e-16)
(49.8269 13.4725 2.73557e-16)
(49.8143 13.447 1.48087e-16)
(49.8019 13.4231 6.54198e-19)
(49.79 13.4008 -1.22677e-16)
(49.778 13.3802 -1.9903e-16)
(49.7659 13.3618 1.18753e-17)
(49.7597 13.3432 0)
(49.7538 13.3242 0)
(49.969 14.3564 4.76233e-17)
(49.9716 14.2911 -2.96391e-18)
(49.9729 14.2284 0)
(49.9728 14.1684 -7.39117e-17)
(49.9714 14.1108 0)
(49.9688 14.0557 0)
(49.9652 14.0029 5.89495e-17)
(49.9604 13.9524 6.6531e-18)
(49.9547 13.904 0)
(49.948 13.8577 0)
(49.9404 13.8134 -9.55749e-17)
(49.932 13.7711 9.30536e-18)
(49.9228 13.7307 1.42035e-16)
(49.913 13.6922 4.84186e-18)
(49.9025 13.6554 7.1055e-18)
(49.8913 13.6203 0)
(49.8797 13.5869 9.90946e-17)
(49.8677 13.5552 -8.8483e-17)
(49.8552 13.5251 0)
(49.8425 13.4966 1.48922e-16)
(49.8297 13.4697 -1.54312e-16)
(49.8167 13.4444 -1.52747e-16)
(49.8039 13.4207 0)
(49.7917 13.3985 -1.61823e-17)
(49.7794 13.3783 -1.23992e-17)
(49.767 13.3603 0)
(49.7608 13.3419 1.95009e-16)
(49.7552 13.3231 0)
(49.9806 14.4209 6.92134e-18)
(49.984 14.3527 -9.8703e-17)
(49.9858 14.2873 -9.81846e-17)
(49.9863 14.2246 8.21912e-17)
(49.9854 14.1644 7.77355e-17)
(49.9833 14.1068 0)
(49.98 14.0517 -4.28249e-18)
(49.9756 13.9988 0)
(49.9702 13.9483 0)
(49.9638 13.8999 6.57232e-18)
(49.9565 13.8536 1.16638e-17)
(49.9483 13.8094 -2.32921e-18)
(49.9393 13.7672 1.00415e-17)
(49.9296 13.7268 -1.48909e-16)
(49.9191 13.6883 1.2819e-16)
(49.9081 13.6516 1.12517e-16)
(49.8965 13.6166 -1.09814e-16)
(49.8843 13.5833 -1.10775e-16)
(49.8718 13.5517 8.01544e-17)
(49.8589 13.5217 1.07114e-17)
(49.8457 13.4934 1.91139e-17)
(49.8325 13.4667 -1.33193e-16)
(49.8191 13.4416 1.36e-16)
(49.806 13.4181 -1.21016e-16)
(49.7934 13.3962 2.07123e-16)
(49.7809 13.3762 0)
(49.7681 13.3587 -1.18281e-17)
(49.7619 13.3406 -1.82152e-16)
(49.7565 13.3219 -1.81644e-16)
(49.9925 14.4883 -6.58694e-17)
(49.9965 14.4171 5.3604e-17)
(49.999 14.3488 5.41004e-17)
(50.0001 14.2832 -3.03069e-18)
(49.9997 14.2204 -9.17377e-17)
(49.9981 14.1602 0)
(49.9952 14.1026 7.91609e-17)
(49.9912 14.0474 4.34824e-18)
(49.9861 13.9946 0)
(49.98 13.944 -6.8614e-18)
(49.973 13.8956 -1.29422e-17)
(49.965 13.8494 9.57597e-17)
(49.9562 13.8052 7.47185e-17)
(49.9466 13.763 0)
(49.9363 13.7227 1.55257e-16)
(49.9253 13.6843 1.64871e-17)
(49.9137 13.6476 -1.18787e-16)
(49.9016 13.6128 1.21934e-16)
(49.8889 13.5796 1.00918e-16)
(49.8759 13.5481 7.20697e-17)
(49.8625 13.5183 -2.1093e-17)
(49.849 13.4901 0)
(49.8353 13.4636 1.31706e-16)
(49.8215 13.4387 -8.13871e-19)
(49.808 13.4155 1.33995e-16)
(49.7952 13.3938 2.06279e-18)
(49.7823 13.3741 2.22098e-16)
(49.7693 13.357 1.91183e-16)
(49.763 13.3392 -1.1497e-17)
(49.758 13.3206 2.02217e-16)
(50.0045 14.5587 -4.34392e-18)
(50.0093 14.4843 1.24176e-16)
(50.0125 14.413 -6.00255e-17)
(50.0141 14.3445 -1.06989e-16)
(50.0143 14.2789 1.93213e-16)
(50.0132 14.2161 5.7255e-18)
(50.0108 14.1558 0)
(50.0072 14.0981 -7.81733e-17)
(50.0024 14.0429 4.41222e-18)
(49.9967 13.9901 0)
(49.9899 13.9395 -1.09218e-16)
(49.9821 13.8912 -6.76034e-18)
(49.9735 13.845 -9.45378e-17)
(49.9641 13.8008 8.86476e-17)
(49.9539 13.7587 -9.70831e-18)
(49.943 13.7185 -1.53096e-16)
(49.9315 13.6801 0)
(49.9193 13.6436 1.3112e-16)
(49.9067 13.6088 1.35253e-17)
(49.8935 13.5758 -1.91086e-16)
(49.88 13.5444 -1.72715e-16)
(49.8662 13.5147 1.09709e-17)
(49.8522 13.4867 1.57839e-16)
(49.838 13.4604 1.74951e-17)
(49.8239 13.4357 1.16246e-16)
(49.8101 13.4127 1.22737e-16)
(49.7969 13.3913 -1.1118e-16)
(49.7838 13.372 -2.20466e-16)
(49.7704 13.3552 -1.77634e-16)
(49.7642 13.3377 -1.23245e-17)
(49.7595 13.3192 1.84927e-16)
(16.7433 -1.54706 0)
(50.0167 14.6322 7.53603e-17)
(50.0223 14.5546 4.17803e-18)
(50.0262 14.4801 -1.22662e-16)
(50.0285 14.4086 5.53648e-17)
(50.0293 14.3401 2.20533e-16)
(50.0286 14.2744 -1.02799e-16)
(50.0267 14.2114 -9.73302e-17)
(50.0235 14.1512 0)
(50.0191 14.0935 -9.49017e-18)
(50.0137 14.0382 -1.40708e-16)
(50.0072 13.9854 0)
(49.9997 13.9348 1.21719e-16)
(49.9913 13.8865 -1.14443e-16)
(49.9821 13.8404 9.20345e-17)
(49.972 13.7963 1.36444e-17)
(49.9612 13.7542 1.04471e-17)
(49.9497 13.714 1.49661e-16)
(49.9376 13.6758 -1.69121e-17)
(49.925 13.6393 1.07918e-17)
(49.9118 13.6047 -1.28441e-16)
(49.8981 13.5718 2.05888e-16)
(49.8841 13.5406 -1.14529e-17)
(49.8698 13.5111 0)
(49.8554 13.4832 3.19898e-18)
(49.8408 13.4571 8.36486e-18)
(49.8263 13.4326 -1.31984e-16)
(49.8121 13.4099 -2.60555e-16)
(49.7986 13.3888 -2.30079e-16)
(49.7853 13.3697 -1.34608e-17)
(49.7716 13.3533 -1.20797e-17)
(49.7653 13.3361 1.88361e-16)
(49.761 13.3178 -1.64083e-16)
(18.9243 -1.71369 0)
(17.2636 -1.5571 2.33035e-15)
(50.0292 14.709 -8.36462e-17)
(50.0356 14.6279 -4.87418e-18)
(50.0402 14.5501 0)
(50.0431 14.4755 6.71928e-17)
(50.0445 14.4039 1.7851e-18)
(50.0444 14.3353 -2.17282e-16)
(50.043 14.2695 1.13676e-16)
(50.0402 14.2066 8.43234e-17)
(50.0362 14.1463 5.09843e-18)
(50.0311 14.0885 7.78805e-17)
(50.0249 14.0333 1.47899e-16)
(50.0177 13.9805 0)
(50.0095 13.93 -1.12064e-16)
(50.0005 13.8817 2.21719e-16)
(49.9906 13.8356 -1.09033e-16)
(49.9799 13.7915 -1.90472e-16)
(49.9685 13.7495 -1.65903e-16)
(49.9565 13.7095 -1.38867e-16)
(49.9438 13.6713 5.11739e-19)
(49.9306 13.635 1.79454e-17)
(49.9168 13.6004 1.12717e-16)
(49.9027 13.5677 -1.0301e-16)
(49.8882 13.5366 0)
(49.8734 13.5072 0)
(49.8585 13.4796 -3.09447e-16)
(49.8436 13.4536 0)
(49.8287 13.4294 0)
(49.8141 13.4069 1.30542e-17)
(49.8003 13.3861 1.03345e-17)
(49.7867 13.3673 -1.35667e-17)
(49.7727 13.3514 -1.94745e-16)
(49.7664 13.3345 -1.86979e-16)
(49.7626 13.3162 1.94378e-17)
(20.4553 -1.83904 0)
(19.4609 -1.72164 3.75194e-20)
(17.7991 -1.56534 -4.41686e-20)
(50.0418 14.7892 5.01628e-17)
(50.049 14.7045 5.07309e-18)
(50.0544 14.6233 0)
(50.0581 14.5454 0)
(50.0601 14.4706 4.19981e-18)
(50.0606 14.3989 -5.91201e-17)
(50.0596 14.3303 -1.69487e-17)
(50.0573 14.2645 -9.35938e-17)
(50.0538 14.2014 0)
(50.049 14.1411 -8.06806e-17)
(50.0431 14.0834 -2.4056e-18)
(50.0362 14.0282 0)
(50.0282 13.9753 1.40418e-16)
(50.0194 13.9249 -2.94802e-18)
(50.0096 13.8766 -1.07603e-16)
(49.9991 13.8306 -1.00687e-16)
(49.9878 13.7866 8.98025e-17)
(49.9758 13.7447 1.64006e-16)
(49.9632 13.7047 1.3419e-16)
(49.9499 13.6667 -1.39774e-16)
(49.9362 13.6304 -1.24839e-16)
(49.9219 13.596 -1.48567e-17)
(49.9073 13.5634 0)
(49.8923 13.5325 0)
(49.8771 13.5033 0)
(49.8617 13.4758 1.59678e-16)
(49.8463 13.4501 0)
(49.8311 13.4261 0)
(49.8161 13.4038 1.39695e-17)
(49.802 13.3833 1.05813e-17)
(49.7882 13.3648 0)
(49.7739 13.3494 3.89062e-16)
(49.7676 13.3327 2.35194e-17)
(49.7643 13.3145 1.94675e-17)
(21.6207 -1.93139 0)
(21.006 -1.84474 -3.82337e-16)
(20.0142 -1.72727 5.95223e-16)
(18.3534 -1.57213 -2.42421e-15)
(50.0546 14.8728 4.76108e-17)
(50.0627 14.7845 -9.62954e-17)
(50.0689 14.6997 1.69751e-16)
(50.0733 14.6183 -7.94025e-17)
(50.076 14.5403 -7.74509e-17)
(50.0771 14.4654 0)
(50.0767 14.3937 7.40431e-18)
(50.0748 14.3249 1.10206e-16)
(50.0717 14.2591 1.03913e-16)
(50.0673 14.196 -5.71529e-18)
(50.0617 14.1357 7.97669e-17)
(50.0551 14.078 -7.78469e-17)
(50.0474 14.0228 -8.77001e-18)
(50.0388 13.97 -2.55438e-16)
(50.0292 13.9196 1.19187e-16)
(50.0188 13.8714 0)
(50.0076 13.8254 1.12486e-16)
(49.9957 13.7815 -1.18521e-17)
(49.9831 13.7397 2.10138e-17)
(49.9699 13.6998 -3.06315e-16)
(49.9561 13.6619 1.38292e-16)
(49.9417 13.6258 1.55068e-17)
(49.927 13.5915 1.50152e-17)
(49.9118 13.559 -2.14874e-16)
(49.8963 13.5283 1.25217e-17)
(49.8807 13.4992 1.90905e-16)
(49.8649 13.472 -1.64235e-16)
(49.8491 13.4464 0)
(49.8334 13.4226 -1.54806e-16)
(49.8181 13.4007 2.5187e-16)
(49.8037 13.3804 -3.43993e-18)
(49.7896 13.3623 -1.37617e-17)
(49.775 13.3473 -2.18907e-16)
(49.7687 13.3309 -2.36206e-17)
(49.7659 13.3127 -2.27881e-17)
(22.6119 -2.00598 0)
(22.1808 -1.93507 0)
(21.574 -1.84834 3.93349e-16)
(20.5869 -1.73111 -2.97191e-20)
(18.9266 -1.5753 0)
(50.0676 14.9602 1.72647e-18)
(50.0767 14.868 1.61417e-18)
(50.0837 14.7795 9.50389e-17)
(50.0889 14.6946 -8.48786e-17)
(50.0923 14.613 7.30998e-17)
(50.094 14.5349 7.19858e-17)
(50.0941 14.4599 0)
(50.0928 14.3881 0)
(50.0901 14.3193 -1.22041e-16)
(50.0861 14.2534 -2.07694e-16)
(50.0809 14.1904 0)
(50.0745 14.1301 -9.38947e-17)
(50.0671 14.0724 1.02812e-17)
(50.0586 14.0172 1.38916e-16)
(50.0493 13.9644 1.31934e-16)
(50.039 13.9141 0)
(50.028 13.866 9.92011e-17)
(50.0161 13.82 1.23706e-17)
(50.0036 13.7763 -1.87233e-16)
(49.9904 13.7345 0)
(49.9765 13.6947 3.09643e-16)
(49.9622 13.6569 -9.10766e-18)
(49.9473 13.6209 -3.22928e-17)
(49.932 13.5868 -1.03681e-16)
(49.9163 13.5545 -3.37191e-18)
(49.9004 13.5239 -1.19456e-17)
(49.8842 13.4951 -1.77859e-16)
(49.868 13.468 1.73385e-16)
(49.8518 13.4426 1.51785e-16)
(49.8357 13.4191 -1.9948e-17)
(49.8201 13.3974 1.90985e-18)
(49.8054 13.3774 2.47318e-16)
(49.7911 13.3596 -1.38509e-17)
(49.7762 13.345 5.0004e-17)
(49.7699 13.329 2.47102e-17)
(49.7677 13.3107 1.92004e-16)
(23.5035 -2.07043 0)
(23.1797 -2.008 0)
(22.7583 -1.93666 -5.65603e-16)
(22.1609 -1.84906 4.04197e-16)
(21.1777 -1.73204 0)
(19.5198 -1.57656 -2.51108e-15)
(50.0809 15.0513 -1.20372e-16)
(50.0909 14.9552 5.8418e-17)
(50.0988 14.8628 -1.58266e-16)
(50.1048 14.7741 0)
(50.1089 14.689 -2.96775e-19)
(50.1113 14.6074 0)
(50.112 14.5291 0)
(50.1112 14.4541 0)
(50.1089 14.3823 -1.19024e-16)
(50.1053 14.3134 -2.98442e-18)
(50.1005 14.2475 9.70329e-17)
(50.0944 14.1845 5.85933e-18)
(50.0873 14.1242 7.64112e-17)
(50.0791 14.0665 -1.63408e-16)
(50.0699 14.0113 -1.45965e-16)
(50.0598 13.9587 -1.36576e-16)
(50.0488 13.9084 0)
(50.0371 13.8603 -1.04189e-16)
(50.0246 13.8145 -1.1653e-16)
(50.0114 13.7708 3.87828e-16)
(49.9976 13.7291 1.73236e-16)
(49.9832 13.6895 1.27134e-17)
(49.9683 13.6518 1.73478e-17)
(49.9528 13.616 -1.58319e-17)
(49.937 13.582 1.03264e-16)
(49.9209 13.5498 4.34e-16)
(49.9044 13.5194 -2e-16)
(49.8878 13.4907 -1.10282e-17)
(49.8711 13.4638 0)
(49.8545 13.4387 4.04792e-17)
(49.8381 13.4154 1.38103e-16)
(49.822 13.394 -1.43292e-16)
(49.8071 13.3743 1.44553e-17)
(49.7925 13.3568 1.92815e-16)
(49.7773 13.3427 -1.9821e-16)
(49.771 13.327 0)
(49.7695 13.3087 -4.26483e-16)
(24.3356 -2.12844 0)
(24.0791 -2.07088 0)
(23.7653 -2.00763 -2.18612e-21)
(23.3549 -1.93523 -2.90812e-16)
(22.7672 -1.84745 0)
(21.7911 -1.73019 6.37183e-16)
(20.135 -1.57551 0)
(50.0943 15.1465 -7.13603e-17)
(50.1054 15.0462 1.18789e-16)
(50.1142 14.9498 0)
(50.121 14.8572 1.02875e-16)
(50.1259 14.7684 -3.23318e-19)
(50.1289 14.6832 0)
(50.1303 14.6014 8.27142e-17)
(50.13 14.5231 0)
(50.1283 14.448 0)
(50.1251 14.3761 2.53016e-16)
(50.1206 14.3072 2.39176e-16)
(50.1149 14.2413 6.84658e-18)
(50.108 14.1783 6.2732e-18)
(50.1 14.118 9.02822e-17)
(50.091 14.0604 1.61381e-16)
(50.0811 14.0053 -1.41403e-16)
(50.0703 13.9527 1.34966e-16)
(50.0586 13.9024 -7.57969e-18)
(50.0462 13.8545 -1.00435e-16)
(50.0331 13.8087 1.03643e-16)
(50.0193 13.7651 -1.87827e-16)
(50.0048 13.7236 3.51432e-18)
(49.9898 13.6841 -1.56433e-16)
(49.9743 13.6465 -9.29042e-18)
(49.9584 13.6108 1.69503e-17)
(49.942 13.577 -1.21106e-16)
(49.9253 13.5449 -2.17061e-16)
(49.9084 13.5147 -3.50635e-18)
(49.8914 13.4863 0)
(49.8742 13.4596 -2.03639e-17)
(49.8572 13.4347 -1.51814e-16)
(49.8404 13.4116 3.51295e-17)
(49.824 13.3905 1.13054e-16)
(49.8088 13.3711 2.5428e-16)
(49.794 13.3539 -2.17807e-16)
(49.7785 13.3403 1.96958e-16)
(49.7721 13.3249 4.88054e-17)
(49.7713 13.3065 2.1512e-16)
(25.1321 -2.18215 1.35984e-16)
(24.9194 -2.1275 0)
(24.6725 -2.06883 1.85455e-16)
(24.37 -2.00425 4.57645e-16)
(23.9715 -1.93116 0)
(23.3955 -1.84269 -4.25545e-16)
(22.4265 -1.72532 6.50545e-16)
(20.7726 -1.57063 0)
(50.1079 15.2457 -1.4551e-16)
(50.12 15.1411 -2.11026e-18)
(50.1299 15.0405 -6.12541e-17)
(50.1376 14.944 -3.68904e-18)
(50.1433 14.8513 1.13903e-16)
(50.147 14.7623 0)
(50.149 14.6769 -5.77496e-18)
(50.1493 14.5951 -1.70587e-16)
(50.1481 14.5167 0)
(50.1453 14.4416 -8.97182e-18)
(50.1412 14.3696 -1.26411e-16)
(50.1359 14.3008 -2.41943e-16)
(50.1293 14.2349 -1.08502e-16)
(50.1215 14.1719 -9.9693e-17)
(50.1128 14.1116 -2.83254e-16)
(50.103 14.054 -2.06621e-17)
(50.0923 13.999 -3.33756e-18)
(50.0808 13.9464 1.30519e-16)
(50.0684 13.8963 -1.42639e-16)
(50.0553 13.8484 9.98576e-17)
(50.0415 13.8028 0)
(50.0271 13.7593 0)
(50.012 13.7179 -1.73158e-16)
(49.9965 13.6785 1.99768e-17)
(49.9804 13.6411 -1.64584e-16)
(49.9639 13.6055 0)
(49.947 13.5718 1.20008e-16)
(49.9298 13.54 -2.37182e-16)
(49.9124 13.5099 2.0005e-16)
(49.8949 13.4817 0)
(49.8773 13.4552 0)
(49.8599 13.4305 -3.8621e-17)
(49.8427 13.4077 1.72348e-17)
(49.8259 13.3868 -2.91498e-16)
(49.8104 13.3677 -1.24081e-17)
(49.7954 13.3509 -2.07359e-16)
(49.7796 13.3378 -2.24308e-16)
(49.7733 13.3227 -2.50603e-17)
(49.7732 13.3041 1.7231e-16)
(25.9081 -2.23283 3.16861e-21)
(25.7249 -2.1799 0)
(25.5214 -2.1239 0)
(25.2854 -2.06369 -1.9086e-16)
(24.9953 -1.99825 0)
(24.61 -1.92369 3.06719e-16)
(24.0466 -1.83467 -8.72021e-16)
(23.0848 -1.71646 0)
(21.4355 -1.56278 0)
(50.1217 15.3493 2.7223e-21)
(50.135 15.2401 7.27563e-17)
(50.1459 15.1353 6.72971e-17)
(50.1545 15.0345 6.789e-17)
(50.161 14.9378 0)
(50.1656 14.8449 -1.05853e-16)
(50.1682 14.7558 6.02369e-18)
(50.1691 14.6703 5.54212e-18)
(50.1684 14.5884 8.25646e-17)
(50.1661 14.51 9.36033e-18)
(50.1624 14.4348 -9.07512e-18)
(50.1574 14.3629 -8.32779e-18)
(50.1511 14.294 1.17707e-16)
(50.1436 14.2281 1.07492e-16)
(50.1351 14.1651 1.10569e-16)
(50.1255 14.1049 7.01471e-18)
(50.1149 14.0474 0)
(50.1035 13.9924 3.14128e-16)
(50.0912 13.94 -1.37822e-16)
(50.0782 13.8899 1.25914e-16)
(50.0644 13.8422 0)
(50.0499 13.7966 -2.14163e-16)
(50.0349 13.7533 1.24682e-17)
(50.0192 13.712 -2.21051e-17)
(50.003 13.6727 0)
(49.9864 13.6354 2.93708e-16)
(49.9694 13.6 -1.72615e-17)
(49.952 13.5665 -1.08375e-16)
(49.9343 13.5349 2.21043e-16)
(49.9164 13.505 -1.92022e-16)
(49.8984 13.4769 0)
(49.8804 13.4507 -1.50368e-16)
(49.8625 13.4262 0)
(49.845 13.4037 -9.21531e-19)
(49.8279 13.3831 -1.00055e-16)
(49.812 13.3642 -2.53513e-16)
(49.7969 13.3477 2.20097e-16)
(49.7807 13.3352 3.98136e-16)
(49.7744 13.3204 4.90963e-17)
(49.7751 13.3016 2.11123e-18)
(26.6744 -2.28137 2.89067e-21)
(26.5113 -2.22942 0)
(26.3364 -2.17496 0)
(26.1431 -2.11719 1.6603e-16)
(25.9193 -2.05573 0)
(25.6428 -1.98845 0)
(25.2716 -1.91308 5.03312e-21)
(24.7213 -1.82281 1.3346e-20)
(23.7687 -1.70494 0)
(22.1215 -1.54923 -1.27533e-20)
(50.1357 15.4572 4.57651e-17)
(50.1502 15.3435 -2.68486e-18)
(50.1622 15.2341 4.8162e-18)
(50.1718 15.129 -4.45107e-18)
(50.1792 15.028 -6.30752e-17)
(50.1845 14.9311 0)
(50.1879 14.8381 6.98626e-18)
(50.1894 14.7489 0)
(50.1893 14.6634 0)
(50.1875 14.5814 5.4403e-18)
(50.1842 14.5029 1.66861e-16)
(50.1795 14.4277 -1.35728e-16)
(50.1736 14.3558 -1.40395e-16)
(50.1664 14.2869 0)
(50.158 14.2211 0)
(50.1486 14.1581 -1.14671e-16)
(50.1382 14.098 1.93962e-16)
(50.1269 14.0405 1.08394e-17)
(50.1147 13.9857 3.20999e-18)
(50.1017 13.9333 1.42068e-16)
(50.0879 13.8833 0)
(50.0734 13.8357 1.51059e-17)
(50.0583 13.7903 2.12744e-16)
(50.0426 13.7471 -1.85251e-16)
(50.0264 13.7059 0)
(50.0096 13.6668 0)
(49.9924 13.6296 -1.47919e-16)
(49.9748 13.5944 0)
(49.9569 13.5611 1.22179e-16)
(49.9387 13.5296 -1.36724e-17)
(49.9203 13.4999 2.03489e-16)
(49.9019 13.472 0)
(49.8834 13.446 1.69791e-16)
(49.8652 13.4218 1.56417e-16)
(49.8472 13.3995 -3.58449e-17)
(49.8298 13.3792 2.77345e-16)
(49.8137 13.3606 0)
(49.7983 13.3445 -2.84314e-17)
(49.7819 13.3324 -2.23768e-16)
(49.7755 13.3179 0)
(49.7771 13.2989 -1.95439e-16)
(27.4385 -2.32835 2.59653e-21)
(27.2891 -2.27691 0)
(27.1336 -2.22323 0)
(26.9682 -2.16673 -3.1051e-22)
(26.7865 -2.10746 0)
(26.5758 -2.04403 0)
(26.3138 -1.97558 2.47942e-16)
(25.9576 -1.89851 0)
(25.4218 -1.80728 4.56659e-16)
(24.4766 -1.68883 1.37748e-15)
(22.834 -1.5334 0)
(50.1498 15.5699 0)
(50.1656 15.4513 5.42658e-18)
(50.1788 15.3372 -1.69663e-16)
(50.1894 15.2276 4.64067e-18)
(50.1978 15.1223 0)
(50.2039 15.0211 -6.57363e-17)
(50.208 14.9241 -7.28588e-18)
(50.2102 14.8309 7.07194e-18)
(50.2107 14.7416 0)
(50.2094 14.656 -1.16612e-17)
(50.2066 14.574 0)
(50.2023 14.4955 -3.14355e-16)
(50.1966 14.4203 1.42535e-16)
(50.1897 14.3484 1.39228e-16)
(50.1816 14.2796 0)
(50.1724 14.2138 2.06508e-17)
(50.1621 14.1509 -1.4549e-17)
(50.1509 14.0908 1.64581e-16)
(50.1388 14.0334 0)
(50.1258 13.9787 1.31483e-17)
(50.1121 13.9264 -1.3138e-16)
(50.0976 13.8765 9.30741e-19)
(50.0825 13.829 -1.43879e-17)
(50.0667 13.7838 0)
(50.0503 13.7406 1.95202e-16)
(50.0335 13.6996 0)
(50.0161 13.6607 -1.66498e-16)
(49.9984 13.6237 0)
(49.9802 13.5886 -1.37377e-16)
(49.9618 13.5555 -2.5048e-16)
(49.9431 13.5241 0)
(49.9242 13.4947 -1.33108e-17)
(49.9053 13.467 -1.90012e-16)
(49.8865 13.4412 -1.52459e-16)
(49.8678 13.4172 -1.37201e-16)
(49.8494 13.3952 -1.75584e-17)
(49.8317 13.3752 -2.8186e-16)
(49.8153 13.3569 2.73313e-16)
(49.7997 13.3411 0)
(49.783 13.3295 2.0058e-16)
(49.7766 13.3154 2.3986e-17)
(49.7791 13.2961 -1.93222e-17)
(28.2065 -2.37417 2.35225e-21)
(28.0663 -2.32291 0)
(27.9237 -2.26958 0)
(27.7768 -2.21364 -2.73596e-16)
(27.6221 -2.15544 0)
(27.4528 -2.09394 0)
(27.2563 -2.02899 0)
(27.0096 -1.95836 0)
(26.6697 -1.88008 -1.02842e-20)
(26.1484 -1.78758 -9.33527e-16)
(25.2137 -1.66822 0)
(23.5738 -1.51164 -2.7313e-15)
(50.1642 15.6873 5.17695e-17)
(50.1813 15.5637 3.12802e-18)
(50.1957 15.4448 0)
(50.2074 15.3305 1.66987e-16)
(50.2167 15.2206 8.31803e-17)
(50.2238 15.1151 -4.57101e-18)
(50.2287 15.0138 6.4774e-17)
(50.2316 14.9166 1.2297e-16)
(50.2326 14.8233 7.15474e-18)
(50.2319 14.734 1.16568e-16)
(50.2295 14.6483 9.53326e-17)
(50.2256 14.5663 0)
(50.2203 14.4877 3.17651e-16)
(50.2137 14.4126 -1.82388e-17)
(50.2058 14.3407 1.35055e-16)
(50.1968 14.2719 1.24122e-16)
(50.1867 14.2062 0)
(50.1756 14.1433 3.21213e-16)
(50.1635 14.0834 -1.85696e-16)
(50.1506 14.0261 -1.04358e-17)
(50.1369 13.9714 -1.64751e-16)
(50.1224 13.9193 -1.74193e-17)
(50.1073 13.8695 0)
(50.0914 13.8221 -1.05082e-16)
(50.075 13.777 0)
(50.058 13.734 0)
(50.0406 13.6932 2.20331e-17)
(50.0226 13.6544 1.84776e-17)
(50.0043 13.6176 1.94117e-17)
(49.9856 13.5827 1.36229e-16)
(49.9666 13.5497 -3.93982e-18)
(49.9475 13.5186 1.38885e-17)
(49.9281 13.4893 1.34106e-17)
(49.9087 13.4618 3.79961e-16)
(49.8894 13.4363 1.94572e-16)
(49.8704 13.4125 0)
(49.8517 13.3907 1.76553e-17)
(49.8335 13.371 2.63364e-16)
(49.8168 13.3531 -2.42271e-16)
(49.8011 13.3375 2.24787e-16)
(49.7841 13.3265 -2.24593e-16)
(49.7777 13.3128 2.15999e-16)
(49.7812 13.293 0)
(28.9835 -2.4192 1.98725e-21)
(28.849 -2.3679 1.08918e-16)
(28.7147 -2.31453 0)
(28.58 -2.2587 1.27852e-16)
(28.4428 -2.20088 0)
(28.2996 -2.14022 -1.57749e-16)
(28.1437 -2.07688 0)
(27.9622 -2.00949 0)
(27.7321 -1.93732 -2.60652e-16)
(27.4091 -1.85706 1.26011e-20)
(26.9035 -1.76271 0)
(25.9773 -1.64233 9.19594e-21)
(24.3414 -1.48506 -1.38163e-15)
(50.1787 15.8096 -3.69448e-18)
(50.1972 15.6809 -3.25988e-18)
(50.2129 15.557 0)
(50.2258 15.4378 0)
(50.2361 15.3232 -8.85884e-17)
(50.2441 15.2131 -7.22982e-17)
(50.2498 15.1074 -7.30541e-17)