/*--------------------------------*- C++ -*----------------------------------*\
  =========                 |
  \\      /  F ield         | OpenFOAM: The Open Source CFD Toolbox
   \\    /   O peration     | Website:  https://openfoam.org
    \\  /    A nd           | Version:  7
     \\/     M anipulation  |
\*---------------------------------------------------------------------------*/
FoamFile
{
    version     2.0;
    format      ascii;
    class       volScalarField;
    location    "800";
    object      yPlus;
}
// * * * * * * * * * * * * * * * * * * * * * * * * * * * * * * * * * * * * * //

dimensions      [0 0 0 0 0 0 0];

internalField   uniform 0;

boundaryField
{
    inlet-l
    {
        type            calculated;
        value           nonuniform 0();
    }
    airfoil-l1
    {
        type            calculated;
        value           nonuniform 0();
    }
    empty-1
    {
        type            empty;
    }
    empty-2
    {
        type            empty;
    }
    wall-l1
    {
        type            calculated;
        value           nonuniform 0();
    }
    airfoil-l2
    {
        type            calculated;
        value           nonuniform 0();
    }
    empty-3
    {
        type            empty;
    }
    empty-4
    {
        type            empty;
    }
    wall-l2
    {
        type            calculated;
        value           nonuniform 0();
    }
    outlet-l
    {
        type            calculated;
        value           nonuniform 0();
    }
    empty-5
    {
        type            empty;
    }
    empty-6
    {
        type            empty;
    }
    outlet-h
    {
        type            calculated;
        value           nonuniform 0();
    }
    wall-h2
    {
        type            calculated;
        value           nonuniform 0();
    }
    empty-7
    {
        type            empty;
    }
    empty-8
    {
        type            empty;
    }
    airfoil-h2
    {
        type            calculated;
        value           nonuniform List<scalar> 
33
(
28.6725
28.1445
27.6637
27.2102
26.7633
26.3262
25.9044
25.4914
25.0829
24.679
24.2836
23.897
23.5135
23.1357
22.7638
22.3977
22.0396
21.6876
21.3375
20.9959
20.663
20.3346
20.0131
19.7001
19.3926
19.0906
18.7965
18.5071
18.2254
17.9473
17.6743
17.4079
17.1437
)
;
    }
    wall-h1
    {
        type            calculated;
        value           nonuniform List<scalar> 
33
(
131.98
132.033
132.002
131.993
132.005
132.022
132.037
132.055
132.074
132.099
132.126
132.158
132.19
132.231
132.27
132.314
132.357
132.412
132.461
132.519
132.575
132.64
132.705
132.769
132.847
132.917
132.998
133.077
133.157
133.249
133.333
133.428
133.523
)
;
    }
    empty-9
    {
        type            empty;
    }
    empty-10
    {
        type            empty;
    }
    inlet-h
    {
        type            calculated;
        value           uniform 0;
    }
    airfoil-h1
    {
        type            calculated;
        value           nonuniform List<scalar> 
91
(
26.0222
25.7683
25.5418
25.353
25.19
25.0422
24.9086
24.7961
24.7124
24.648
24.5877
24.5567
24.5417
24.529
24.5225
24.5263
24.542
24.5657
24.5984
24.6305
24.6758
24.7292
24.792
24.8562
24.924
24.9958
25.0753
25.1553
25.2453
25.3341
25.4277
25.5197
25.6126
25.718
25.8199
25.9186
26.0227
26.1268
26.2315
26.3419
26.4511
26.5589
26.6626
26.7693
26.8778
26.9853
27.0869
27.1941
27.2975
27.4011
27.5094
27.6082
27.7019
27.8054
27.9017
27.9907
28.0806
28.1756
28.2653
28.3506
28.431
28.5117
28.5925
28.66
28.7322
28.8016
28.8652
28.9235
28.9812
29.0348
29.0891
29.1328
29.172
29.2096
29.2503
29.2788
29.3033
29.3171
29.3316
29.3385
29.3407
29.3378
29.3253
29.3036
29.2789
29.2491
29.2043
29.1585
29.1095
29.0516
28.982
)
;
    }
    empty-11
    {
        type            empty;
    }
    empty-12
    {
        type            empty;
    }
    procBoundary3to0
    {
        type            processor;
        value           uniform 0;
    }
    procBoundary3to2
    {
        type            processor;
        value           uniform 0;
    }
}


// ************************************************************************* //
