/*--------------------------------*- C++ -*----------------------------------*\
  =========                 |
  \\      /  F ield         | OpenFOAM: The Open Source CFD Toolbox
   \\    /   O peration     | Website:  https://openfoam.org
    \\  /    A nd           | Version:  7
     \\/     M anipulation  |
\*---------------------------------------------------------------------------*/
FoamFile
{
    version     2.0;
    format      ascii;
    class       volScalarField;
    location    "1200";
    object      nut;
}
// * * * * * * * * * * * * * * * * * * * * * * * * * * * * * * * * * * * * * //

dimensions      [0 2 -1 0 0 0 0];

internalField   nonuniform List<scalar> 
23052
(
5.20708e-06
5.20677e-06
5.2079e-06
5.20675e-06
5.20796e-06
5.20899e-06
5.20681e-06
5.20788e-06
5.20871e-06
5.20902e-06
5.20685e-06
5.20782e-06
5.20851e-06
5.20877e-06
5.20848e-06
5.20799e-06
5.20685e-06
5.20772e-06
5.20829e-06
5.20849e-06
5.20824e-06
5.20784e-06
5.20791e-06
5.20876e-06
5.20682e-06
5.2076e-06
5.20809e-06
5.20825e-06
5.20803e-06
5.20775e-06
5.20796e-06
5.20883e-06
5.21014e-06
5.20678e-06
5.20747e-06
5.20789e-06
5.20803e-06
5.20784e-06
5.20768e-06
5.20805e-06
5.20898e-06
5.21022e-06
5.2116e-06
5.20674e-06
5.20734e-06
5.20772e-06
5.20783e-06
5.20769e-06
5.20766e-06
5.20816e-06
5.20913e-06
5.21035e-06
5.21166e-06
5.21298e-06
5.20669e-06
5.20723e-06
5.20756e-06
5.20766e-06
5.20757e-06
5.20768e-06
5.20829e-06
5.20929e-06
5.21049e-06
5.21176e-06
5.21302e-06
5.21426e-06
5.20666e-06
5.20712e-06
5.20741e-06
5.20751e-06
5.20749e-06
5.20774e-06
5.20844e-06
5.20946e-06
5.21063e-06
5.21185e-06
5.21308e-06
5.21428e-06
5.21546e-06
5.20662e-06
5.20704e-06
5.2073e-06
5.2074e-06
5.20746e-06
5.20784e-06
5.20861e-06
5.20963e-06
5.21077e-06
5.21196e-06
5.21314e-06
5.21432e-06
5.21548e-06
5.2166e-06
5.2066e-06
5.20697e-06
5.2072e-06
5.20732e-06
5.20747e-06
5.20797e-06
5.20878e-06
5.2098e-06
5.21091e-06
5.21206e-06
5.21321e-06
5.21436e-06
5.21549e-06
5.2166e-06
5.21767e-06
5.20661e-06
5.20693e-06
5.20713e-06
5.20728e-06
5.20754e-06
5.20812e-06
5.20897e-06
5.20997e-06
5.21105e-06
5.21216e-06
5.21328e-06
5.2144e-06
5.21551e-06
5.2166e-06
5.21766e-06
5.21867e-06
5.20663e-06
5.20691e-06
5.2071e-06
5.20728e-06
5.20765e-06
5.2083e-06
5.20915e-06
5.21013e-06
5.21118e-06
5.21227e-06
5.21336e-06
5.21445e-06
5.21554e-06
5.2166e-06
5.21765e-06
5.21866e-06
5.21961e-06
5.20668e-06
5.20691e-06
5.20709e-06
5.20733e-06
5.20779e-06
5.20848e-06
5.20933e-06
5.21029e-06
5.21132e-06
5.21237e-06
5.21344e-06
5.21451e-06
5.21557e-06
5.21661e-06
5.21764e-06
5.21863e-06
5.2196e-06
5.2205e-06
5.20672e-06
5.20692e-06
5.20712e-06
5.20743e-06
5.20795e-06
5.20866e-06
5.20951e-06
5.21045e-06
5.21145e-06
5.21247e-06
5.21352e-06
5.21456e-06
5.2156e-06
5.21663e-06
5.21763e-06
5.21861e-06
5.21956e-06
5.22048e-06
5.22133e-06
5.20675e-06
5.20695e-06
5.20719e-06
5.20757e-06
5.20812e-06
5.20884e-06
5.20968e-06
5.2106e-06
5.21157e-06
5.21258e-06
5.2136e-06
5.21462e-06
5.21564e-06
5.21665e-06
5.21764e-06
5.2186e-06
5.21953e-06
5.22043e-06
5.2213e-06
5.2221e-06
5.20678e-06
5.207e-06
5.2073e-06
5.20772e-06
5.2083e-06
5.20902e-06
5.20984e-06
5.21074e-06
5.2117e-06
5.21268e-06
5.21368e-06
5.21469e-06
5.21569e-06
5.21667e-06
5.21764e-06
5.21859e-06
5.2195e-06
5.22039e-06
5.22125e-06
5.22208e-06
5.22284e-06
5.20681e-06
5.20709e-06
5.20742e-06
5.20787e-06
5.20846e-06
5.20918e-06
5.21e-06
5.21088e-06
5.21182e-06
5.21278e-06
5.21377e-06
5.21475e-06
5.21573e-06
5.2167e-06
5.21765e-06
5.21858e-06
5.21948e-06
5.22036e-06
5.2212e-06
5.22202e-06
5.22281e-06
5.22352e-06
5.20684e-06
5.20716e-06
5.20754e-06
5.20802e-06
5.20862e-06
5.20934e-06
5.21015e-06
5.21102e-06
5.21194e-06
5.21289e-06
5.21385e-06
5.21482e-06
5.21578e-06
5.21674e-06
5.21767e-06
5.21858e-06
5.21947e-06
5.22033e-06
5.22117e-06
5.22197e-06
5.22275e-06
5.22349e-06
5.22417e-06
5.20686e-06
5.20724e-06
5.20765e-06
5.20815e-06
5.20876e-06
5.20948e-06
5.21029e-06
5.21115e-06
5.21206e-06
5.21299e-06
5.21394e-06
5.21489e-06
5.21583e-06
5.21677e-06
5.21769e-06
5.21859e-06
5.21946e-06
5.22031e-06
5.22113e-06
5.22193e-06
5.22269e-06
5.22343e-06
5.22414e-06
5.22477e-06
5.20688e-06
5.20731e-06
5.20775e-06
5.20828e-06
5.2089e-06
5.20963e-06
5.21043e-06
5.21128e-06
5.21217e-06
5.21309e-06
5.21402e-06
5.21496e-06
5.21589e-06
5.21681e-06
5.21771e-06
5.21859e-06
5.21945e-06
5.22029e-06
5.2211e-06
5.22189e-06
5.22264e-06
5.22337e-06
5.22407e-06
5.22474e-06
5.22533e-06
5.2069e-06
5.20737e-06
5.20785e-06
5.2084e-06
5.20904e-06
5.20976e-06
5.21056e-06
5.2114e-06
5.21228e-06
5.21319e-06
5.21411e-06
5.21503e-06
5.21594e-06
5.21685e-06
5.21774e-06
5.21861e-06
5.21945e-06
5.22028e-06
5.22108e-06
5.22185e-06
5.2226e-06
5.22332e-06
5.22401e-06
5.22467e-06
5.2253e-06
5.22586e-06
5.20692e-06
5.20743e-06
5.20794e-06
5.20851e-06
5.20916e-06
5.20989e-06
5.21069e-06
5.21152e-06
5.2124e-06
5.21329e-06
5.21419e-06
5.2151e-06
5.216e-06
5.21689e-06
5.21777e-06
5.21862e-06
5.21946e-06
5.22027e-06
5.22106e-06
5.22182e-06
5.22256e-06
5.22327e-06
5.22395e-06
5.2246e-06
5.22523e-06
5.22583e-06
5.22635e-06
5.20694e-06
5.20749e-06
5.20803e-06
5.20862e-06
5.20928e-06
5.21002e-06
5.21081e-06
5.21164e-06
5.2125e-06
5.21339e-06
5.21428e-06
5.21517e-06
5.21606e-06
5.21693e-06
5.2178e-06
5.21864e-06
5.21946e-06
5.22027e-06
5.22104e-06
5.2218e-06
5.22253e-06
5.22323e-06
5.2239e-06
5.22455e-06
5.22516e-06
5.22576e-06
5.22632e-06
5.22681e-06
5.20695e-06
5.20754e-06
5.20811e-06
5.20872e-06
5.2094e-06
5.21014e-06
5.21093e-06
5.21176e-06
5.21261e-06
5.21348e-06
5.21436e-06
5.21524e-06
5.21612e-06
5.21698e-06
5.21783e-06
5.21866e-06
5.21947e-06
5.22027e-06
5.22103e-06
5.22178e-06
5.2225e-06
5.22319e-06
5.22385e-06
5.22449e-06
5.2251e-06
5.22569e-06
5.22625e-06
5.22678e-06
5.22725e-06
5.20697e-06
5.20759e-06
5.20819e-06
5.20882e-06
5.20951e-06
5.21025e-06
5.21104e-06
5.21187e-06
5.21271e-06
5.21358e-06
5.21444e-06
5.21531e-06
5.21618e-06
5.21703e-06
5.21787e-06
5.21869e-06
5.21949e-06
5.22027e-06
5.22103e-06
5.22176e-06
5.22247e-06
5.22316e-06
5.22381e-06
5.22444e-06
5.22505e-06
5.22563e-06
5.22618e-06
5.22671e-06
5.22722e-06
5.22765e-06
5.20698e-06
5.20764e-06
5.20826e-06
5.20891e-06
5.20961e-06
5.21036e-06
5.21115e-06
5.21197e-06
5.21281e-06
5.21367e-06
5.21453e-06
5.21538e-06
5.21624e-06
5.21708e-06
5.2179e-06
5.21871e-06
5.2195e-06
5.22027e-06
5.22102e-06
5.22175e-06
5.22245e-06
5.22313e-06
5.22378e-06
5.2244e-06
5.225e-06
5.22557e-06
5.22612e-06
5.22665e-06
5.22715e-06
5.22762e-06
5.22803e-06
5.207e-06
5.20768e-06
5.20833e-06
5.209e-06
5.20971e-06
5.21047e-06
5.21126e-06
5.21208e-06
5.21291e-06
5.21376e-06
5.21461e-06
5.21546e-06
5.2163e-06
5.21713e-06
5.21794e-06
5.21874e-06
5.21952e-06
5.22028e-06
5.22102e-06
5.22174e-06
5.22243e-06
5.2231e-06
5.22374e-06
5.22436e-06
5.22495e-06
5.22552e-06
5.22606e-06
5.22659e-06
5.22708e-06
5.22755e-06
5.228e-06
5.22839e-06
5.20701e-06
5.20772e-06
5.20839e-06
5.20908e-06
5.20981e-06
5.21057e-06
5.21136e-06
5.21218e-06
5.21301e-06
5.21385e-06
5.21469e-06
5.21553e-06
5.21636e-06
5.21718e-06
5.21798e-06
5.21877e-06
5.21954e-06
5.2203e-06
5.22103e-06
5.22173e-06
5.22242e-06
5.22308e-06
5.22371e-06
5.22432e-06
5.22491e-06
5.22547e-06
5.22601e-06
5.22653e-06
5.22702e-06
5.22749e-06
5.22794e-06
5.22836e-06
5.22872e-06
5.20702e-06
5.20776e-06
5.20845e-06
5.20916e-06
5.2099e-06
5.21067e-06
5.21146e-06
5.21228e-06
5.2131e-06
5.21393e-06
5.21477e-06
5.2156e-06
5.21642e-06
5.21723e-06
5.21802e-06
5.2188e-06
5.21957e-06
5.22031e-06
5.22103e-06
5.22173e-06
5.22241e-06
5.22306e-06
5.22369e-06
5.22429e-06
5.22487e-06
5.22543e-06
5.22596e-06
5.22648e-06
5.22696e-06
5.22743e-06
5.22787e-06
5.22829e-06
5.22869e-06
5.22903e-06
5.20703e-06
5.20779e-06
5.20851e-06
5.20924e-06
5.20998e-06
5.21076e-06
5.21156e-06
5.21237e-06
5.21319e-06
5.21402e-06
5.21484e-06
5.21566e-06
5.21648e-06
5.21728e-06
5.21807e-06
5.21884e-06
5.21959e-06
5.22033e-06
5.22104e-06
5.22173e-06
5.2224e-06
5.22305e-06
5.22367e-06
5.22426e-06
5.22484e-06
5.22539e-06
5.22592e-06
5.22643e-06
5.22691e-06
5.22737e-06
5.22781e-06
5.22823e-06
5.22863e-06
5.229e-06
5.22932e-06
5.20704e-06
5.20783e-06
5.20857e-06
5.20931e-06
5.21007e-06
5.21085e-06
5.21165e-06
5.21246e-06
5.21328e-06
5.2141e-06
5.21492e-06
5.21573e-06
5.21654e-06
5.21733e-06
5.21811e-06
5.21888e-06
5.21962e-06
5.22035e-06
5.22105e-06
5.22174e-06
5.2224e-06
5.22303e-06
5.22365e-06
5.22424e-06
5.22481e-06
5.22536e-06
5.22588e-06
5.22638e-06
5.22686e-06
5.22732e-06
5.22776e-06
5.22817e-06
5.22856e-06
5.22894e-06
5.22929e-06
5.22959e-06
5.20705e-06
5.20786e-06
5.20862e-06
5.20938e-06
5.21015e-06
5.21094e-06
5.21174e-06
5.21255e-06
5.21337e-06
5.21418e-06
5.21499e-06
5.2158e-06
5.2166e-06
5.21738e-06
5.21816e-06
5.21891e-06
5.21965e-06
5.22037e-06
5.22107e-06
5.22174e-06
5.22239e-06
5.22303e-06
5.22363e-06
5.22422e-06
5.22478e-06
5.22532e-06
5.22584e-06
5.22634e-06
5.22682e-06
5.22727e-06
5.2277e-06
5.22812e-06
5.22851e-06
5.22888e-06
5.22923e-06
5.22957e-06
5.22984e-06
5.20705e-06
5.20789e-06
5.20867e-06
5.20944e-06
5.21022e-06
5.21102e-06
5.21182e-06
5.21264e-06
5.21345e-06
5.21426e-06
5.21507e-06
5.21587e-06
5.21666e-06
5.21744e-06
5.2182e-06
5.21895e-06
5.21968e-06
5.22039e-06
5.22108e-06
5.22175e-06
5.2224e-06
5.22302e-06
5.22362e-06
5.2242e-06
5.22476e-06
5.2253e-06
5.22581e-06
5.2263e-06
5.22678e-06
5.22723e-06
5.22766e-06
5.22806e-06
5.22845e-06
5.22882e-06
5.22917e-06
5.22951e-06
5.22982e-06
5.23007e-06
5.20706e-06
5.20792e-06
5.20872e-06
5.2095e-06
5.2103e-06
5.2111e-06
5.21191e-06
5.21272e-06
5.21353e-06
5.21434e-06
5.21514e-06
5.21594e-06
5.21672e-06
5.21749e-06
5.21825e-06
5.21899e-06
5.21971e-06
5.22042e-06
5.2211e-06
5.22176e-06
5.2224e-06
5.22302e-06
5.22361e-06
5.22419e-06
5.22474e-06
5.22527e-06
5.22578e-06
5.22627e-06
5.22674e-06
5.22718e-06
5.22761e-06
5.22802e-06
5.2284e-06
5.22877e-06
5.22912e-06
5.22945e-06
5.22976e-06
5.23005e-06
5.23029e-06
5.20707e-06
5.20795e-06
5.20876e-06
5.20956e-06
5.21037e-06
5.21117e-06
5.21199e-06
5.2128e-06
5.21361e-06
5.21441e-06
5.21521e-06
5.216e-06
5.21678e-06
5.21755e-06
5.2183e-06
5.21903e-06
5.21975e-06
5.22044e-06
5.22112e-06
5.22177e-06
5.2224e-06
5.22302e-06
5.22361e-06
5.22418e-06
5.22472e-06
5.22525e-06
5.22576e-06
5.22624e-06
5.2267e-06
5.22715e-06
5.22757e-06
5.22797e-06
5.22836e-06
5.22872e-06
5.22907e-06
5.2294e-06
5.22971e-06
5.23e-06
5.23027e-06
5.23049e-06
5.20708e-06
5.20797e-06
5.2088e-06
5.20962e-06
5.21043e-06
5.21125e-06
5.21206e-06
5.21287e-06
5.21368e-06
5.21449e-06
5.21528e-06
5.21607e-06
5.21684e-06
5.2176e-06
5.21835e-06
5.21907e-06
5.21978e-06
5.22047e-06
5.22114e-06
5.22179e-06
5.22241e-06
5.22302e-06
5.2236e-06
5.22417e-06
5.22471e-06
5.22523e-06
5.22573e-06
5.22621e-06
5.22667e-06
5.22711e-06
5.22753e-06
5.22793e-06
5.22831e-06
5.22868e-06
5.22902e-06
5.22935e-06
5.22966e-06
5.22994e-06
5.23022e-06
5.23047e-06
5.23067e-06
5.20708e-06
5.208e-06
5.20885e-06
5.20967e-06
5.2105e-06
5.21132e-06
5.21213e-06
5.21295e-06
5.21376e-06
5.21456e-06
5.21535e-06
5.21613e-06
5.2169e-06
5.21766e-06
5.21839e-06
5.21911e-06
5.21982e-06
5.2205e-06
5.22116e-06
5.2218e-06
5.22242e-06
5.22302e-06
5.2236e-06
5.22416e-06
5.2247e-06
5.22521e-06
5.22571e-06
5.22619e-06
5.22664e-06
5.22708e-06
5.2275e-06
5.22789e-06
5.22827e-06
5.22863e-06
5.22898e-06
5.2293e-06
5.22961e-06
5.2299e-06
5.23017e-06
5.23042e-06
5.23066e-06
5.23084e-06
5.20709e-06
5.20802e-06
5.20888e-06
5.20973e-06
5.21056e-06
5.21138e-06
5.21221e-06
5.21302e-06
5.21383e-06
5.21463e-06
5.21542e-06
5.2162e-06
5.21696e-06
5.21771e-06
5.21844e-06
5.21916e-06
5.21985e-06
5.22053e-06
5.22118e-06
5.22182e-06
5.22243e-06
5.22303e-06
5.2236e-06
5.22416e-06
5.22469e-06
5.2252e-06
5.22569e-06
5.22616e-06
5.22662e-06
5.22705e-06
5.22746e-06
5.22786e-06
5.22824e-06
5.22859e-06
5.22893e-06
5.22926e-06
5.22956e-06
5.22985e-06
5.23012e-06
5.23037e-06
5.23061e-06
5.23083e-06
5.231e-06
5.2071e-06
5.20804e-06
5.20892e-06
5.20977e-06
5.21061e-06
5.21145e-06
5.21227e-06
5.21309e-06
5.2139e-06
5.2147e-06
5.21549e-06
5.21626e-06
5.21702e-06
5.21776e-06
5.21849e-06
5.2192e-06
5.21989e-06
5.22056e-06
5.22121e-06
5.22184e-06
5.22245e-06
5.22304e-06
5.22361e-06
5.22415e-06
5.22468e-06
5.22519e-06
5.22568e-06
5.22615e-06
5.22659e-06
5.22702e-06
5.22743e-06
5.22783e-06
5.2282e-06
5.22856e-06
5.2289e-06
5.22922e-06
5.22952e-06
5.2298e-06
5.23007e-06
5.23032e-06
5.23056e-06
5.23078e-06
5.23098e-06
5.23114e-06
5.2071e-06
5.20806e-06
5.20896e-06
5.20982e-06
5.21067e-06
5.21151e-06
5.21234e-06
5.21316e-06
5.21397e-06
5.21477e-06
5.21556e-06
5.21633e-06
5.21708e-06
5.21782e-06
5.21854e-06
5.21924e-06
5.21992e-06
5.22059e-06
5.22123e-06
5.22186e-06
5.22246e-06
5.22305e-06
5.22361e-06
5.22416e-06
5.22468e-06
5.22518e-06
5.22567e-06
5.22613e-06
5.22657e-06
5.227e-06
5.22741e-06
5.2278e-06
5.22817e-06
5.22852e-06
5.22886e-06
5.22918e-06
5.22948e-06
5.22976e-06
5.23003e-06
5.23028e-06
5.23052e-06
5.23073e-06
5.23094e-06
5.23113e-06
5.23128e-06
5.20711e-06
5.20808e-06
5.20899e-06
5.20987e-06
5.21072e-06
5.21157e-06
5.21241e-06
5.21323e-06
5.21404e-06
5.21484e-06
5.21562e-06
5.21639e-06
5.21714e-06
5.21787e-06
5.21859e-06
5.21928e-06
5.21996e-06
5.22062e-06
5.22126e-06
5.22188e-06
5.22248e-06
5.22306e-06
5.22362e-06
5.22416e-06
5.22468e-06
5.22518e-06
5.22566e-06
5.22612e-06
5.22656e-06
5.22698e-06
5.22738e-06
5.22777e-06
5.22814e-06
5.22849e-06
5.22883e-06
5.22914e-06
5.22944e-06
5.22972e-06
5.22999e-06
5.23024e-06
5.23047e-06
5.23069e-06
5.2309e-06
5.23109e-06
5.23126e-06
5.2314e-06
5.20711e-06
5.2081e-06
5.20902e-06
5.20991e-06
5.21078e-06
5.21163e-06
5.21247e-06
5.2133e-06
5.21411e-06
5.21491e-06
5.21569e-06
5.21645e-06
5.21719e-06
5.21792e-06
5.21863e-06
5.21933e-06
5.22e-06
5.22065e-06
5.22129e-06
5.2219e-06
5.2225e-06
5.22307e-06
5.22363e-06
5.22416e-06
5.22468e-06
5.22517e-06
5.22565e-06
5.2261e-06
5.22654e-06
5.22696e-06
5.22736e-06
5.22775e-06
5.22811e-06
5.22846e-06
5.22879e-06
5.22911e-06
5.22941e-06
5.22969e-06
5.22995e-06
5.2302e-06
5.23044e-06
5.23065e-06
5.23086e-06
5.23105e-06
5.23123e-06
5.23139e-06
5.23151e-06
5.20712e-06
5.20812e-06
5.20905e-06
5.20995e-06
5.21083e-06
5.21169e-06
5.21253e-06
5.21336e-06
5.21417e-06
5.21497e-06
5.21575e-06
5.21651e-06
5.21725e-06
5.21798e-06
5.21868e-06
5.21937e-06
5.22004e-06
5.22069e-06
5.22132e-06
5.22193e-06
5.22252e-06
5.22309e-06
5.22364e-06
5.22417e-06
5.22468e-06
5.22517e-06
5.22564e-06
5.22609e-06
5.22653e-06
5.22695e-06
5.22734e-06
5.22773e-06
5.22809e-06
5.22844e-06
5.22877e-06
5.22908e-06
5.22937e-06
5.22965e-06
5.22992e-06
5.23017e-06
5.2304e-06
5.23062e-06
5.23082e-06
5.23101e-06
5.23119e-06
5.23135e-06
5.2315e-06
5.23161e-06
5.20712e-06
5.20814e-06
5.20908e-06
5.20999e-06
5.21088e-06
5.21175e-06
5.21259e-06
5.21343e-06
5.21424e-06
5.21503e-06
5.21581e-06
5.21657e-06
5.21731e-06
5.21803e-06
5.21873e-06
5.21941e-06
5.22008e-06
5.22072e-06
5.22135e-06
5.22196e-06
5.22254e-06
5.22311e-06
5.22365e-06
5.22418e-06
5.22468e-06
5.22517e-06
5.22564e-06
5.22609e-06
5.22652e-06
5.22693e-06
5.22733e-06
5.22771e-06
5.22807e-06
5.22841e-06
5.22874e-06
5.22905e-06
5.22934e-06
5.22962e-06
5.22988e-06
5.23013e-06
5.23036e-06
5.23058e-06
5.23079e-06
5.23097e-06
5.23115e-06
5.23131e-06
5.23147e-06
5.2316e-06
5.2317e-06
5.20713e-06
5.20815e-06
5.20911e-06
5.21003e-06
5.21093e-06
5.2118e-06
5.21265e-06
5.21349e-06
5.2143e-06
5.21509e-06
5.21587e-06
5.21662e-06
5.21736e-06
5.21808e-06
5.21878e-06
5.21946e-06
5.22012e-06
5.22076e-06
5.22138e-06
5.22198e-06
5.22256e-06
5.22312e-06
5.22367e-06
5.22419e-06
5.22469e-06
5.22517e-06
5.22564e-06
5.22608e-06
5.22651e-06
5.22692e-06
5.22731e-06
5.22769e-06
5.22805e-06
5.22839e-06
5.22871e-06
5.22902e-06
5.22932e-06
5.22959e-06
5.22985e-06
5.2301e-06
5.23033e-06
5.23055e-06
5.23075e-06
5.23094e-06
5.23112e-06
5.23128e-06
5.23143e-06
5.23157e-06
5.23169e-06
5.23178e-06
5.20713e-06
5.20817e-06
5.20914e-06
5.21007e-06
5.21097e-06
5.21185e-06
5.21271e-06
5.21354e-06
5.21436e-06
5.21515e-06
5.21593e-06
5.21668e-06
5.21742e-06
5.21813e-06
5.21883e-06
5.2195e-06
5.22016e-06
5.2208e-06
5.22141e-06
5.22201e-06
5.22259e-06
5.22314e-06
5.22368e-06
5.2242e-06
5.2247e-06
5.22518e-06
5.22564e-06
5.22608e-06
5.2265e-06
5.22691e-06
5.2273e-06
5.22768e-06
5.22803e-06
5.22837e-06
5.22869e-06
5.229e-06
5.22929e-06
5.22956e-06
5.22982e-06
5.23007e-06
5.2303e-06
5.23052e-06
5.23072e-06
5.23091e-06
5.23109e-06
5.23125e-06
5.2314e-06
5.23154e-06
5.23167e-06
5.23178e-06
5.23185e-06
5.20713e-06
5.20819e-06
5.20917e-06
5.21011e-06
5.21102e-06
5.2119e-06
5.21276e-06
5.2136e-06
5.21442e-06
5.21521e-06
5.21598e-06
5.21674e-06
5.21747e-06
5.21818e-06
5.21887e-06
5.21955e-06
5.2202e-06
5.22083e-06
5.22145e-06
5.22204e-06
5.22261e-06
5.22316e-06
5.2237e-06
5.22421e-06
5.22471e-06
5.22518e-06
5.22564e-06
5.22608e-06
5.2265e-06
5.22691e-06
5.22729e-06
5.22766e-06
5.22802e-06
5.22835e-06
5.22867e-06
5.22898e-06
5.22927e-06
5.22954e-06
5.2298e-06
5.23004e-06
5.23027e-06
5.23049e-06
5.23069e-06
5.23088e-06
5.23106e-06
5.23122e-06
5.23137e-06
5.23151e-06
5.23164e-06
5.23175e-06
5.23185e-06
5.23191e-06
5.20714e-06
5.2082e-06
5.2092e-06
5.21014e-06
5.21106e-06
5.21195e-06
5.21282e-06
5.21366e-06
5.21447e-06
5.21527e-06
5.21604e-06
5.21679e-06
5.21752e-06
5.21823e-06
5.21892e-06
5.21959e-06
5.22024e-06
5.22087e-06
5.22148e-06
5.22207e-06
5.22264e-06
5.22319e-06
5.22372e-06
5.22423e-06
5.22472e-06
5.22519e-06
5.22564e-06
5.22608e-06
5.2265e-06
5.2269e-06
5.22728e-06
5.22765e-06
5.228e-06
5.22834e-06
5.22866e-06
5.22896e-06
5.22924e-06
5.22952e-06
5.22977e-06
5.23002e-06
5.23025e-06
5.23046e-06
5.23066e-06
5.23085e-06
5.23103e-06
5.23119e-06
5.23134e-06
5.23148e-06
5.23161e-06
5.23172e-06
5.23182e-06
5.23191e-06
5.23197e-06
5.20714e-06
5.20822e-06
5.20922e-06
5.21018e-06
5.2111e-06
5.212e-06
5.21287e-06
5.21371e-06
5.21453e-06
5.21533e-06
5.2161e-06
5.21685e-06
5.21758e-06
5.21828e-06
5.21897e-06
5.21964e-06
5.22028e-06
5.22091e-06
5.22151e-06
5.2221e-06
5.22266e-06
5.22321e-06
5.22373e-06
5.22424e-06
5.22473e-06
5.2252e-06
5.22565e-06
5.22608e-06
5.2265e-06
5.2269e-06
5.22728e-06
5.22764e-06
5.22799e-06
5.22832e-06
5.22864e-06
5.22894e-06
5.22922e-06
5.22949e-06
5.22975e-06
5.22999e-06
5.23022e-06
5.23044e-06
5.23064e-06
5.23083e-06
5.231e-06
5.23117e-06
5.23132e-06
5.23146e-06
5.23158e-06
5.2317e-06
5.2318e-06
5.23189e-06
5.23196e-06
5.23201e-06
5.20715e-06
5.20823e-06
5.20924e-06
5.21021e-06
5.21114e-06
5.21204e-06
5.21292e-06
5.21376e-06
5.21458e-06
5.21538e-06
5.21615e-06
5.2169e-06
5.21763e-06
5.21834e-06
5.21902e-06
5.21968e-06
5.22033e-06
5.22095e-06
5.22155e-06
5.22213e-06
5.22269e-06
5.22323e-06
5.22375e-06
5.22426e-06
5.22474e-06
5.22521e-06
5.22566e-06
5.22609e-06
5.2265e-06
5.2269e-06
5.22727e-06
5.22764e-06
5.22798e-06
5.22831e-06
5.22862e-06
5.22892e-06
5.22921e-06
5.22948e-06
5.22973e-06
5.22997e-06
5.2302e-06
5.23041e-06
5.23061e-06
5.2308e-06
5.23098e-06
5.23114e-06
5.23129e-06
5.23143e-06
5.23156e-06
5.23167e-06
5.23178e-06
5.23186e-06
5.23194e-06
5.23201e-06
5.23204e-06
5.20715e-06
5.20824e-06
5.20927e-06
5.21024e-06
5.21118e-06
5.21209e-06
5.21297e-06
5.21382e-06
5.21464e-06
5.21544e-06
5.21621e-06
5.21696e-06
5.21768e-06
5.21839e-06
5.21907e-06
5.21973e-06
5.22037e-06
5.22098e-06
5.22158e-06
5.22216e-06
5.22272e-06
5.22326e-06
5.22378e-06
5.22428e-06
5.22476e-06
5.22522e-06
5.22567e-06
5.22609e-06
5.2265e-06
5.2269e-06
5.22727e-06
5.22763e-06
5.22797e-06
5.2283e-06
5.22861e-06
5.22891e-06
5.22919e-06
5.22946e-06
5.22971e-06
5.22995e-06
5.23018e-06
5.23039e-06
5.23059e-06
5.23078e-06
5.23096e-06
5.23112e-06
5.23127e-06
5.23141e-06
5.23154e-06
5.23165e-06
5.23175e-06
5.23184e-06
5.23192e-06
5.23199e-06
5.23205e-06
5.23207e-06
5.20715e-06
5.20826e-06
5.20929e-06
5.21027e-06
5.21122e-06
5.21213e-06
5.21301e-06
5.21387e-06
5.21469e-06
5.21549e-06
5.21626e-06
5.21701e-06
5.21773e-06
5.21844e-06
5.21911e-06
5.21977e-06
5.22041e-06
5.22102e-06
5.22162e-06
5.22219e-06
5.22275e-06
5.22328e-06
5.2238e-06
5.2243e-06
5.22477e-06
5.22523e-06
5.22568e-06
5.2261e-06
5.22651e-06
5.2269e-06
5.22727e-06
5.22763e-06
5.22797e-06
5.22829e-06
5.2286e-06
5.2289e-06
5.22918e-06
5.22944e-06
5.22969e-06
5.22993e-06
5.23016e-06
5.23037e-06
5.23057e-06
5.23076e-06
5.23094e-06
5.2311e-06
5.23125e-06
5.23139e-06
5.23151e-06
5.23163e-06
5.23173e-06
5.23182e-06
5.2319e-06
5.23197e-06
5.23203e-06
5.23207e-06
5.23209e-06
5.20716e-06
5.20827e-06
5.20931e-06
5.21031e-06
5.21126e-06
5.21218e-06
5.21306e-06
5.21392e-06
5.21474e-06
5.21554e-06
5.21632e-06
5.21706e-06
5.21779e-06
5.21848e-06
5.21916e-06
5.21982e-06
5.22045e-06
5.22106e-06
5.22165e-06
5.22223e-06
5.22278e-06
5.22331e-06
5.22382e-06
5.22432e-06
5.22479e-06
5.22525e-06
5.22569e-06
5.22611e-06
5.22651e-06
5.2269e-06
5.22727e-06
5.22763e-06
5.22796e-06
5.22829e-06
5.22859e-06
5.22889e-06
5.22916e-06
5.22943e-06
5.22968e-06
5.22992e-06
5.23014e-06
5.23035e-06
5.23055e-06
5.23074e-06
5.23092e-06
5.23108e-06
5.23123e-06
5.23137e-06
5.2315e-06
5.23161e-06
5.23171e-06
5.2318e-06
5.23188e-06
5.23195e-06
5.23201e-06
5.23206e-06
5.2321e-06
5.23211e-06
5.20716e-06
5.20828e-06
5.20934e-06
5.21034e-06
5.21129e-06
5.21222e-06
5.21311e-06
5.21397e-06
5.21479e-06
5.21559e-06
5.21637e-06
5.21711e-06
5.21784e-06
5.21853e-06
5.21921e-06
5.21986e-06
5.22049e-06
5.2211e-06
5.22169e-06
5.22226e-06
5.22281e-06
5.22334e-06
5.22385e-06
5.22434e-06
5.22481e-06
5.22527e-06
5.2257e-06
5.22612e-06
5.22652e-06
5.22691e-06
5.22727e-06
5.22762e-06
5.22796e-06
5.22828e-06
5.22859e-06
5.22888e-06
5.22915e-06
5.22942e-06
5.22967e-06
5.2299e-06
5.23013e-06
5.23034e-06
5.23054e-06
5.23072e-06
5.2309e-06
5.23106e-06
5.23121e-06
5.23135e-06
5.23148e-06
5.23159e-06
5.23169e-06
5.23179e-06
5.23187e-06
5.23194e-06
5.232e-06
5.23205e-06
5.23209e-06
5.23211e-06
5.23211e-06
5.20716e-06
5.2083e-06
5.20936e-06
5.21036e-06
5.21133e-06
5.21226e-06
5.21315e-06
5.21401e-06
5.21484e-06
5.21564e-06
5.21642e-06
5.21716e-06
5.21789e-06
5.21858e-06
5.21925e-06
5.2199e-06
5.22053e-06
5.22114e-06
5.22173e-06
5.22229e-06
5.22284e-06
5.22337e-06
5.22387e-06
5.22436e-06
5.22483e-06
5.22528e-06
5.22572e-06
5.22613e-06
5.22653e-06
5.22691e-06
5.22728e-06
5.22763e-06
5.22796e-06
5.22828e-06
5.22858e-06
5.22887e-06
5.22914e-06
5.22941e-06
5.22965e-06
5.22989e-06
5.23011e-06
5.23032e-06
5.23052e-06
5.23071e-06
5.23088e-06
5.23104e-06
5.23119e-06
5.23133e-06
5.23146e-06
5.23157e-06
5.23168e-06
5.23177e-06
5.23185e-06
5.23192e-06
5.23198e-06
5.23203e-06
5.23207e-06
5.2321e-06
5.23212e-06
5.23211e-06
5.20717e-06
5.20831e-06
5.20938e-06
5.21039e-06
5.21136e-06
5.2123e-06
5.21319e-06
5.21406e-06
5.21489e-06
5.21569e-06
5.21647e-06
5.21721e-06
5.21793e-06
5.21863e-06
5.2193e-06
5.21995e-06
5.22058e-06
5.22118e-06
5.22176e-06
5.22233e-06
5.22287e-06
5.2234e-06
5.2239e-06
5.22439e-06
5.22485e-06
5.2253e-06
5.22573e-06
5.22614e-06
5.22654e-06
5.22692e-06
5.22728e-06
5.22763e-06
5.22796e-06
5.22827e-06
5.22858e-06
5.22886e-06
5.22914e-06
5.2294e-06
5.22965e-06
5.22988e-06
5.2301e-06
5.23031e-06
5.23051e-06
5.23069e-06
5.23087e-06
5.23103e-06
5.23118e-06
5.23132e-06
5.23144e-06
5.23156e-06
5.23166e-06
5.23175e-06
5.23184e-06
5.23191e-06
5.23197e-06
5.23202e-06
5.23206e-06
5.23209e-06
5.23211e-06
5.23212e-06
5.23211e-06
5.20717e-06
5.20832e-06
5.20939e-06
5.21042e-06
5.2114e-06
5.21233e-06
5.21324e-06
5.2141e-06
5.21494e-06
5.21574e-06
5.21652e-06
5.21726e-06
5.21798e-06
5.21868e-06
5.21935e-06
5.21999e-06
5.22062e-06
5.22122e-06
5.2218e-06
5.22236e-06
5.2229e-06
5.22343e-06
5.22393e-06
5.22441e-06
5.22487e-06
5.22532e-06
5.22575e-06
5.22616e-06
5.22655e-06
5.22693e-06
5.22729e-06
5.22763e-06
5.22796e-06
5.22827e-06
5.22857e-06
5.22886e-06
5.22913e-06
5.22939e-06
5.22964e-06
5.22987e-06
5.23009e-06
5.2303e-06
5.2305e-06
5.23068e-06
5.23085e-06
5.23102e-06
5.23116e-06
5.2313e-06
5.23143e-06
5.23154e-06
5.23165e-06
5.23174e-06
5.23182e-06
5.23189e-06
5.23196e-06
5.23201e-06
5.23205e-06
5.23208e-06
5.2321e-06
5.23212e-06
5.23212e-06
5.2321e-06
5.20717e-06
5.20833e-06
5.20941e-06
5.21044e-06
5.21143e-06
5.21237e-06
5.21328e-06
5.21415e-06
5.21498e-06
5.21579e-06
5.21657e-06
5.21731e-06
5.21803e-06
5.21873e-06
5.21939e-06
5.22004e-06
5.22066e-06
5.22126e-06
5.22184e-06
5.2224e-06
5.22294e-06
5.22346e-06
5.22395e-06
5.22443e-06
5.2249e-06
5.22534e-06
5.22576e-06
5.22617e-06
5.22656e-06
5.22693e-06
5.22729e-06
5.22763e-06
5.22796e-06
5.22827e-06
5.22857e-06
5.22886e-06
5.22913e-06
5.22939e-06
5.22963e-06
5.22986e-06
5.23008e-06
5.23029e-06
5.23049e-06
5.23067e-06
5.23084e-06
5.231e-06
5.23115e-06
5.23129e-06
5.23141e-06
5.23153e-06
5.23163e-06
5.23173e-06
5.23181e-06
5.23188e-06
5.23194e-06
5.232e-06
5.23204e-06
5.23207e-06
5.2321e-06
5.23211e-06
5.23212e-06
5.23211e-06
5.23208e-06
5.20718e-06
5.20834e-06
5.20943e-06
5.21047e-06
5.21146e-06
5.21241e-06
5.21332e-06
5.21419e-06
5.21503e-06
5.21584e-06
5.21661e-06
5.21736e-06
5.21808e-06
5.21877e-06
5.21944e-06
5.22008e-06
5.2207e-06
5.2213e-06
5.22188e-06
5.22244e-06
5.22297e-06
5.22349e-06
5.22398e-06
5.22446e-06
5.22492e-06
5.22536e-06
5.22578e-06
5.22619e-06
5.22657e-06
5.22694e-06
5.2273e-06
5.22764e-06
5.22797e-06
5.22828e-06
5.22857e-06
5.22886e-06
5.22913e-06
5.22938e-06
5.22963e-06
5.22986e-06
5.23008e-06
5.23028e-06
5.23048e-06
5.23066e-06
5.23083e-06
5.23099e-06
5.23114e-06
5.23128e-06
5.2314e-06
5.23152e-06
5.23162e-06
5.23171e-06
5.2318e-06
5.23187e-06
5.23193e-06
5.23199e-06
5.23203e-06
5.23207e-06
5.23209e-06
5.23211e-06
5.23211e-06
5.23211e-06
5.23209e-06
5.23206e-06
5.20718e-06
5.20835e-06
5.20945e-06
5.2105e-06
5.21149e-06
5.21245e-06
5.21336e-06
5.21424e-06
5.21508e-06
5.21589e-06
5.21666e-06
5.21741e-06
5.21813e-06
5.21882e-06
5.21949e-06
5.22013e-06
5.22075e-06
5.22134e-06
5.22192e-06
5.22247e-06
5.223e-06
5.22352e-06
5.22401e-06
5.22449e-06
5.22494e-06
5.22538e-06
5.2258e-06
5.2262e-06
5.22659e-06
5.22696e-06
5.22731e-06
5.22765e-06
5.22797e-06
5.22828e-06
5.22858e-06
5.22886e-06
5.22912e-06
5.22938e-06
5.22962e-06
5.22985e-06
5.23007e-06
5.23028e-06
5.23047e-06
5.23065e-06
5.23082e-06
5.23098e-06
5.23113e-06
5.23126e-06
5.23139e-06
5.23151e-06
5.23161e-06
5.2317e-06
5.23179e-06
5.23186e-06
5.23192e-06
5.23198e-06
5.23202e-06
5.23206e-06
5.23208e-06
5.2321e-06
5.23211e-06
5.2321e-06
5.2321e-06
5.23207e-06
5.23203e-06
5.20718e-06
5.20836e-06
5.20947e-06
5.21052e-06
5.21152e-06
5.21248e-06
5.2134e-06
5.21428e-06
5.21512e-06
5.21593e-06
5.21671e-06
5.21746e-06
5.21818e-06
5.21887e-06
5.21953e-06
5.22017e-06
5.22079e-06
5.22138e-06
5.22196e-06
5.22251e-06
5.22304e-06
5.22355e-06
5.22404e-06
5.22451e-06
5.22496e-06
5.2254e-06
5.22582e-06
5.22622e-06
5.2266e-06
5.22697e-06
5.22732e-06
5.22766e-06
5.22798e-06
5.22829e-06
5.22858e-06
5.22886e-06
5.22913e-06
5.22938e-06
5.22962e-06
5.22985e-06
5.23007e-06
5.23027e-06
5.23046e-06
5.23064e-06
5.23081e-06
5.23097e-06
5.23112e-06
5.23126e-06
5.23138e-06
5.23149e-06
5.2316e-06
5.23169e-06
5.23178e-06
5.23185e-06
5.23191e-06
5.23197e-06
5.23202e-06
5.23205e-06
5.23208e-06
5.2321e-06
5.2321e-06
5.2321e-06
5.23209e-06
5.23208e-06
5.23204e-06
5.232e-06
5.20718e-06
5.20837e-06
5.20949e-06
5.21055e-06
5.21155e-06
5.21252e-06
5.21344e-06
5.21432e-06
5.21517e-06
5.21598e-06
5.21676e-06
5.2175e-06
5.21822e-06
5.21891e-06
5.21958e-06
5.22022e-06
5.22083e-06
5.22142e-06
5.222e-06
5.22254e-06
5.22307e-06
5.22358e-06
5.22407e-06
5.22454e-06
5.22499e-06
5.22542e-06
5.22584e-06
5.22623e-06
5.22662e-06
5.22698e-06
5.22733e-06
5.22767e-06
5.22799e-06
5.22829e-06
5.22858e-06
5.22886e-06
5.22913e-06
5.22938e-06
5.22962e-06
5.22985e-06
5.23006e-06
5.23027e-06
5.23046e-06
5.23064e-06
5.23081e-06
5.23096e-06
5.23111e-06
5.23125e-06
5.23137e-06
5.23149e-06
5.23159e-06
5.23168e-06
5.23177e-06
5.23184e-06
5.23191e-06
5.23196e-06
5.23201e-06
5.23205e-06
5.23207e-06
5.23209e-06
5.2321e-06
5.2321e-06
5.23209e-06
5.23208e-06
5.23205e-06
5.23201e-06
5.23197e-06
5.20719e-06
5.20838e-06
5.2095e-06
5.21057e-06
5.21158e-06
5.21255e-06
5.21348e-06
5.21436e-06
5.21521e-06
5.21602e-06
5.2168e-06
5.21755e-06
5.21827e-06
5.21896e-06
5.21962e-06
5.22026e-06
5.22087e-06
5.22146e-06
5.22203e-06
5.22258e-06
5.22311e-06
5.22361e-06
5.2241e-06
5.22456e-06
5.22501e-06
5.22544e-06
5.22586e-06
5.22625e-06
5.22663e-06
5.227e-06
5.22734e-06
5.22768e-06
5.228e-06
5.2283e-06
5.22859e-06
5.22887e-06
5.22913e-06
5.22938e-06
5.22962e-06
5.22985e-06
5.23006e-06
5.23026e-06
5.23045e-06
5.23063e-06
5.2308e-06
5.23096e-06
5.2311e-06
5.23124e-06
5.23136e-06
5.23148e-06
5.23158e-06
5.23167e-06
5.23176e-06
5.23183e-06
5.2319e-06
5.23196e-06
5.232e-06
5.23204e-06
5.23207e-06
5.23209e-06
5.2321e-06
5.2321e-06
5.23209e-06
5.23208e-06
5.23205e-06
5.23202e-06
5.23198e-06
5.23192e-06
5.20719e-06
5.20839e-06
5.20952e-06
5.21059e-06
5.21161e-06
5.21258e-06
5.21351e-06
5.2144e-06
5.21525e-06
5.21607e-06
5.21685e-06
5.2176e-06
5.21831e-06
5.219e-06
5.21967e-06
5.2203e-06
5.22092e-06
5.2215e-06
5.22207e-06
5.22262e-06
5.22314e-06
5.22364e-06
5.22413e-06
5.22459e-06
5.22504e-06
5.22547e-06
5.22588e-06
5.22627e-06
5.22665e-06
5.22701e-06
5.22736e-06
5.22769e-06
5.22801e-06
5.22831e-06
5.2286e-06
5.22887e-06
5.22913e-06
5.22938e-06
5.22962e-06
5.22985e-06
5.23006e-06
5.23026e-06
5.23045e-06
5.23063e-06
5.2308e-06
5.23095e-06
5.2311e-06
5.23123e-06
5.23136e-06
5.23147e-06
5.23157e-06
5.23167e-06
5.23175e-06
5.23183e-06
5.23189e-06
5.23195e-06
5.232e-06
5.23204e-06
5.23207e-06
5.23209e-06
5.2321e-06
5.2321e-06
5.2321e-06
5.23208e-06
5.23206e-06
5.23202e-06
5.23198e-06
5.23193e-06
5.23188e-06
5.20719e-06
5.2084e-06
5.20954e-06
5.21061e-06
5.21164e-06
5.21262e-06
5.21355e-06
5.21444e-06
5.21529e-06
5.21611e-06
5.21689e-06
5.21764e-06
5.21836e-06
5.21905e-06
5.21971e-06
5.22035e-06
5.22096e-06
5.22154e-06
5.22211e-06
5.22265e-06
5.22317e-06
5.22367e-06
5.22416e-06
5.22462e-06
5.22506e-06
5.22549e-06
5.2259e-06
5.22629e-06
5.22667e-06
5.22703e-06
5.22737e-06
5.2277e-06
5.22802e-06
5.22832e-06
5.22861e-06
5.22888e-06
5.22914e-06
5.22939e-06
5.22962e-06
5.22985e-06
5.23006e-06
5.23026e-06
5.23045e-06
5.23063e-06
5.23079e-06
5.23095e-06
5.23109e-06
5.23123e-06
5.23135e-06
5.23146e-06
5.23157e-06
5.23166e-06
5.23175e-06
5.23182e-06
5.23189e-06
5.23194e-06
5.23199e-06
5.23203e-06
5.23206e-06
5.23208e-06
5.2321e-06
5.2321e-06
5.2321e-06
5.23208e-06