/*--------------------------------*- C++ -*----------------------------------*\
  =========                 |
  \\      /  F ield         | OpenFOAM: The Open Source CFD Toolbox
   \\    /   O peration     | Website:  https://openfoam.org
    \\  /    A nd           | Version:  7
     \\/     M anipulation  |
\*---------------------------------------------------------------------------*/
FoamFile
{
    version     2.0;
    format      ascii;
    class       volScalarField;
    location    "1200";
    object      p;
}
// * * * * * * * * * * * * * * * * * * * * * * * * * * * * * * * * * * * * * //

dimensions      [0 2 -2 0 0 0 0];

internalField   nonuniform List<scalar> 
23052
(
41.3563
38.6268
26.1063
36.8117
27.2905
29.9801
35.506
27.7617
29.1187
30.5249
34.5507
27.9247
28.6276
30.6087
31.3037
32.0667
33.8165
27.946
28.3025
30.5161
31.1532
32.0752
33.2799
34.1958
33.2304
27.9126
28.0599
30.3578
31.0403
32.0143
33.1727
34.2012
35.4126
32.7435
27.8638
27.8618
30.1769
30.9304
31.9174
33.0747
34.1546
35.3709
36.5476
32.3272
27.8153
27.6914
29.9918
30.8139
31.8036
32.9714
34.0828
35.2863
36.5242
37.8141
31.9574
27.7722
27.5406
29.8096
30.6898
31.6792
32.8584
33.9913
35.1951
36.4495
37.7765
39.112
31.6197
27.7339
27.4053
29.6322
30.5594
31.5469
32.7355
33.885
35.0928
36.3596
37.6874
39.0749
40.4888
31.3072
27.6982
27.2816
29.4597
30.4241
31.4086
32.6027
33.7663
34.9791
36.2545
37.5875
38.9812
40.445
41.9224
31.0074
27.663
27.1675
29.2911
30.285
31.2647
32.4613
33.6361
34.854
36.1363
37.4745
38.875
40.3413
41.8749
43.4248
30.7196
27.6245
27.0603
29.1257
30.1425
31.1161
32.3123
33.4955
34.7181
36.0057
37.3492
38.7546
40.2261
41.7634
43.372
44.9919
30.4381
27.581
26.9575
28.9621
29.9968
30.9627
32.156
33.3457
34.5718
35.8635
37.2116
38.6215
40.0971
41.6398
43.2511
44.9344
46.6278
30.1584
27.5299
26.8573
28.7991
29.8475
30.805
31.9929
33.1869
34.4155
35.7104
37.0623
38.4759
39.9554
41.502
43.1183
44.8045
46.5651
48.3327
29.8809
27.4698
26.7575
28.6355
29.6943
30.6429
31.8234
33.0197
34.2499
35.5466
36.9017
38.3184
39.8011
41.3515
42.9713
44.6626
46.4258
48.2649
50.1092
29.6045
27.3999
26.6565
28.4707
29.5367
30.4759
31.6476
32.8446
34.0748
35.3728
36.7301
38.1492
39.6347
41.1881
42.8114
44.5063
46.2745
48.1164
50.0361
51.9588
29.3255
27.3188
26.5528
28.3033
29.3745
30.3042
31.4655
32.6615
33.8912
35.189
36.5478
37.9688
39.4565
41.0124
42.6386
44.3369
46.1086
47.9556
49.8781
51.8804
53.8838
29.0427
27.2254
26.4451
28.1327
29.2068
30.1271
31.2773
32.4709
33.6991
34.9959
36.3553
37.7775
39.2667
40.8247
42.4533
44.1543
45.9295
47.78
49.7077
51.7129
53.7999
55.8861
28.7586
27.1196
26.3319
27.9582
29.0334
29.9447
31.0826
32.2729
33.4985
34.7937
36.1529
37.5755
39.0657
40.6252
42.2557
43.9591
45.737
47.5909
49.5223
51.5328
53.6229
55.7967
57.9682
28.4709
27.0016
26.2129
27.7789
28.8538
29.7565
30.8818
32.0674
33.2898
34.5824
35.9407
37.3632
38.8537
40.4142
42.0461
43.7513
45.5316
47.3884
49.3232
51.3375
53.433
55.6101
57.8732
60.1325
28.1778
26.8708
26.0872
27.5944
28.6675
29.562
30.6744
31.8547
33.0732
34.3625
35.7191
37.1408
38.6311
40.1919
41.8248
43.5314
45.3135
47.1727
49.1104
51.1283
53.2277
55.4105
57.6769
60.0318
62.3815
27.8805
26.7269
25.9538
27.4044
28.4744
29.3612
30.4605
31.6346
32.8486
34.134
35.4883
36.9085
38.3981
39.9588
41.592
43.2995
45.083
46.9441
48.8842
50.9051
53.0082
55.195
57.4674
59.8258
62.2749
64.7176
27.5803
26.57
25.8124
27.2082
28.2742
29.154
30.2399
31.4072
32.6162
33.8971
35.2484
36.6666
38.1549
39.7149
41.348
43.0559
44.8403
46.7028
48.6449
50.6683
52.7745
54.9652
57.2418
59.6063
62.0591
64.6052
67.1437
27.2743
26.4007
25.6628
27.0056
28.0667
28.9398
30.0127
31.1725
32.376
33.652
34.9997
36.4154
37.9017
39.4605
41.093
42.8008
44.5856
46.4491
48.3926
50.4181
52.5269
54.7208
57.0015
59.3704
61.8296
64.3796
67.0253
69.6627
26.9646
26.2188
25.5044
26.7965
27.8517
28.7186
29.7786
30.9305
32.1282
33.3987
34.7423
36.1549
37.6388
39.1959
40.8272
42.5345
44.3192
46.1831
48.1277
50.1547
52.2657
54.4624
56.7464
59.1196
61.5833
64.1399
66.7898
69.5381
72.2774
26.6502
26.0247
25.3371
26.5804
27.6291
28.4904
29.5374
30.6813
31.8727
33.1373
34.4763
35.8853
37.3664
38.9212
40.5509
42.2571
44.0413
45.9052
47.8504
49.8784
51.991
54.1899
56.4769
58.8536
61.3219
63.8832
66.54
69.2926
72.1463
74.9907
26.3312
25.8187
25.1608
26.3576
27.3988
28.2549
29.2894
30.4247
31.6096
32.868
34.2019
35.6068
37.0845
38.6367
40.2643
41.9689
43.7521
45.6156
47.5607
49.5894
51.7032
53.9039
56.1932
58.573
61.0449
63.6109
66.2727
69.0324
71.8908
74.8531
77.8055
26.0084
25.6012
24.9754
26.1277
27.1608
28.0121
29.0344
30.1609
31.3391
32.5909
33.9193
35.3197
36.7935
38.3425
39.9676
41.6702
43.4519
45.3143
47.2591
49.2879
51.4023
53.6043
55.8955
58.2778
60.753
63.3229
65.9896
68.7545
71.6203
74.5874
77.6614
80.7252
25.6807
25.3726
24.7808
25.8906
26.9152
27.7618
28.7724
29.8899
31.061
32.306
33.6285
35.024
36.4936
38.0389
39.6608
41.361
43.1408
45.0018
46.9456
48.974
51.0887
53.2914
55.5841
57.9683
60.4462
63.0196
65.6902
68.4604
71.3316
74.3064
77.3855
80.5743
83.753
25.3495
25.1328
24.577
25.6465
26.6619
27.5044
28.5033
29.6117
30.7757
32.0136
33.3298
34.7199
36.1847
37.7259
39.3444
41.0416
42.819
44.678
46.6206
48.6481
50.7624
52.9655
55.259
57.6448
60.1248
62.701
65.3753
68.1497
71.0264
74.007
77.094
80.2881
83.5951
86.8921
25.0141
24.8827
24.3641
25.3953
26.4011
27.2396
28.2273
29.3263
30.4829
31.7135
33.0231
34.4075
35.8672
37.4039
39.0184
40.7122
42.4866
44.3434
46.2841
48.3103
50.4239
52.6267
54.9206
57.3073
59.789
62.3675
65.0449
67.8231
70.7043
73.6904
76.7835
79.986
83.2985
86.7268
90.1456
24.6747
24.6226
24.1423
25.137
26.1328
26.9675
27.9443
29.0339
30.183
31.4061
32.7088
34.087
35.5412
37.0729
38.6831
40.3729
42.1441
43.998
45.9363
47.9607
50.0731
52.2751
54.5689
56.9562
59.439
62.0193
64.6992
67.4806
70.3658
73.3567
76.4556
79.6644
82.9856
86.4199
89.9729
93.5169
24.3315
24.3527
23.9116
24.8719
25.8571
26.6882
27.6544
28.7346
29.8759
31.0913
32.3868
33.7586
35.2069
36.7332
38.3385
40.0241
41.7914
43.642
45.5775
47.5997
49.7103
51.9112
54.2043
56.5915
59.075
61.6565
64.3383
67.1225
70.011
73.0062
76.1101
79.3249
82.6528
86.0959
89.6555
93.3368
97.0097
23.9851
24.0735
23.6722
24.5998
25.5742
26.4018
27.3577
28.4284
29.5618
30.7693
32.0574
33.4224
34.8643
36.3849
37.9849
39.6657
41.4288
43.2756
45.2079
47.2273
49.3356
51.5349
53.8269
56.2135
58.6971
61.2794
63.9625
66.7488
69.6403
72.639
75.7474
78.9676
82.3018
85.7519
89.3206
93.0088
96.8218
100.627
23.6353
23.7855
23.4242
24.321
25.2842
26.1083
27.0543
28.1154
29.2409
30.4403
31.7206
33.0784
34.5138
36.0282
37.6225
39.2982
41.0565
42.8991
44.8275
46.8437
48.9494
51.1464
53.4368
55.8224
58.3055
60.888
63.5721
66.3599
69.2537
72.2555
75.3678
78.5926
81.9323
85.3892
88.9652
92.6629
96.4831
100.431
104.373
23.2824
23.4889
23.1678
24.0356
24.9874
25.8081
26.7443
27.7958
28.9131
30.1043
31.3766
32.727
34.1554
35.6632
37.2515
38.9214
40.6746
42.5125
44.4367
46.4492
48.5516
50.746
53.0342
55.4183
57.9004
60.4826
63.1671
65.9558
68.8513
71.8557
74.9712
78.2002
81.5449
85.0077
88.5905
92.296
96.1261
100.082
104.169
108.25
22.926
23.1844
22.9033
23.7437
24.6838
25.501
26.4279
27.4697
28.5787
29.7615
31.0256
32.3683
33.7893
35.2901
36.8719
38.5358
40.2833
42.116
44.0356
46.0439
48.1426
50.3338
52.6193
55.0014
57.482
60.0633
62.7476
65.5369
68.4335
71.4398
74.5581
77.7905
81.1396
84.6076
88.1967
91.9093
95.7476
99.7137
103.809
108.038
112.263
22.5667
22.8722
22.6309
23.4455
24.3736
25.1874
26.1051
27.1372
28.2377
29.412
30.6676
32.0023
33.4157
34.9092
36.484
38.1414
39.8829
41.7099
43.6244
45.6279
47.7224
49.9099
52.1924
54.5718
57.0504
59.6304
62.3138
65.1031
68.0003
71.0079
74.1284
77.3637
80.7165
84.1892
87.7839
91.503
95.3488
99.3236
103.429
107.667
112.042
116.414
22.2048
22.5526
22.3507
23.1412
24.0572
24.8674
25.7761
26.7984
27.8904
29.056
30.303
31.6293
33.0346
34.5205
36.088
37.7385
39.4734
41.2944
43.2031
45.2015
47.2913
49.4746
51.7534
54.1297
56.6059
59.1838
61.866
64.6546
67.552
70.5604
73.6822
76.92
80.276
83.7526
87.3523
91.0773
94.93
98.9127
103.027
107.276
111.66
116.185
120.708
21.8409
22.2261
22.063
22.8308
23.7346
24.5411
25.441
26.4536
27.5369
28.6937
29.9317
31.2494
32.6464
34.1242
35.684
37.3271
39.0551
40.8695
42.7721
44.7648
46.8494
49.028
51.3025
53.6753
56.1484
58.7239
61.4043
64.1917
67.0886
70.0972
73.22
76.4595
79.818
83.298
86.902
90.6324
94.4913
98.4812
102.604
106.863
111.258
115.792
120.47
125.147
21.4736
21.8931
21.7682
22.5147
23.406
24.2088
25.1001
26.1029
27.1774
28.3251
29.554
30.8628
32.2512
33.7206
35.2723
36.9076
38.6282
40.4355
42.3315
44.318
46.3969
48.5703
50.8401
53.2087
55.6781
58.2507
60.9286
63.7144
66.6101
69.6186
72.7417
75.9823
79.3429
82.8257
86.4332
90.1682
94.0329
98.0294
102.16
106.427
110.833
115.379
120.066
124.9
129.735
21.1041
21.554
21.4663
22.193
23.0718
23.8706
24.7535
25.7464
26.8119
27.9505
29.1701
30.4697
31.8491
33.3097
34.8529
36.4801
38.1927
39.9926
41.8815
43.8613
45.934
48.1016
50.3662
52.7301
55.1953
57.7644
60.4394
63.2228
66.117
69.1244
72.2474
75.4887
78.8506
82.3356
85.9464
89.6851
93.5546
97.5572
101.695
105.971
110.385
114.942
119.642
124.486
129.479
134.476
20.7326
21.2091
21.1578
21.8659
22.7321
23.5268
24.4013
25.3844
26.4408
27.5701
28.7801
30.0703
31.4403
32.8918
34.4261
36.0447
37.749
39.5409
41.4222
43.3949
45.4608
47.6221
49.881
52.2396
54.7002
57.265
59.9366
62.7172
65.6091
68.6151
71.7373
74.9786
78.3412
81.8279
85.4411
89.1834
93.0571
97.0649
101.209
105.492
109.916
114.482
119.193
124.051
129.055
134.211
139.373
20.3595
20.8587
20.8428
21.5336
22.3872
23.1775
24.0438
25.017
26.0641
27.1839
28.3841
29.6646
31.0251
32.4671
33.9921
35.6016
37.2972
39.0806
40.9539
42.9189
44.9775
47.132
49.3846
51.7374
54.1927
56.7529
59.4203
62.1975
65.0868
68.0906
71.2115
74.4522
77.8151
81.3027
84.9177
88.6628
92.5403
96.5528
100.703
104.992
109.424
113.999
118.721
123.59
128.609
133.777
139.1
144.43
19.9841
20.5033
20.5217
21.1963
22.0372
22.823
23.6812
24.6444
25.682
26.7923
27.9825
29.253
30.6035
32.0357
33.551
35.1511
36.8375
38.612
40.4767
42.4335
44.4844
46.6316
48.8772
51.2236
53.6731
56.2281
58.891
61.664
64.5499
67.5511
70.6702
73.9096
77.2721
80.7601
84.3764
88.1235
92.0041
96.0206
100.175
104.471
108.91
113.494
118.226
123.106
128.137
133.32
138.655
144.147
149.649
19.6068
20.1432
20.1947
20.8542
21.6824
22.4634
23.3136
24.2668
25.2948
26.3952
27.5753
28.8355
30.1758
31.5978
33.1031
34.6933
36.37
38.1352
39.9908
41.9388
43.9815
46.1208
48.359
50.6986
53.1417
55.6907
58.3484
61.1169
63.9988
66.9968
70.1132
73.3508
76.7123
80.2003
83.8172
87.5658
91.4488
95.4687
99.6279
103.929
108.375
112.966
117.707
122.598
127.641
132.837
138.188
143.693
149.357
155.034
19.2284
19.7786
19.8621
20.5076
21.323
22.0991
22.9412
23.8843
24.9027
25.9931
27.1627
28.4124
29.7422
31.1536
32.6485
34.2283
35.895
37.6503
39.4964
41.4353
43.469
45.5999
47.8301
50.1621
52.5983
55.141
57.7928
60.5561
63.4335
66.4275
69.5408
72.7762
76.1359
79.623
83.2401
86.9897
90.8744
94.8971
99.0601
103.366
107.818
112.417
117.165
122.066
127.12
132.329
137.694
143.216
148.894
154.733
160.589
18.8481
19.41
19.524
20.1565
20.9593
21.7302
22.5643
23.4973
24.5057
25.586
26.745
27.9839
29.3028
30.7033
32.1874
33.7565
35.4126
37.1577
38.9937
40.9228
42.9472
45.069
47.2908
49.6148
52.0433
54.5791
57.2245
59.9819
62.854
65.8438
68.9533
72.1855
75.5431
79.0288
82.6451
86.395
90.281
94.3058
98.4721
102.782
107.239
111.844
116.601
121.51
126.574
131.795
137.174
142.711
148.407
154.262
160.278
166.315
18.4665
19.0377
19.1809
19.8013
20.5914
21.3569
22.183
23.1059
24.1042
25.1741
26.3222
27.5501
28.8579
30.2472
31.72
33.278
34.9231
36.6574
38.4829
40.4017
42.4161
44.5285
46.7412
49.0565
51.4769
54.0049
56.6432
59.3944
62.2608
65.2452
68.3505
71.579
74.9337
78.4173
82.0324
85.7819
89.6685
93.6948
97.8636
102.177
106.639
111.25
116.013
120.931
126.005
131.237
136.628
142.179
147.891
153.765
159.799
165.996
172.216
18.0839
18.6619
18.8331
19.4422
20.2197
20.9794
21.7975
22.7102
23.6983
24.7577
25.8947
27.1112
28.4075
29.7853
31.2465
32.793
34.4266
36.1497
37.964
39.8722
41.8761
43.9784
46.1813
48.4873
50.8991
53.4189
56.0495
58.7936
61.6536
64.6323
67.7326
70.9569
74.308
77.7888
81.4022
85.1506
89.037
93.0642
97.2349
101.552
106.017
110.633
115.403
120.328
125.411
130.653
136.056
141.621
147.349
153.239
159.294
165.509
171.889
178.295
17.7
18.283
18.4806
19.0793
19.8443
20.5981
21.4081
22.3105
23.2882
24.3369
25.4626
26.6675
27.952
29.3179
30.7671
32.3017
33.9234
35.6347
37.4375
39.3344
41.3273
43.4189
45.6116
47.9077
50.3102
52.8211
55.4435
58.1798
61.0327
64.0051
67.0996
70.319
73.666
77.1436
80.7543
84.5011
88.3869
92.4143
96.5862
100.905
105.374
109.994
114.77
119.702
124.793
130.045
135.459
141.037
146.779
152.687
158.759
164.996
171.395
177.96
184.555
17.315
17.9012
18.1239
18.713
19.4654
20.213
21.015
21.907
22.8741
23.9119
25.0261
26.2191
27.4915
28.8452
30.2821
31.8042
33.4137
35.1127
36.9035
38.7884
40.7699
42.8502
45.032
47.3178
49.7102
52.2117
54.8251
57.5531
60.3984
63.3637
66.4517
69.6655
73.0077
76.4811
80.089
83.8333
87.7178
91.7447
95.917
100.238
104.709
109.334
114.114
119.052
124.151
129.412
134.837
140.427
146.182
152.106
158.195
164.452
170.874
177.46
184.211
190.996
16.9293
17.5167
17.7631
18.3432
19.0834
19.8245
20.6183
21.4999
22.4563
23.483
24.5854
25.7663
27.0263
28.3673
29.7915
31.3008
32.8975
34.5838
36.3621
38.2347
40.204
42.2726
44.4429
46.7177
49.0994
51.5908
54.1947
56.9136
59.7505
62.708
65.7891
68.9967
72.3333
75.8021
79.406
83.1474
87.0296
91.0557
95.2278
99.5492
104.023
108.65
113.435
118.379
123.485
128.754
134.188
139.79
145.559
151.497
157.604
163.879
170.323
176.933
183.707
190.646
197.623
16.5429
17.1301
17.3987
17.9703
18.6983
19.4327
20.2183
21.0894
22.0349
23.0502
24.1407
25.3092
26.5565
27.8845
29.2956
30.7917
32.3753
34.0483
35.8136
37.6733
39.6299
41.6861
43.8444
46.1074
48.478
50.9586
53.5523
56.2615
59.0893
62.0385
65.112
68.3124
71.643
75.1062
78.7055
82.4433
86.3229
90.347
94.5185
98.8401
103.315
107.945
112.733
117.682
122.794
128.071
133.515
139.127
144.908
150.86
156.983
163.277
169.741
176.374
183.175
190.139
197.267
204.437
16.1559
16.7413
17.0308
17.5946
18.3104
19.0378
19.8152
20.6757
21.6101
22.6139
23.6923
24.848
26.0823
27.3971
28.7947
30.2772
31.847
33.5065
35.2581
37.1044
39.0478
41.091
43.2366
45.4874
47.8461
50.3153
52.898
55.597
58.415
61.3551
64.4202
67.6129
70.9365
74.3937
77.9878
81.7212
85.5974
89.6189
93.7889
98.1101
102.585
107.217
112.009
116.962
122.079
127.363
132.815
138.437
144.23
150.196
156.334
162.645
169.129
175.784
182.61
189.602
196.757
204.076
211.44
15.7682
16.3507
16.6595
17.2162
17.92
18.6402
19.4091
20.259
21.1821
22.1743
23.2402
24.383
25.604
26.9051
28.2888
29.7573
31.313
32.9584
34.6959
36.5283
38.4579
40.4875
42.6199
44.8578
47.2039
49.661
52.2322
54.9201
57.7278
60.6579
63.7139
66.8984
70.2141
73.6647
77.2527
80.981
84.853
88.8713
93.0392
97.3593
101.835
106.468
111.261
116.218
121.341
126.631
132.09
137.722
143.526
149.504
155.657
161.985
168.487
175.164
182.013
189.032
196.217
203.565
211.075
218.634
15.3801
15.9586
16.2854
16.8352
17.5272
18.2399
19.0004
19.8395
20.7512
21.7314
22.7847
23.9143
25.1216
26.4088
27.7782
29.2323
30.7735
32.4043
34.1272
35.9451
37.8604
39.8759
41.9944
44.2187
46.5516
48.996
51.5549
54.2311
57.0276
59.9473
62.9934
66.1687
69.4762
72.919
76.5003
80.2229
84.09
88.1044
92.2692
96.5875
101.062
105.696
110.491
115.45
120.577
125.873
131.34
136.979
142.794
148.785
154.951
161.295
167.816
174.513
181.385
188.429
195.644
203.024
210.565
218.266
226.019
14.9917
15.5652
15.9086
16.4519
17.1322
17.8372
18.5891
19.4173
20.3175
21.2856
22.326
23.4421
24.6356
25.9084
27.2632
28.7025
30.2287
31.8444
33.5523
35.3551
37.2554
39.2562
41.3603
43.5704
45.8894
48.3204
50.8663
53.5301
56.3148
59.2232
62.2586
65.424
68.7224
72.157
75.7307
79.4467
83.3081
87.3179
91.4791
95.7947
100.268
104.901
109.697
114.659
119.789
125.09
130.563
136.211
142.035
148.036
154.216
160.576
167.114
173.831
180.725
187.794
195.036
202.448
210.024
217.758
225.65
233.596
14.6032
15.1707
15.5292
16.0666
16.7354
17.4324
18.1755
18.9928
19.8812
20.837
21.8644
22.9667
24.1459
25.4041
26.744
28.168
29.6787
31.2789
32.9712
34.7584
36.6433
38.6288
40.7177
42.913
45.2175
47.6345
50.1666
52.8173
55.5893
58.4857
61.5098
64.6646
67.953
71.3785
74.9441
78.6528
82.5076
86.5121
90.6687
94.9811
99.4519
104.084
108.88
113.844
118.976
124.281
129.76
135.415
141.248
147.26
153.453
159.827
166.382
173.117
180.033
187.126
194.395
201.837
209.447
217.219
225.147
233.228
241.368
14.2145
14.7753
15.1476
15.6795
16.3367
17.0256
17.7599
18.5661
19.4426
20.3859
21.3999
22.4882
23.6529
24.8962
26.2207
27.6291
29.1239
30.7081
32.3843
34.1554
36.0243
37.9938
40.067
42.2467
44.5362
46.9383
49.4562
52.0928
54.8515
57.7352
60.7472
63.8904
67.1683
70.5838
74.1404
77.8408
81.6885
85.6867
89.8382
94.1463
98.6142
103.245
108.04
113.004
118.139
123.447
128.931
134.593
140.434
146.456
152.66
159.048
165.619
172.373
179.309
186.426
193.721
201.192
208.835
216.643
224.612
232.733
241.002
249.335
13.8258
14.3793
14.764
15.2905
15.9365
16.617
17.3423
18.1374
19.0018
19.9323
20.9328
22.0069
23.1568
24.3847
25.6935
27.0858
28.5644
30.1321
31.7917
33.5462
35.3985
37.3515
39.4083
41.5719
43.8455
46.2321
48.735
51.357
54.1015
56.9716
59.9708
63.1019
66.3682
69.773
73.3198
77.0112
80.8508
84.8422
88.9874
93.2908
97.7548
102.382
107.177
112.141
117.277
122.588
128.076
133.743
139.592
145.623
151.839
158.239
164.825
171.597
178.553
185.692
193.013
200.512
208.187
216.031
224.039
232.204
240.517
248.973
257.495
13.4372
13.9828
14.3787
14.9001
15.535
16.2069
16.923
17.7069
18.559
19.4766
20.4633
21.5229
22.6577
23.87
25.1627
26.5386
28.0004
29.5512
31.1937
32.931
34.7661
36.7021
38.7418
40.8887
43.1458
45.5162
48.0031
50.6099
53.3395
56.1953
59.1807
62.2987
65.5529
68.9461
72.4823
76.164
79.9946
83.978
88.1167
92.4142
96.8737
101.498
106.29
111.253
116.39
121.703
127.194
132.866
138.722
144.761
150.988
157.4
164.001
170.789
177.764
184.926
192.271
199.798
207.503
215.382
223.429
231.636
239.997
248.501
257.142
265.85
13.0488
13.5862
13.9919
14.5083
15.1323
15.7953
16.5022
17.2748
18.1144
19.0189
19.9917
21.0365
22.1558
23.3522
24.6285
25.9875
27.4322
28.9656
30.5905
32.3101
34.1275
36.0457
38.0679
40.1973
42.4372
44.7907
47.2611
49.8516
52.5657
55.4064
58.3772
61.4814
64.7225
68.1035
71.6279
75.299
79.1202
83.0947
87.2257
91.5164
95.9707
100.591
105.38
110.341
115.477
120.792
126.286
131.962
137.823
143.871
150.107
156.531
163.146
169.949
176.943
184.126
191.495
199.049
206.784
214.697
222.78
231.03
239.436
247.991
256.684
265.508
274.399
12.6606
13.1894
13.6037
14.1154
14.7286
15.3826
16.0801
16.8412
17.6683
18.5594
19.518
20.5478
21.6515
22.8316
24.0911
25.4329
26.86
28.3755
29.9823
31.6837
33.4827
35.3826
37.3867
39.498
41.72
44.0559
46.509
49.0826
51.7801
54.605
57.5607
60.6501
63.877
67.2449
70.7571
74.4166
78.2271
82.1921
86.3146
90.5978
95.0456
99.6604
104.446
109.405
114.54
119.854
125.35
131.03
136.897
142.951
149.196
155.631
162.258
169.078
176.089
183.292
190.685
198.265
206.029
213.974
222.095
230.384
238.836
247.441
256.189
265.068
274.07
283.14
12.2727
12.7928
13.2145
13.7216
14.3241
14.969
15.6568
16.4064
17.2207
18.0984
19.0425
20.057
21.1447
22.3082
23.5506
24.8748
26.2839
27.7811
29.3693
31.052
32.8322
34.7132
36.6984
38.791
40.9944
43.3119
45.7469
48.303
50.9833
53.7914
56.7308
59.8049
63.0169
66.3708
69.8696
73.5168
77.3157
81.27
85.3833
89.6583
94.0986
98.7078
103.488
108.444
113.577
118.891
124.388
130.071
135.941
142.002
148.255
154.7
161.34
168.173
175.202
182.424
189.839
197.445
205.238
213.214
221.371
229.7
238.196
246.849
255.652
264.59
273.653
282.828
292.072
11.8854
12.3965
12.8245
13.327
13.919
14.5545
15.2326
15.9706
16.7719
17.6359
18.5654
19.5644
20.6359
21.7825
23.0074
24.3136
25.7043
27.1827
28.7518
30.4152
32.176
34.0376
36.0032
38.0765
40.2605
42.559
44.9753
47.5129
50.1753
52.9658
55.8882
58.9458
62.1423
65.481
68.9656
72.5994
76.3863
80.3292
84.432
88.6975
93.1301
97.7318
102.507
107.458
112.589
117.901
123.398
129.083
134.958
141.023
147.283
153.738
160.389
167.237
174.281
181.522
188.959
196.588
204.409
212.417
220.608
228.977
237.516
246.217
255.072
264.069
273.195
282.436
291.782
301.193
11.4986
12.0007
12.4338
12.9317
13.5135
14.1395
14.8077
15.5338
16.3221
17.1722
18.0869
19.0701
20.1251
21.2545
22.4616
23.7494
25.1213
26.5804
28.13
29.7736
31.5144
33.356
35.3015
37.3546
39.5188
41.7975
44.1943
46.7126
49.3561
52.1284
55.033
58.0732
61.2531
64.5759
68.0455
71.6651
75.4386
79.3692
83.4606
87.7161
92.1395
96.7337
101.502
106.448
111.575
116.885
122.382
128.067
133.944
140.015
146.281
152.744
159.406
166.267
173.326
180.586
188.043
195.696
203.544
211.583
219.808
228.215
236.796
245.544
254.45
263.505
272.693
282.004
291.42
300.93
310.501
11.1125
11.6055
12.0426
12.5361
13.1076
13.7239
14.3821
15.0964
15.8715
16.7075
17.6071
18.5744
19.6125
20.7245
21.9133
23.1825
24.5351
25.9746
27.5042
29.1275
30.8478
32.6687
34.5935
36.6259
38.7694
41.0276
43.404
45.9024
48.5262
51.2793
54.1652
57.1873
60.3497
63.6558
67.1093
70.7138
74.4729
78.39
82.4693
86.7137
91.1269
95.7122
100.473
105.413
110.535
115.842
121.337
127.023
132.902
138.976
145.248
151.719
158.39
165.262
172.337
179.614
187.091
194.768
202.641
210.71
218.968
227.413
236.035
244.829
253.787
262.897
272.147
281.525
291.017
300.602
310.27
319.992
10.727
11.2112
11.6513
12.1403
12.7017
13.3082
13.9561
14.6584
15.4202
16.2419
17.1262
18.0773
19.0984
20.1925
21.363
22.613
23.946
25.3654
26.8745
28.477
30.1762
31.9758
33.8794
35.8904
38.0126
40.2495
42.6049
45.0825
47.686
50.4188
53.2853
56.2884
59.4322
62.7205
66.157
69.7453
73.4892
77.3922
81.4581
85.6903
90.0925
94.6683
99.4208
104.354
109.47
114.773
120.265
125.95
131.83
137.906
144.183
150.661
157.341
164.225
171.313
178.606
186.103
193.801
201.701
209.798
218.088
226.569
235.233
244.073
253.079
262.245
271.557
281.001
290.565
300.231
309.98
319.799
329.664
10.3424
10.8178
11.2599
11.7443
12.2958
12.8923
13.5299
14.2201
14.9684
15.7756
16.6445
17.5792
18.583
19.659
20.8106
22.0412
23.3542
24.753
26.2413
27.8224
29.5
31.2778
33.1594
35.1483
37.2485
39.4635
41.7971
44.2531
46.8352
49.5473
52.3931
55.3765
58.5009
61.7706
65.189
68.7601
72.4877
76.3755
80.4271
84.6461
89.0363
93.6013
98.3443
103.269
108.379
113.676
119.165
124.848
130.728
136.807
143.087
149.57
156.259
163.153
170.254
177.563
185.078
192.797
200.721
208.847
217.17
225.686
234.389
243.272
252.329
261.548
270.92
280.43
290.066
299.811
309.647
319.553
329.515
339.511
9.95864
10.4255
10.8686
11.3484
11.8902
12.4766
13.1037
13.7816
14.5163
15.3088
16.1621
17.0801
18.0663
19.124
20.2565
21.4673
22.7599
24.1378
25.6046
27.1639
28.8194
30.5748
32.4337
34.4001
36.4775
38.6698
40.9809
43.4145
45.9745
48.6648
51.4892
54.4518
57.556
60.8061
64.2056
67.7585
71.4688
75.3403
79.3766
83.5814
87.9585
92.5115
97.2439
102.16
107.261
112.553
118.037
123.717
129.596
135.676
141.959
148.447
155.143
162.047
169.16
176.483
184.015
191.756
199.703
207.855
216.21
224.76
233.503
242.43
251.534
260.808
270.237
279.813
289.52
299.342
309.263
319.262
329.318
339.413
349.53
9.57593
10.0345
10.4778
10.9529
11.4849
12.0611
12.6775
13.3432
14.064
14.8418
15.6792
16.5803
17.5487
18.5877
19.7008
20.8914
22.1632
23.5198
24.9648
26.5017
28.1346
29.8671
31.7029
33.6459
35.6999
37.8688
40.1565
42.567
45.1041
47.7717
50.5739
53.5146
56.5976
59.8271
63.2065
66.7405
70.4324
74.2866
78.3063
82.4959
86.8587
91.3989
96.1196
101.025
106.118
111.402
116.881
122.557
128.434
134.514
140.798
147.291
153.993
160.905
168.03
175.366
182.915
190.676
198.647
206.825
215.208
223.793
232.573
241.543
250.694
260.02
269.509
279.148
288.925
298.824
308.828
318.918
329.073
339.27
349.49
359.714
9.19428
9.64485
10.0874
10.5576
11.0801
11.646
12.2515
12.9048
13.6118
14.3745
15.196
16.08
17.0304
18.0504
19.1437
20.3139
21.5646
22.8994
24.322
25.8363
27.4459
29.1548
30.9669
32.8858
34.9158
37.0606
39.3243
41.7108
44.2241
46.8683
49.6473
52.5651
55.626
58.8338
62.1925
65.7062
69.3788
73.2144
77.2167
81.3897
85.7375
90.2634
94.9718
99.8655
104.949
110.225
115.697
121.368
127.241
133.32
139.606
146.101
152.808
159.728
166.863
174.212
181.777
189.556
197.549
205.753
214.165
222.782
231.6
240.613
249.81
259.188
268.733
278.435
288.281
298.256
308.343
318.523
328.776
339.079
349.407
359.741
370.057
8.81381
9.25668
9.69777
10.163
10.676
11.2315
11.826
12.4668
13.1597
13.9073
14.7125
15.5793
16.5114
17.5123
18.5856
19.7349
20.9641
22.2767
23.6766
25.1676
26.7535
28.4384
30.226
32.1204
34.1256
36.2456
38.4844
40.8462
43.3349
45.9547
48.7096
51.6038
54.6415
57.8267
61.1634
64.6558
68.3079
72.124
76.1077
80.2631
84.5945
89.1054
93.7999
98.6812
103.754
109.02
114.484
120.149
126.018
132.094
138.38
144.877
151.589
158.516
165.659
173.021
180.6
188.396
196.41
204.639
213.079
221.729
230.583
239.636
248.881
258.307
267.91
277.674
287.588
297.638
307.806
318.075
328.424
338.832
349.274
359.724
370.159
380.552
8.43461
8.87015
9.30906
9.76907
10.2727
10.8177
11.4011
12.0292
12.708
13.4403
14.2291
15.0784
15.992
16.9734
18.0264
19.1546
20.3619
21.652
23.0287
24.4959
26.0577
27.7179
29.4806
31.3497
33.3295
35.424
37.6372
39.9734
42.4366
45.0312
47.7613
50.6308
53.6443
56.8059
60.1197
63.5898
67.2203
71.0155
74.9795
79.1164
83.4303
87.9248
92.6041
97.4719
102.532
107.788
113.243
118.901
124.765
130.837
137.121
143.619
150.334
157.266
164.418
171.791
179.383
187.198
195.231
203.483
211.951
220.631
229.521
238.613
247.903
257.381
267.038
276.863
286.845
296.968
307.217
317.574
328.019
338.53
349.084
359.655
370.215
380.74
391.191
8.0567
8.48534
8.9214
9.37602
9.87038
10.4048
10.9769
11.5922
12.2567
12.9736
13.7458
14.5774
15.4723
16.434
17.4664
18.5733
19.7583
21.0254
22.3786
23.8217
25.3587
26.9937
28.7309
30.5742
32.5278
34.5961
36.7829
39.0928
41.5297
44.0982
46.8024
49.6466
52.6347
55.7716
59.0614
62.508
66.1161
69.8895
73.8327
77.9496
82.2446
86.7218
91.3847
96.2376
101.284
106.528
111.973
117.623
123.48
129.548
135.829
142.327
149.044
155.98
163.139
170.521
178.127
185.956
194.01
202.284
210.779
219.489
228.413
237.544
246.877
256.405
266.116
276.002
286.05
296.246
306.575
317.019
327.559
338.173
348.838
359.528
370.217
380.874
391.474
401.964
7.6803
8.1024
8.53493
8.98396
9.46912
9.99291
10.5535
11.156
11.8062
12.5074
13.2629
14.0767
14.9526
15.8944
16.9059
17.991
19.1535
20.3973
21.7265
23.1449
24.6567
26.2661
27.9771
29.794
31.7209
33.7621
35.9219
38.2047
40.6145
43.156
45.8333
48.6509
51.6132
54.7243
57.9889
61.4109
64.9953
68.7459
72.667
76.7629
81.0377
85.4963
90.1417
94.9784
100.01
105.241
110.675
116.315
122.164
128.226
134.504
141
147.718
154.658
161.822
169.213
176.83
184.674
192.745
201.042
209.562
218.302
227.259
236.429
245.805
255.379
265.145
275.09
285.203
295.471
305.879
316.409
327.043
337.759
348.534
359.343
370.159
380.953
391.694
402.355
412.864
7.30542
7.7214
8.14989
8.59305
9.06903
9.58216
10.1313
10.7207
11.3564
12.0419
12.7805
13.5762
14.433
15.3546
16.345
17.4081
18.5477
19.7678
21.0726
22.4659
23.9521
25.5353
27.2196
29.0094
30.9089
32.9225
35.0545
37.3092
39.6912
42.2048
44.8544
47.6446
50.5796
53.664
56.9024
60.299
63.8584
67.5847
71.4827
75.5564
79.8101
84.2484
88.8751
93.6945
98.7106
103.927
109.348
114.977
120.817
126.872
133.145
139.638
146.355
153.297
160.467
167.865
175.492
183.35
191.439
199.755
208.299
217.068
226.058
235.265
244.683
254.305
264.122
274.125
284.303
294.643
305.128
315.744
326.47
337.287
348.171
359.098
370.041
380.971
391.857
402.667
413.374
423.878
6.93219
7.34248
7.76634
8.20345
8.67031
9.17268
9.71012
10.2865
10.9075
11.5771
12.2987
13.0762
13.9136
14.8149
15.7839
16.8247
17.941
19.1372
20.4171
21.785
23.2451
24.8015
26.4586
28.2207
30.0922
32.0774
34.1808
36.4069
38.7601
41.2449
43.866
46.6277
49.5346
52.5913
55.8023
59.1722
62.7056
66.4065
70.28
74.3301
78.5617
82.9785
87.5852
92.386
97.3846
102.585
107.992
113.609
119.439
125.485
131.752
138.241
144.956
151.899
159.072
166.477
174.114
181.984
190.088
198.424
206.991
215.787
224.809
234.052
243.51
253.178
263.047
273.108
283.35
293.759
304.322
315.022
325.84
336.757
347.75
358.793
369.862
380.927
391.957
402.921
413.785
424.519
434.996
6.5607
6.96574
7.3845
7.81527
8.27304
8.76462
9.2902
9.85342
10.4597
11.1134
11.8177
12.5768
13.3947
14.2754
15.2228
16.2409
17.3338
18.5056
19.7604
21.1024
22.5358
24.065
25.6944
27.4282
29.2709
31.2272
33.3012
35.4979
37.8215
40.2767
42.8682
45.6005
48.4784
51.5063
54.689
58.0309
61.5368
65.2116
69.0595
73.0847
77.2924
81.6868
86.2721
91.0526
96.033
101.217
106.608
112.211
118.029
124.066
130.325
136.809
143.521
150.463
157.638
165.048
172.693
180.574
188.693
197.047
205.636
214.459
223.51
232.788
242.287
252
261.919
272.037
282.341
292.82
303.459
314.242
325.151
336.167
347.267
358.427
369.621
380.82
391.994
403.111
414.137
425.038
435.782
446.205
6.19105
6.59124
7.00444
7.42862
7.87736
8.35807
8.87175
9.42165
10.0132
10.6507
11.3377
12.0783
12.8765
13.7363
14.6619
15.6571
16.7262
17.8733
19.1025
20.4182
21.8246
23.326
24.9271
26.6321
28.4456
30.3721
32.4161
34.5826
36.8758
39.3005
41.8615
44.5635
47.4111
50.4093
53.5625
56.8754
60.3531
64
67.8209
71.8203
76.0028
80.3733
84.9358
89.695
94.6549
99.8204
105.195
110.782
116.587
122.613
128.863
135.34
142.048
148.989
156.165
163.578
171.23
179.121
187.253
195.624
204.234
213.081
222.163
231.474
241.012
250.769
260.738
270.911
281.276
291.823
302.537
313.403
324.403
335.517
346.723
357.999
369.317
380.649
391.966
403.236
414.424
425.496
436.415
447.149
457.49
5.82342
6.21905
6.62632
7.04367
7.48333
7.95328
8.45487
8.99137
9.568
10.1892
10.8588
11.5806
12.359
13.1978
14.1013
15.0734
16.1184
17.2404
18.4438
19.7328
21.1117
22.585
24.1572
25.8328
27.6163
29.5124
31.5258
33.6611
35.9232
38.3166
40.8463
43.5171
46.3333
49.3006
52.4234
55.7062
59.154
62.7722
66.5647
70.5368
74.693
79.0384
83.5765
88.3132
93.2514
98.3972
103.754
109.325
115.115
121.128
127.367
133.836
140.538
147.475
154.651
162.067
169.724
177.624
185.768
194.155
202.784
211.655
220.764
230.108
239.683
249.483
259.501
269.728
280.154
290.769
301.557
312.504
323.593