/*--------------------------------*- C++ -*----------------------------------*\
  =========                 |
  \\      /  F ield         | OpenFOAM: The Open Source CFD Toolbox
   \\    /   O peration     | Website:  https://openfoam.org
    \\  /    A nd           | Version:  7
     \\/     M anipulation  |
\*---------------------------------------------------------------------------*/
FoamFile
{
    version     2.0;
    format      ascii;
    class       surfaceScalarField;
    location    "1200";
    object      phi;
}
// * * * * * * * * * * * * * * * * * * * * * * * * * * * * * * * * * * * * * //

dimensions      [0 3 -1 0 0 0 0];

internalField   nonuniform List<scalar> 
45794
(
-0.295102
0.0426655
-0.293473
0.0451854
-0.283561
0.0409501
-0.29173
0.0477262
-0.281832
0.0434571
-0.271985
0.0394982
-0.289851
0.0501723
-0.280044
0.0459382
-0.270399
0.0418714
-0.261012
0.0379558
-0.287805
0.0525653
-0.278126
0.0482538
-0.268654
0.044193
-0.259445
0.0403043
-0.250466
0.0365014
-0.24166
0.0329186
-0.285699
0.0549488
-0.276168
0.0506077
-0.266858
0.0464583
-0.257792
0.0425401
-0.248963
0.0388017
-0.2403
0.0351414
-0.231855
0.0316653
-0.223605
0.00208168
-0.283394
0.0571234
-0.274068
0.0528486
-0.264965
0.048714
-0.256048
0.0447148
-0.247317
0.0408945
-0.238801
0.0373029
-0.230556
0.0338424
-0.222449
0.0305096
-0.214526
0.00208109
-0.281093
0.0593867
-0.271926
0.0549814
-0.262928
0.0508122
-0.254164
0.04683
-0.24563
0.043027
-0.23731
0.0394038
-0.229114
0.035861
-0.221152
0.0325456
-0.213377
0.0293604
-0.2058
0.00210025
-0.2786
0.0614406
-0.269641
0.0571013
-0.260848
0.0529012
-0.252238
0.0488862
-0.24385
0.0450505
-0.235629
0.0413457
-0.22758
0.0378697
-0.219813
0.0345217
-0.212134
0.0313026
-0.204666
0.028226
-0.197383
0.00210946
-0.276063
0.0635314
-0.267313
0.0591127
-0.258628
0.0548812
-0.250219
0.050882
-0.241979
0.0470148
-0.233956
0.0433772
-0.226053
0.0398189
-0.218382
0.0364384
-0.210798
0.0331856
-0.203473
0.0301097
-0.196313
0.0271561
-0.18932
0.00211877
-0.273489
0.065513
-0.264845
0.0610639
-0.256415
0.0568995
-0.248159
0.0528211
-0.240068
0.0489709
-0.232142
0.045201
-0.224385
0.0417095
-0.216809
0.0382464
-0.209419
0.0350594
-0.202217
0.0319296
-0.195164
0.028961
-0.188282
0.0261181
-0.181576
0.00212792
-0.270727
0.0673866
-0.26229
0.0629574
-0.254064
0.0587131
-0.245909
0.05465
-0.238016
0.0507697
-0.230238
0.0470668
-0.222677
0.0434929
-0.215195
0.0400957
-0.207998
0.0368248
-0.200863
0.0337057
-0.193947
0.0307122
-0.18718
0.0278589
-0.180583
0.0251253
-0.174147
0.00213691
-0.267978
0.0692489
-0.259695
0.0647919
-0.251621
0.0605151
-0.243669
0.0564729
-0.235925
0.0525588
-0.228292
0.0488237
-0.220827
0.0452165
-0.213539
0.041836
-0.206435
0.0385328
-0.199452
0.0354138
-0.192657
0.0324154
-0.186014
0.0295464
-0.179526
0.0268018
-0.173193
0.0241708
-0.167009
0.00214109
-0.265094
0.0710049
-0.257013
0.0665673
-0.249142
0.062312
-0.24139
0.0582361
-0.233743
0.0542911
-0.226306
0.0505735
-0.218987
0.0469839
-0.211842
0.0435195
-0.20483
0.0402312
-0.197998
0.0370789
-0.191308
0.0340656
-0.184775
0.0311764
-0.178396
0.0284157
-0.172169
0.0257779
-0.166091
0.0232529
-0.160167
0.00215019
-0.262172
0.0727499
-0.254294
0.068285
-0.246574
0.0639993
-0.238972
0.0598939
-0.231474
0.0559664
-0.224183
0.0521673
-0.217006
0.0485929
-0.210004
0.0451463
-0.203185
0.0418746
-0.196454
0.0386873
-0.189888
0.0356585
-0.183469
0.0327588
-0.177206
0.0299869
-0.171086
0.0273327
-0.165109
0.0247954
-0.159284
0.0223697
-0.153597
0.00215434
-0.259168
0.0743417
-0.25144
0.0698968
-0.243869
0.0655808
-0.236466
0.0614932
-0.229165
0.0575848
-0.222018
0.0538021
-0.215035
0.0501959
-0.208176
0.0467646
-0.201448
0.0434092
-0.194822
0.0402423
-0.188401
0.0372
-0.182104
0.0342939
-0.175953
0.0315062
-0.169939
0.0288403
-0.164067
0.0262908
-0.158341
0.0238524
-0.152747
0.0215195
-0.147293
0.00216342
-0.256078
0.0759228
-0.24855
0.071451
-0.241177
0.0672043
-0.233923
0.0630381
-0.226768
0.0590966
-0.219815
0.0553813
-0.212976
0.0517434
-0.20621
0.0482297
-0.199621
0.0449379
-0.193155
0.0417419
-0.186857
0.0386984
-0.180677
0.035773
-0.174638
0.0329786
-0.168734
0.0303011
-0.162966
0.0277395
-0.157339
0.0252884
-0.151837
0.0229423
-0.146474
0.0207008
-0.141236
0.00216756
-0.252905
0.0774501
-0.245576
0.0729489
-0.2384
0.0686738
-0.231294
0.0645754
-0.224332
0.0606023
-0.217524
0.0568059
-0.210778
0.0531833
-0.204201
0.0497345
-0.197753
0.0463617
-0.191418
0.0432008
-0.18525
0.0401355
-0.179188
0.0372093
-0.173265
0.0343996
-0.167471
0.0317153
-0.161807
0.0291417
-0.156277
0.026678
-0.150872
0.0243237
-0.145601
0.0220685
-0.140452
0.019917
-0.135436
0.00217648
-0.2497
0.0789213
-0.242566
0.0744404
-0.235537
0.0700859
-0.228626
0.0660058
-0.221809
0.0620523
-0.215194
0.0582726
-0.208589
0.0546172
-0.202154
0.0511369
-0.195797
0.0477782
-0.189648
0.0445919
-0.183578
0.0415285
-0.177644
0.0385917
-0.17183
0.0357744
-0.16615
0.0330787
-0.160589
0.0304977
-0.155162
0.0280262
-0.149858
0.0256638
-0.144672
0.0233951
-0.139613
0.0212294
-0.13468
0.0191614
-0.129862
0.00218062
-0.246461
0.0802867
-0.239424
0.0757792
-0.232639
0.0715427
-0.225924
0.0673831
-0.21925
0.0634466
-0.212728
0.0595859
-0.206315
0.0559982
-0.20002
0.0524826
-0.19385
0.0491902
-0.187818
0.0459487
-0.181857
0.0428712
-0.176042
0.0399261
-0.170342
0.037104
-0.164777
0.0344011
-0.159323
0.0318129
-0.153993
0.0293287
-0.148785
0.0269532
-0.143694
0.0246856
-0.138724
0.0225059
-0.133874
0.0204234
-0.129134
0.0184329
-0.124516
0.00218965
-0.24309
0.0815988
-0.236297
0.0771599
-0.229656
0.072796
-0.223086
0.0687046
-0.216605
0.0647382
-0.210224
0.0609428
-0.204001
0.0572715
-0.197845
0.0538236
-0.191814
0.0504464
-0.185875
0.0472465
-0.180079
0.0441706
-0.174383
0.0412127
-0.168805
0.0383886
-0.163346
0.0356736
-0.158
0.033078
-0.152771
0.0305908
-0.147663
0.0282068
-0.142662
0.0259209
-0.13778
0.0237419
-0.133013
0.021645
-0.128355
0.0196444
-0.123813
0.0177299
-0.119381
0.00218887
-0.239637
0.0828548
-0.233087
0.0783881
-0.22659
0.074094
-0.220261
0.0699717
-0.213923
0.0660224
-0.207732
0.0622466
-0.20165
0.0585923
-0.195633
0.0550596
-0.189703
0.0517128
-0.183926
0.0484975
-0.178246
0.0454137
-0.17267
0.0424575
-0.167214
0.0396216
-0.161864
0.0369059
-0.156623
0.0342968
-0.151495
0.0318027
-0.146483
0.0294105
-0.14158
0.0271256
-0.136787
0.0249276
-0.132103
0.0228311
-0.127535
0.0208255
-0.123069
0.0189006
-0.118712
0.017061
-0.114463
0.00219774
-0.236201
0.0841073
-0.229843
0.0796113
-0.223538
0.0753362
-0.217353
0.0711856
-0.211155
0.067204
-0.205106
0.0633958
-0.199161
0.0597572
-0.193332
0.056291
-0.18757
0.0529265
-0.181919
0.0497057
-0.176363
0.0466137
-0.17091
0.0436533
-0.165568
0.0408118
-0.16033
0.0380879
-0.155201
0.0354831
-0.150179
0.0329801
-0.145264
0.0305841
-0.140455
0.0282855
-0.13575
0.0260883
-0.131157
0.023982
-0.126666
0.0219615
-0.122275
0.0200313
-0.117993
0.0181809
-0.113817
0.016415
-0.109737
0.00220184
-0.232733
0.085257
-0.226518
0.0807827
-0.220405
0.0764782
-0.21436
0.0723437
-0.20835
0.0683808
-0.202491
0.0645898
-0.196735
0.0609696
-0.190993
0.0574187
-0.185357
0.0540785
-0.179851
0.0508584
-0.174425
0.0477686
-0.169097
0.0448013
-0.163871
0.0419566
-0.158749
0.0392308
-0.153726
0.0366129
-0.148807
0.0341112
-0.143992
0.0317077
-0.139277
0.0294055
-0.134663
0.0271991
-0.130152
0.0250834
-0.125742
0.023058
-0.121436
0.0211223
-0.117232
0.019271
-0.113126
0.0174891
-0.109113
0.0157909
-0.105203
0.00220093
-0.229135
0.0863535
-0.22316
0.0818984
-0.217186
0.0775632
-0.211331
0.0734489
-0.205513
0.069506
-0.199842
0.0657308
-0.194172
0.0620274
-0.188568
0.0585445
-0.183133
0.0551938
-0.177736
0.0519634
-0.172437
0.0488704
-0.167236
0.0459075
-0.162132
0.0430622
-0.157122
0.0403297
-0.152209
0.0377147
-0.147395
0.0352012
-0.142674
0.0327929
-0.13805
0.030481
-0.133529
0.0282708
-0.129108
0.0261553
-0.124783
0.0241246
-0.120556
0.0221786
-0.116427
0.0203166
-0.112388
0.0185335
-0.108453
0.0168287
-0.104609
0.0151971
-0.100855
0.00220501
-0.225554
0.087397
-0.21972
0.0829139
-0.213936
0.0786488
-0.208271
0.0745036
-0.202639
0.0705755
-0.197105
0.0667694
-0.191574
0.0631327
-0.186174
0.0596332
-0.180843
0.0562551
-0.175576
0.0530342
-0.170411
0.049937
-0.165333
0.0469674
-0.160345
0.0441202
-0.155445
0.0413845
-0.150641
0.0387614
-0.14593
0.0362496
-0.141312
0.0338393
-0.136786
0.0315291
-0.132361
0.0293131
-0.128025
0.0271878
-0.12378
0.0251521
-0.119632
0.0232005
-0.115581
0.0213328
-0.111615
0.0195435
-0.107747
0.0178274
-0.103969
0.0161888
-0.100281
0.0146228
-0.0966837
0.00221382
-0.221893
0.0883888
-0.216248
0.0839248
-0.210651
0.079629
-0.205174
0.0755511
-0.19973
0.0715947
-0.194285
0.0677551
-0.188938
0.064133
-0.183673
0.0606322
-0.178487
0.0572772
-0.173373
0.0540522
-0.168336
0.0509595
-0.163384
0.0479881
-0.158512
0.0451342
-0.153726
0.0424015
-0.149037
0.0397801
-0.144429
0.0372602
-0.139907
0.0348453
-0.135477
0.0325305
-0.131143
0.0303114
-0.126894
0.0281816
-0.122733
0.0261408
-0.118669
0.0241886
-0.114691
0.0223101
-0.110802
0.0205195
-0.107
0.0187968
-0.103293
0.0171515
-0.0996653
0.0155734
-0.0961279
0.014067
-0.0926789
0.00221787
-0.218201
0.0893289
-0.212745
0.0848853
-0.207335
0.0806086
-0.201996
0.0764516
-0.196689
0.0725101
-0.191427
0.0687375
-0.186266
0.0650832
-0.181147
0.0616068
-0.176099
0.0582442
-0.171117
0.0550211
-0.166211
0.0519267
-0.161384
0.0489597
-0.156633
0.046109
-0.151966
0.0433745
-0.14738
0.040745
-0.142876
0.0382269
-0.138461
0.0358137
-0.134128
0.0334957
-0.129884
0.0312715
-0.125719
0.0291365
-0.121646
0.0270954
-0.117661
0.0251328
-0.11376
0.0232582
-0.109948
0.0214566
-0.106218
0.0197372
-0.102577
0.0180802
-0.0990136
0.0164998
-0.0955406
0.0149861
-0.0921456
0.0135337
-0.0888356
0.00221692
-0.214429
0.0901664
-0.209159
0.0857433
-0.203936
0.0814869
-0.198784
0.0773958
-0.193711
0.0734732
-0.188584
0.069667
-0.183558
0.06603
-0.178593
0.0625287
-0.173668
0.0591756
-0.168828
0.0559548
-0.164054
0.0528637
-0.159348
0.04989
-0.154715
0.0470424
-0.150167
0.0443097
-0.145689
0.0416834
-0.141293
0.0391621
-0.136973
0.0367395
-0.132736
0.0344218
-0.128586
0.032198
-0.12451
0.030063
-0.120527
0.0280169
-0.116619
0.0260536
-0.112795
0.0241681
-0.109055
0.0223649
-0.105395
0.0206342
-0.10182
0.01898
-0.098326
0.0173926
-0.0949121
0.0158714
-0.0915756
0.0144161
-0.0883284
0.0130265
-0.0851486
0.00222093
-0.210626
0.0910531
-0.205592
0.0865993
-0.200554
0.0823606
-0.195585
0.0782885
-0.190599
0.0742841
-0.185657
0.0705464
-0.180797
0.0669056
-0.175973
0.0634103
-0.1712
0.0600606
-0.166495
0.0568431
-0.161852
0.0537529
-0.157271
0.0507874
-0.152762
0.0479368
-0.148323
0.0451987
-0.143952
0.0425729
-0.139666
0.0400569
-0.135449
0.0376374
-0.131312
0.0353153
-0.127251
0.0330869
-0.123265
0.0309522
-0.119364
0.0288997
-0.115538
0.026936
-0.111791
0.0250495
-0.108127
0.0232402
-0.104538
0.0215076
-0.101032
0.0198467
-0.0976028
0.0182568
-0.0942476
0.0167281
-0.0909742
0.01527
-0.0877797
0.0138675
-0.0846569
0.0125348
-0.0816128
0.0022248
-0.206842
0.0918399
-0.201944
0.0874051
-0.19709
0.0831358
-0.192258
0.079033
-0.187456
0.0751454
-0.182697
0.0713233
-0.177983
0.067732
-0.17332
0.0642527
-0.168694
0.0609041
-0.164127
0.0576926
-0.159608
0.0545994
-0.155156
0.0516372
-0.150766
0.0487911
-0.146443
0.0460572
-0.142189
0.0434358
-0.138005
0.0409118
-0.133883
0.0384914
-0.129844
0.0361697
-0.125879
0.0339431
-0.12198
0.0318026
-0.118162
0.0297508
-0.114419
0.0277809
-0.110753
0.0258978
-0.107159
0.024082
-0.103645
0.0223476
-0.100209
0.0206847
-0.096839
0.0190829
-0.0935522
0.0175614
-0.0903415
0.0160954
-0.0871996
0.0146898
-0.0841335
0.0133441
-0.0811407
0.0120628
-0.0782231
0.00222877
-0.202976
0.0925738
-0.198265
0.0881607
-0.193595
0.0839104
-0.188946
0.0798239
-0.184326
0.075903
-0.1797
0.0721493
-0.175184
0.0685245
-0.170633
0.065045
-0.166148
0.0617074
-0.161715
0.0584916
-0.15733
0.0554144
-0.153007
0.0524505
-0.148734
0.049605
-0.144523
0.0468707
-0.140382
0.0442498
-0.136297
0.0417277
-0.132285
0.039314
-0.12834
0.0369879
-0.12447
0.0347603
-0.120657
0.0326202
-0.116927
0.0305675
-0.113271
0.0286022
-0.10968
0.0267082
-0.106158
0.0248961
-0.102718
0.0231551
-0.0993466
0.0214849
-0.0960449
0.0198906
-0.0928261
0.0183568
-0.0896682
0.0168881
-0.0865881
0.015484
-0.0835785
0.0141348
-0.0806367
0.0128401
-0.0777649
0.0116046
-0.0749647
0.00223258
-0.199033
0.0932106
-0.194505
0.0888139
-0.190066
0.0846309
-0.1856
0.0805647
-0.181164
0.0766613
-0.17672
0.0729225
-0.172304
0.0692692
-0.167904
0.0657958
-0.163564
0.0624603
-0.159264
0.0592569
-0.155015
0.0561767
-0.150813
0.0532211
-0.146663
0.0503802
-0.142569
0.0476514
-0.138539
0.0450275
-0.134563
0.0425157
-0.130651
0.0400927
-0.126806
0.0377795
-0.123027
0.0355449
-0.119307
0.0334101
-0.11566
0.031353
-0.112084
0.0293805
-0.10857
0.0274916
-0.105127
0.0256773
-0.101762
0.0239394
-0.0984587
0.0222673
-0.0952255
0.0206655
-0.0920644
0.0191289
-0.0889686
0.0176572
-0.0859453
0.0162453
-0.0829872
0.0148927
-0.0801012
0.0135992
-0.0772795
0.0123548
-0.0745243
0.0111642
-0.0718374
0.00223167
-0.195108
0.093894
-0.190812
0.0895176
-0.186507
0.0852556
-0.182173
0.0812044
-0.177918
0.0773186
-0.17361
0.0735514
-0.169355
0.0699737
-0.165145
0.0665102
-0.160949
0.0631808
-0.15679
0.0599857
-0.152667
0.0569088
-0.148592
0.0539552
-0.144558
0.0511163
-0.140586
0.048397
-0.136665
0.0457773
-0.132794
0.0432589
-0.128981
0.0408463
-0.125234
0.0385211
-0.121542
0.0362945
-0.117921
0.0341589
-0.114359
0.0321093
-0.110863
0.0301324
-0.107431
0.0282414
-0.104061
0.0264261
-0.100766
0.0246813
-0.0975313
0.023012
-0.094366
0.0214078
-0.0912676
0.0198687
-0.0882338
0.0183941
-0.0852669
0.0169788
-0.0823648
0.0156228
-0.079534
0.0143256
-0.0767625
0.0130822
-0.0740617
0.0118922
-0.0714191
0.0107459
-0.068841
0.00223542
-0.191154
0.0944803
-0.18704
0.0901229
-0.182915
0.0859256
-0.178811
0.0818933
-0.174689
0.0779755
-0.170526
0.0742343
-0.16644
0.0706367
-0.162355
0.067183
-0.158302
0.0638634
-0.154276
0.0606668
-0.150284
0.0576032
-0.146337
0.0546543
-0.142426
0.0518223
-0.138569
0.0490987
-0.134751
0.0464836
-0.130991
0.0439743
-0.127286
0.0415636
-0.123632
0.0392439
-0.120042
0.0370213
-0.116503
0.0348764
-0.113026
0.0328259
-0.109611
0.0308579
-0.106258
0.0289597
-0.102967
0.0271475
-0.0997455
0.0254058
-0.0965794
0.0237294
-0.0934768
0.0221228
-0.0904453
0.0205856
-0.087473
0.0191079
-0.0845625
0.0176896
-0.0817209
0.0163349
-0.0789405
0.0150293
-0.0762188
0.0137819
-0.0735625
0.012583
-0.0709687
0.0114418
-0.068439
0.0103438
-0.0659704
0.00223914
-0.18717
0.0950662
-0.183237
0.0906767
-0.179292
0.0864997
-0.17532
0.0824341
-0.171352
0.0785561
-0.167396
0.074846
-0.163466
0.0712597
-0.159534
0.0678158
-0.15562
0.064501
-0.15173
0.0613178
-0.147876
0.0582589
-0.144051
0.055317
-0.140258
0.052487
-0.136516
0.049769
-0.132812
0.0471594
-0.12916
0.0446521
-0.125553
0.0422419
-0.121997
0.039929
-0.118499
0.0377007
-0.11505
0.0355684
-0.111663
0.0335135
-0.10833
0.0315446
-0.105056
0.0296553
-0.101845
0.0278373
-0.098692
0.0260939
-0.095593
0.0244194
-0.0925626
0.0228151
-0.0895929
0.0212704
-0.0866772
0.0197898
-0.0838275
0.0183729
-0.0810412
0.0170099
-0.0783111
0.0157055
-0.0756486
0.014459
-0.0730413
0.0132607
-0.0704961
0.0121104
-0.0680098
0.0110126
-0.0655792
0.00995261
-0.0632062
0.00223814
-0.183153
0.095551
-0.179351
0.0911805
-0.175637
0.0870212
-0.171844
0.0830242
-0.168055
0.0791376
-0.164259
0.0754189
-0.160467
0.0718474
-0.156682
0.0684084
-0.152906
0.0651021
-0.149158
0.0619286
-0.14543
0.0588719
-0.141729
0.055937
-0.138061
0.0531202
-0.134439
0.0504105
-0.130846
0.0478029
-0.127296
0.0452962
-0.123793
0.0428915
-0.120337
0.0405814
-0.11693
0.03836
-0.113573
0.0362232
-0.110272
0.0341773
-0.107021
0.0322049
-0.103826
0.0303148
-0.100689
0.0284994
-0.0976072
0.0267525
-0.0945811
0.0250821
-0.0916187
0.0234756
-0.0887107
0.0219329
-0.0858608
0.020454
-0.0830716
0.0190339
-0.0803406
0.0176723
-0.0776651
0.0163639
-0.0750518
0.0151087
-0.0724887
0.0139064
-0.0699918
0.0127565
-0.0675487
0.0116493
-0.0651609
0.0105942
-0.0628349
0.00958131
-0.0605576
0.00223699
-0.179059
0.0959899
-0.175487
0.0916866
-0.171951
0.0874953
-0.168336
0.0835132
-0.164695
0.0796641
-0.161078
0.0759567
-0.157438
0.0723902
-0.153801
0.068966
-0.150171
0.0656731
-0.146558
0.0625031
-0.142962
0.0594597
-0.139385
0.0565282
-0.135838
0.0537135
-0.13233
0.0510108
-0.128843
0.0484074
-0.125406
0.0459125
-0.122004
0.0435071
-0.118644
0.041199
-0.115329
0.0389803
-0.112067
0.036854
-0.10885
0.034801
-0.105679
0.0328353
-0.102569
0.030948
-0.0995045
0.0291304
-0.0964953
0.0273875
-0.0935429
0.0257143
-0.0906457
0.0241091
-0.0877987
0.0225636
-0.0850097
0.0210817
-0.0822807
0.019663
-0.0796045
0.0182978
-0.0769833
0.0169905
-0.074424
0.0157361
-0.0719144
0.0145345
-0.0694609
0.0133754
-0.0670654
0.0122732
-0.0647201
0.0112085
-0.0624361
0.0101955
-0.0602006
0.00922432
-0.0580245
0.00224537
-0.174984
0.0964284
-0.171641
0.0921441
-0.168234
0.087969
-0.164811
0.0839698
-0.161329
0.0801469
-0.157868
0.0764544
-0.154384
0.0729027
-0.150894
0.0694834
-0.147405
0.0662004
-0.143928
0.0630425
-0.140461
0.0600026
-0.137014
0.057088
-0.13359
0.0542803
-0.130194
0.0515783
-0.12682
0.0489882
-0.123486
0.0464876
-0.120185
0.0440941
-0.116927
0.0417901
-0.113707
0.039577
-0.110535
0.0374485
-0.107402
0.0354059
-0.10432
0.0334417
-0.101282
0.0315486
-0.0982951
0.0297386
-0.0953647
0.0279997
-0.0924785
0.026323
-0.0896477
0.0247163
-0.086862
0.0231724
-0.0841381
0.0216921
-0.0814692
0.0202702
-0.0788476
0.0189062
-0.0762806
0.0175952
-0.0737702
0.0163367
-0.071309
0.0151307
-0.0689033
0.0139768
-0.0665555
0.0128655
-0.0642572
0.0118103
-0.0620151
0.0107875
-0.0598162
0.00981105
-0.0576764
0.00887618
-0.0555827
0.00224426
-0.17088
0.0968182
-0.167715
0.0925018
-0.164482
0.0883927
-0.161258
0.0844161
-0.157947
0.0805882
-0.154634
0.076912
-0.151301
0.0733716
-0.147962
0.0699708
-0.144618
0.0666962
-0.141276
0.0635481
-0.137937
0.0605189
-0.134615
0.0576042
-0.131309
0.0548071
-0.128026
0.0521121
-0.12477
0.0495276
-0.121542
0.0470439
-0.118347
0.0446497
-0.115179
0.0423463
-0.112054
0.0401374
-0.108971
0.0380131
-0.105927
0.0359733
-0.102924
0.0340096
-0.0999681
0.0321278
-0.0970636
0.030317
-0.0942007
0.0285746
-0.0913856
0.0269069
-0.0886209
0.0252963
-0.0859052
0.0237594
-0.0832418
0.022276
-0.0806277
0.0208506
-0.0780653
0.0194878
-0.0755522
0.0181778
-0.0730952
0.0169203
-0.070687
0.0157147
-0.068329
0.0145565
-0.0660238
0.0134452
-0.0637675
0.0123757
-0.0615622
0.0113575
-0.0594094
0.0103807
-0.0573057
0.0094404
-0.0552525
0.00854594
-0.0532464
0.00224775
-0.166788
0.0972091
-0.163807
0.0929103
-0.160771
0.0887903
-0.15768
0.0848151
-0.154534
0.0810035
-0.151381
0.0773359
-0.148198
0.073809
-0.145009
0.0704181
-0.141799
0.0671521
-0.138597
0.0640174
-0.135387
0.060998
-0.132194
0.0580975
-0.129009
0.0553039
-0.125843
0.0526244
-0.122698
0.0500407
-0.119572
0.0475576
-0.116473
0.045169
-0.11341
0.0428797
-0.110383
0.040675
-0.10739
0.0385563
-0.104429
0.0365158
-0.10151
0.0345598
-0.0986356
0.0326771
-0.0958
0.0308642
-0.0930132
0.0291295
-0.0902679
0.0274569
-0.0875694
0.0258553
-0.0849189
0.02431
-0.0823158
0.0228335
-0.0797659
0.0214143
-0.0772576
0.0200429
-0.0747982
0.0187338
-0.0723944
0.017477
-0.070034
0.0162673
-0.0677236
0.0151093
-0.0654655
0.0139982
-0.0632558
0.0129335
-0.0610969
0.0119104
-0.0589804
0.0109284
-0.0569126
0.00998762
-0.054895
0.00908287
-0.052924
0.00822352
-0.0510058
0.00224642
-0.162637
0.0974547
-0.159819
0.0932218
-0.156974
0.0891131
-0.154057
0.0851677
-0.151097
0.0813773
-0.148104
0.077726
-0.145076
0.074214
-0.142031
0.0708316
-0.138967
0.0675854
-0.135896
0.0644516
-0.132815
0.0614456
-0.129748
0.0585522
-0.126682
0.0557706
-0.123633
0.0530933
-0.120594
0.0505201
-0.117577
0.0480463
-0.114583
0.0456682
-0.111619
0.0433783
-0.108682
0.0411792
-0.105778
0.0390632
-0.102905
0.0370318
-0.100068
0.0350738
-0.0972711
0.0331953
-0.0945179
0.031395
-0.0918057
0.0296568
-0.089128
0.0279896
-0.0864991
0.0263867
-0.0839134
0.0248498
-0.0813746
0.0233688
-0.0788792
0.0219468
-0.0764248
0.0205815
-0.0740284
0.0192731
-0.0716728
0.0180121
-0.0693601
0.016803
-0.0671018
0.0156454
-0.0648904
0.0145342
-0.0627224
0.0134648
-0.0606
0.0124367
-0.0585244
0.0114544
-0.0564971
0.010513
-0.0545197
0.00961231
-0.0525886
0.00874743
-0.0506954
0.00791316
-0.0488511
0.00224992
-0.158483
0.0977483
-0.155859
0.0934946
-0.153174
0.0894221
-0.150437
0.0854929
-0.147641
0.0817125
-0.144803
0.0780761
-0.141931
0.0745803
-0.139029
0.0712115
-0.136108
0.0679725
-0.133169
0.0648584
-0.130227
0.0618631
-0.127281
0.0589782
-0.124337
0.0562073
-0.121403
0.0535406
-0.118474
0.0509731
-0.115564
0.0485063
-0.112673
0.0461361
-0.109804
0.0438532
-0.106962
0.0416583
-0.104144
0.0395452
-0.10136
0.037518
-0.0986091
0.0355726
-0.0958943
0.033697
-0.0932123
0.0318897
-0.0905664
0.0301556
-0.0879633
0.0284921
-0.0853992
0.0268897
-0.0828796
0.0253529
-0.0803993
0.0238745
-0.0779682
0.0224578
-0.0755716
0.0210936
-0.0732284
0.0197814
-0.0709255
0.0185258
-0.068665
0.0173171
-0.0664539
0.0161552
-0.0642843
0.0150394
-0.0621628
0.0139746
-0.0600862
0.0129509
-0.0580559
0.0119682
-0.0560643
0.0110215
-0.054122
0.0101153
-0.0522257
0.00924944
-0.050367
0.00841903
-0.048557
0.00761909
-0.0467869
0.00224848
-0.154305
0.0979437
-0.151864
0.0937536
-0.149368
0.0896887
-0.146796
0.0857808
-0.144169
0.0820203
-0.14149
0.0784001
-0.138765
0.0749103
-0.13601
0.0715613
-0.133232
0.0683357
-0.130427
0.0652302
-0.127616
0.062247
-0.124792
0.0593742
-0.121968
0.056609
-0.119143
0.053948
-0.116326
0.0513926
-0.113526
0.048935
-0.110739
0.0465718
-0.107964
0.0442967
-0.105219
0.0421097
-0.102493
0.0400072
-0.0997974
0.0379828
-0.0971229
0.0360318
-0.0944856
0.0341639
-0.0918832
0.0323679
-0.0893182
0.0306415
-0.0867849
0.0289772
-0.084287
0.0273798
-0.0818308
0.0258409
-0.0794152
0.0243688
-0.0770367
0.022943
-0.0746985
0.0215847
-0.0724129
0.0202781
-0.0701624
0.0190184
-0.0679492
0.0178101
-0.0657899
0.016653
-0.0636665
0.0155373
-0.0615862
0.0144628
-0.0595505
0.0134389
-0.057556
0.012451
-0.0556093
0.0115133
-0.0537069
0.0106064
-0.0518452
0.00973487
-0.0500163
0.00889868
-0.0482402
0.00810221
-0.0465039
0.00733602
-0.0448083
0.00224698
-0.15014
0.0981893
-0.147891
0.0939703
-0.145541
0.0899266
-0.143142
0.086035
-0.140679
0.0822907
-0.138153
0.0786828
-0.135584
0.0752191
-0.132978
0.0718787
-0.130336
0.0686653
-0.127667
0.0655755
-0.124986
0.0626009
-0.122283
0.0597388
-0.119581
0.056987
-0.116877
0.054343
-0.11417
0.0517919
-0.111472
0.0493387
-0.108783
0.0469798
-0.106106
0.0447139
-0.103455
0.0425325
-0.100817
0.0404343
-0.0982031
0.0384129
-0.0956195
0.0364795
-0.0930633
0.0346095
-0.0905369
0.0328177
-0.0880369
0.0310866
-0.0855733
0.02943
-0.0831452
0.0278354
-0.0807572
0.0263063
-0.078405
0.0248307
-0.076085
0.023417
-0.0738098
0.0220544
-0.0715721
0.0207438
-0.0693691
0.0194847
-0.0672126
0.0182818
-0.0650998
0.01712
-0.0630228
0.0160093
-0.0609884
0.0149395
-0.0589981
0.0139105
-0.0570439
0.0129268
-0.0551372
0.0119789
-0.0532648
0.0110712
-0.0514377
0.0101989
-0.0496477
0.00936634
-0.0479103
0.00856873
-0.0462027
0.00780105
-0.0445357
0.00706341
-0.0429103
0.00225013
-0.145941
0.098326
-0.143853
0.094151
-0.141703
0.0901322
-0.13947
0.0862541
-0.137168
0.0825248
-0.134804
0.0789417
-0.132384
0.075483
-0.12992
0.072161
-0.127418
0.0689612
-0.124886
0.0658849
-0.122332
0.0629211
-0.11976
0.0600773
-0.117176
0.0573336
-0.114581
0.0546904
-0.111982
0.0521549
-0.109392
0.0497124
-0.106809
0.0473641
-0.104231
0.0451039
-0.10167
0.042929
-0.0991235
0.0408386
-0.0966002
0.0388313
-0.094099
0.0368923
-0.091614
0.0350302
-0.0891673
0.0332399
-0.086742
0.0315227
-0.084353
0.0298663
-0.0819883
0.0282732
-0.0796652
0.0267433
-0.0773715
0.0252727
-0.0751134
0.0238592
-0.0728912
0.0224985
-0.0707114
0.0211938
-0.0685652
0.01994
-0.0664602
0.0187324
-0.0643889
0.0175709
-0.0623628
0.01646
-0.0603691
0.01539
-0.0584242
0.0143655
-0.0565103
0.0133768
-0.0546385
0.0124281
-0.0528103
0.0115244
-0.0510176
0.0106511
-0.0492664
0.00981755
-0.0475531
0.0090092
-0.0458743
0.00824032
-0.0442405
0.0075058
-0.0426478
0.00680087
-0.0410833
0.00224862
-0.141731
0.0984608
-0.139827
0.0943004
-0.137846
0.0902941
-0.135786
0.0864486
-0.133652
0.0827377
-0.131439
0.0791597
-0.12917
0.075728
-0.126856
0.0724183
-0.124496
0.0692383
-0.122099
0.0661742
-0.119671
0.0632238
-0.117222
0.0603832
-0.114753
0.0576543
-0.112273
0.0550253
-0.109787
0.0524956
-0.107301
0.0500637
-0.10482
0.0477234
-0.102338
0.0454711
-0.0998692
0.0433033
-0.0974102
0.0412158
-0.094973
0.0392114
-0.0925528
0.0372852
-0.0901511
0.0354295
-0.0877792
0.033642
-0.0854299
0.0319278
-0.0831045
0.0302742
-0.0808144
0.0286923
-0.0785533
0.0271613
-0.0763217
0.0256935
-0.0741234
0.0242827
-0.0719596
0.0229275
-0.0698352
0.0216222
-0.0677408
0.0203693
-0.0656824
0.0191622
-0.0636621
0.0180056
-0.0616817
0.0168898
-0.0597336
0.0158245
-0.0578289
0.0147947
-0.0559549
0.0138101
-0.0541274
0.0128658
-0.0523339
0.0119517
-0.0505754
0.0110822
-0.0488628
0.0102476
-0.0471784
0.00944282
-0.0455376
0.00867248
-0.0439366
0.00793649
-0.0423673
0.00722527
-0.0408304
0.006548
-0.0393412
0.00225159
-0.13749
0.0985607
-0.135779
0.0944124
-0.133985
0.0904387
-0.13209
0.0865981
-0.130112
0.0829085
-0.12806
0.0793588
-0.125947
0.0759358
-0.123773
0.072646
-0.121548
0.0694705
-0.119281
0.0664199
-0.116987
0.0634902
-0.114661
0.0606631
-0.112313
0.0579436
-0.109945
0.0553267
-0.107573
0.0528113
-0.105194
0.0503887
-0.102805
0.0480492
-0.100425
0.0458111
-0.0980479
0.0436498
-0.0956799
0.0415729
-0.0933336
0.0395764
-0.0909932
0.0376518
-0.0886725
0.0358066
-0.0863753
0.0340256
-0.0840994
0.0323115
-0.0818424
0.0306657
-0.0796207
0.0290805
-0.0774195
0.0275585
-0.0752512
0.0260909
-0.0731149
0.0246851
-0.0710055
0.0233286
-0.0689346
0.0220269
-0.0668916
0.020773
-0.0648889
0.0195758
-0.0629193
0.0184194
-0.0609847
0.0173085
-0.0590818
0.016238
-0.0572171
0.0152127
-0.0553878
0.0142276
-0.0535998
0.0132825
-0.0518405
0.0123724
-0.0501207
0.0114971
-0.0484372
0.0106566
-0.0467909
0.00986006
-0.0451832
0.00908843
-0.0436104
0.0083462
-0.0420641
0.00763332
-0.0405642
0.00695905
-0.0390976
0.00630441
-0.0376604
0.00224977
-0.133269
0.0986157
-0.131728
0.0945105
-0.130114
0.0905423
-0.128381
0.0867301
-0.126568
0.0830541
-0.124671
0.0795194
-0.122703
0.0761149
-0.120675
0.0728373
-0.118588
0.0696866
-0.116462
0.0666518
-0.114295
0.063728
-0.112084
0.060913
-0.109859
0.0582091
-0.107603
0.0556017
-0.105338
0.053092
-0.103063
0.0506802
-0.10078
0.0483634
-0.0984958
0.0461198
-0.0962109
0.0439741
-0.0939388
0.0419087
-0.0916722
0.0399116
-0.0894115
0.0379948
-0.0871705
0.0361498
-0.0849468
0.034378
-0.0827455
0.0326718
-0.0805632
0.0310323
-0.0784036
0.0294487
-0.0762708
0.0279317
-0.0741681
0.0264753
-0.0720889
0.0250648
-0.0700379
0.0237174
-0.068024
0.022418
-0.0660359
0.0211712
-0.06408
0.0199641
-0.0621561
0.0188125
-0.0602668
0.0177015
-0.0584088
0.0166355
-0.056589
0.0156099
-0.0547991
0.014624
-0.0530503
0.0136781
-0.05133
0.012772
-0.0496491
0.0119007
-0.047999
0.0110588
-0.0463859
0.0102516
-0.0448065
0.00948337
-0.0432616
0.00873972
-0.0417525
0.00803462
-0.0402801
0.00734916
-0.0388312
0.00669262
-0.0374255
0.00606958
-0.0360546
0.00225253
-0.129022
0.0986506
-0.127677
0.0945639
-0.126221
0.0906172
-0.124664
0.0868249
-0.123012
0.0831738
-0.121274
0.0796576
-0.119455
0.0762716
-0.117571
0.0730112
-0.115624
0.0698727
-0.113626
0.06685
-0.111583
0.0639397
-0.1095
0.0611441
-0.107391
0.0584447
-0.105248
0.0558543
-0.103097
0.0533603
-0.100927
0.0509565
-0.0987403
0.0486405
-0.0965486
0.0464161
-0.0943631
0.0442721
-0.0921757
0.042211
-0.0899889
0.0402254
-0.0878178
0.0383178
-0.0856564
0.0364807
-0.0835123
0.0347154
-0.0813796
0.033012
-0.0792705
0.0313791
-0.077178
0.0298067
-0.0751121
0.0282899
-0.0730679
0.0268316
-0.0710458
0.0254323
-0.0690567
0.0240837
-0.0670923
0.0227857
-0.0651563
0.0215384
-0.0632503
0.0203415
-0.061377
0.0191851
-0.0595329
0.0180787
-0.0577198
0.0170125
-0.0559446
0.0159911
-0.0541988
0.0150096
-0.0524844
0.0140581
-0.0508029
0.013151
-0.0491555
0.0122785
-0.0475435
0.0114453
-0.0459639
0.0106368
-0.0444171
0.00986222
-0.0429001
0.00912181
-0.0414232
0.00841043
-0.0399733
0.0077279
-0.0385562
0.00707415
-0.037182
0.00644907
-0.0358283
0.00584324
-0.0345098
0.00225064
-0.124778
0.098654
-0.123598
0.0945724
-0.122322
0.0906649
-0.120941
0.0868938
-0.119446
0.0832598
-0.117864
0.0797635
-0.116193
0.0763961
-0.114447
0.0731478
-0.112639
0.0700265
-0.110779
0.0670259
-0.108863
0.0641301
-0.106902
0.0613416
-0.104906
0.0586594
-0.102882
0.0560784
-0.100835
0.0535924
-0.0987663
0.0511993
-0.0966801
0.0488963
-0.0945941
0.0466861
-0.0924983
0.0445513
-0.0903969
0.0424933
-0.0882997
0.0405218
-0.0862146
0.0386222
-0.0841316
0.0367929
-0.0820608
0.0350292
-0.0800001
0.0333359
-0.0779581
0.0316996
-0.0759291
0.0301302
-0.0739302
0.0286247
-0.071948
0.0271701
-0.0699865
0.0257723
-0.0680532
0.0244287
-0.0661409
0.0231323
-0.0642606
0.02189
-0.0624051
0.0206932
-0.0605777
0.0195422
-0.0587833
0.0184355
-0.0570149
0.0173737
-0.0552838
0.0163517
-0.0535773
0.0153696
-0.0519019
0.0144271
-0.0502637
0.013519
-0.0486499
0.0126454
-0.0470711
0.0118061
-0.0455243
0.0110057
-0.0440102
0.0102299
-0.0425258
0.00948791
-0.0410763
0.00877489
-0.0396536
0.00809069
-0.0382681
0.00743976
-0.0369158
0.00680801
-0.0355885
0.00620923
-0.0342961
0.00562953
-0.033035
0.00225315
-0.120522
0.098619
-0.119532
0.0945875
-0.118435
0.0906851
-0.117208
0.0869326
-0.115873
0.0833198
-0.114443
0.0798393
-0.11292
0.0764905
-0.111318
0.073267
-0.109653
0.0701615
-0.107919
0.0671669
-0.106125
0.0642881
-0.104294
0.0615218
-0.102418
0.0588539
-0.100505
0.0562823
-0.0985635
0.0538071
-0.0966021
0.0514283
-0.0946168
0.049136
-0.0926254
0.0469275
-0.0906143
0.0448021
-0.0886074
0.0427618
-0.0865998
0.0407934
-0.0845868
0.038894
-0.0825821
0.0370727
-0.0805834
0.0353155
-0.0786023
0.0336314
-0.0766287
0.0320065
-0.0746716
0.0304421
-0.0727334
0.0289334
-0.0708098
0.0274865
-0.0689103
0.0260938
-0.0670376
0.0247567
-0.0651809
0.0234688
-0.0633549
0.0222266