/*--------------------------------*- C++ -*----------------------------------*\
  =========                 |
  \\      /  F ield         | OpenFOAM: The Open Source CFD Toolbox
   \\    /   O peration     | Website:  https://openfoam.org
    \\  /    A nd           | Version:  7
     \\/     M anipulation  |
\*---------------------------------------------------------------------------*/
FoamFile
{
    version     2.0;
    format      ascii;
    class       volVectorField;
    location    "1200";
    object      U;
}
// * * * * * * * * * * * * * * * * * * * * * * * * * * * * * * * * * * * * * //

dimensions      [0 1 -1 0 0 0 0];

internalField   nonuniform List<vector> 
23052
(
(49.5473 12.9221 -3.13827e-17)
(49.5822 12.9462 0)
(49.6407 13.1113 1.28492e-17)
(49.607 12.9718 0)
(49.6328 13.1084 5.11073e-17)
(49.6015 13.1076 6.81417e-18)
(49.6218 12.9973 1.33649e-17)
(49.6311 13.1108 5.86414e-19)
(49.6132 13.1192 -7.2264e-18)
(49.6102 13.1001 2.31139e-17)
(49.6319 13.0215 9.55018e-17)
(49.6335 13.1168 -7.91089e-17)
(49.621 13.1292 -1.42808e-17)
(49.6094 13.1074 1.53072e-17)
(49.5976 13.1057 8.18688e-18)
(49.587 13.0968 8.87182e-18)
(49.6387 13.0441 -2.22338e-18)
(49.6368 13.1248 0)
(49.6263 13.1388 -9.50517e-17)
(49.6105 13.1159 1.4877e-17)
(49.5987 13.1142 2.43925e-17)
(49.5846 13.1055 2.61952e-17)
(49.5655 13.0927 -2.26636e-18)
(49.5469 13.0846 0)
(49.6435 13.065 1.77513e-17)
(49.6402 13.1338 1.28657e-16)
(49.6304 13.1483 1.08438e-16)
(49.6124 13.1252 -6.0748e-17)
(49.5995 13.1227 -1.3004e-16)
(49.5838 13.1146 -6.99992e-17)
(49.5647 13.1025 9.32307e-18)
(49.5457 13.0901 -2.52019e-18)
(49.5214 13.08 1.51467e-21)
(49.6472 13.0843 -1.3053e-16)
(49.6432 13.1433 -1.28542e-16)
(49.6337 13.1578 -5.46467e-17)
(49.6144 13.1349 4.53862e-17)
(49.6002 13.1314 -1.61678e-17)
(49.5833 13.1238 5.25904e-17)
(49.5639 13.1122 -9.56953e-18)
(49.5435 13.1001 0)
(49.5204 13.086 0)
(49.4951 13.0756 0)
(49.65 13.1022 1.95104e-17)
(49.6457 13.1529 0)
(49.6365 13.1672 2.66976e-17)
(49.6164 13.1446 2.90067e-17)
(49.6009 13.1402 -4.80517e-17)
(49.5832 13.133 -5.20668e-17)
(49.5631 13.1219 -9.33057e-17)
(49.5419 13.1103 -2.01554e-17)
(49.5185 13.0968 0)
(49.4939 13.0819 -2.3665e-17)
(49.4658 13.0708 -2.85901e-20)
(49.6523 13.1185 -2.53368e-16)
(49.6478 13.1624 0)
(49.6389 13.1765 0)
(49.6181 13.1544 -1.19061e-16)
(49.6016 13.1492 1.44627e-16)
(49.5832 13.1423 8.66024e-17)
(49.5625 13.1316 7.47356e-17)
(49.5406 13.1204 -4.00884e-17)
(49.5168 13.1075 -1.07209e-17)
(49.4915 13.0931 3.55778e-17)
(49.4645 13.0774 -2.8755e-17)
(49.4348 13.0659 2.60071e-20)
(49.6544 13.1337 2.0383e-16)
(49.6495 13.1717 0)
(49.6408 13.1856 -1.83077e-16)
(49.6197 13.1642 8.90001e-17)
(49.6023 13.1583 0)
(49.5834 13.1516 1.19997e-16)
(49.562 13.1413 -1.82658e-17)
(49.5395 13.1304 8.02931e-17)
(49.5153 13.1182 0)
(49.4895 13.1044 5.87471e-17)
(49.4622 13.0893 1.29294e-17)
(49.4335 13.0728 6.88899e-18)
(49.4018 13.0609 0)
(49.6562 13.1478 -3.9318e-17)
(49.6509 13.1808 5.48319e-17)
(49.6425 13.1945 -2.63603e-17)
(49.6212 13.1738 -2.85333e-17)
(49.603 13.1673 3.13549e-17)
(49.5835 13.1609 -6.13659e-19)
(49.5616 13.1509 1.47468e-16)
(49.5386 13.1405 -2.02805e-17)
(49.514 13.1288 -8.60914e-17)
(49.4878 13.1156 -1.43696e-19)
(49.4601 13.1011 5.08639e-17)
(49.431 13.0853 0)
(49.4005 13.0681 -3.65137e-18)
(49.3672 13.0558 0)
(49.6579 13.1607 -2.48873e-16)
(49.652 13.1895 0)
(49.644 13.203 1.82989e-16)
(49.6224 13.1832 2.84264e-17)
(49.6037 13.1763 0)
(49.5837 13.1701 -2.72077e-16)
(49.5614 13.1605 -1.47459e-16)
(49.5379 13.1504 2.01919e-17)
(49.5128 13.1393 1.07125e-16)
(49.4863 13.1267 -7.01195e-17)
(49.4583 13.1128 -1.59847e-19)
(49.4288 13.0977 -6.77629e-17)
(49.3979 13.0812 7.51528e-18)
(49.3659 13.0635 2.00834e-17)
(49.3309 13.0507 -3.8755e-20)
(49.6596 13.1728 -4.75889e-17)
(49.653 13.1979 -5.07693e-17)
(49.6452 13.2113 2.71128e-17)
(49.6235 13.1924 5.8067e-17)
(49.6043 13.1852 0)
(49.584 13.1792 6.57623e-19)
(49.5612 13.17 0)
(49.5373 13.1603 -1.57872e-16)
(49.5119 13.1497 -8.45896e-17)
(49.4849 13.1377 2.35034e-17)
(49.4566 13.1245 -1.38039e-16)
(49.4269 13.11 1.22111e-16)
(49.3958 13.0942 4.3685e-17)
(49.3632 13.0771 -1.56734e-17)
(49.3295 13.0588 -8.6578e-18)
(49.293 13.0457 4.29559e-20)
(49.6612 13.1839 2.48737e-16)
(49.6539 13.2059 2.09263e-16)
(49.6463 13.2192 5.28966e-17)
(49.6245 13.2013 -2.82511e-17)
(49.6049 13.194 -3.09889e-17)
(49.5842 13.1882 1.69679e-16)
(49.5611 13.1794 -3.70829e-17)
(49.5368 13.1701 7.29189e-19)
(49.511 13.16 1.06893e-16)
(49.4838 13.1486 6.91583e-17)
(49.4552 13.136 7.5233e-17)
(49.4251 13.1222 -4.07313e-17)
(49.3937 13.1071 -1.16318e-16)
(49.361 13.0908 7.51429e-18)
(49.3269 13.0731 -8.45422e-18)
(49.2916 13.0541 4.59165e-18)
(49.2536 13.0407 -4.52044e-20)
(49.6628 13.1943 -2.05957e-16)
(49.6547 13.2136 -2.06426e-16)
(49.6473 13.2268 1.06939e-16)
(49.6254 13.21 -2.95622e-17)
(49.6054 13.2027 2.50127e-16)
(49.5845 13.1971 1.34208e-16)
(49.5611 13.1887 -2.17732e-16)
(49.5364 13.1799 1.95965e-16)
(49.5103 13.1702 -1.69063e-16)
(49.4828 13.1594 -1.37635e-16)
(49.4539 13.1474 2.52043e-17)
(49.4236 13.1342 -7.97618e-17)
(49.392 13.1199 7.30082e-17)
(49.359 13.1042 -1.54953e-17)
(49.3246 13.0873 2.5818e-17)
(49.289 13.0691 0)
(49.2522 13.0495 1.50107e-17)
(49.2126 13.0357 5.01064e-20)
(49.6644 13.204 2.56217e-16)
(49.6555 13.2209 0)
(49.6481 13.2341 5.39441e-17)
(49.6263 13.2184 -2.58332e-16)
(49.6059 13.2111 -2.517e-16)
(49.5848 13.2059 -1.68591e-16)
(49.5611 13.1979 2.89686e-16)
(49.5361 13.1895 -1.23299e-18)
(49.5098 13.1803 8.39723e-19)
(49.482 13.17 0)
(49.4528 13.1587 2.42772e-17)
(49.4223 13.1462 8.07295e-17)
(49.3904 13.1325 -4.31638e-17)
(49.3571 13.1176 -6.20251e-17)
(49.3226 13.1014 0)
(49.2867 13.084 -9.68924e-20)
(49.2495 13.0651 -9.86979e-18)
(49.2113 13.045 5.58017e-18)
(49.1702 13.0308 -5.27717e-20)
(49.666 13.2131 -3.18584e-16)
(49.6562 13.2279 1.52651e-16)
(49.6489 13.2411 0)
(49.6271 13.2265 4.07048e-16)
(49.6064 13.2194 -3.07398e-17)
(49.5851 13.2145 6.70327e-17)
(49.5612 13.207 3.47232e-17)
(49.5359 13.199 0)
(49.5093 13.1903 2.10062e-16)
(49.4813 13.1806 -1.81258e-16)
(49.4519 13.1699 0)
(49.4211 13.158 -1.06052e-16)
(49.389 13.145 0)
(49.3555 13.1308 9.37175e-17)
(49.3207 13.1154 3.36596e-17)
(49.2847 13.0987 -1.10058e-16)
(49.2473 13.0807 6.9553e-17)
(49.2086 13.0613 -2.14284e-17)
(49.1688 13.0405 -2.93452e-17)
(49.1262 13.026 -2.03382e-21)
(49.6676 13.2214 4.51334e-16)
(49.657 13.2346 -2.10589e-16)
(49.6496 13.2477 0)
(49.6278 13.2343 5.73699e-17)
(49.6069 13.2275 0)
(49.5854 13.2229 -3.39072e-17)
(49.5613 13.2159 -1.43243e-16)
(49.5358 13.2083 1.54873e-16)
(49.509 13.2002 0)
(49.4807 13.1911 1.81523e-16)
(49.4511 13.1809 0)
(49.4201 13.1697 7.9176e-17)
(49.3878 13.1574 -2.91607e-17)
(49.3541 13.1439 3.1601e-17)
(49.3191 13.1292 -1.51158e-16)
(49.2828 13.1133 1.82419e-17)
(49.2452 13.0961 -5.99074e-17)
(49.2063 13.0775 5.39809e-17)
(49.1661 13.0575 -2.02798e-19)
(49.1248 13.0361 1.92336e-17)
(49.0807 13.0213 1.21069e-19)
(49.6692 13.2293 -3.64345e-16)
(49.6578 13.241 -4.65636e-16)
(49.6503 13.2541 -2.61824e-16)
(49.6285 13.2419 -1.41587e-18)
(49.6074 13.2353 -2.97445e-17)
(49.5857 13.2311 0)
(49.5615 13.2247 7.18169e-17)
(49.5358 13.2176 -1.93428e-16)
(49.5088 13.21 0)
(49.4803 13.2014 0)
(49.4505 13.1919 -1.94406e-16)
(49.4193 13.1813 2.68173e-17)
(49.3867 13.1697 -8.57453e-17)
(49.3529 13.1569 6.18498e-17)
(49.3177 13.143 3.41899e-17)
(49.2812 13.1278 9.13029e-17)
(49.2434 13.1114 0)
(49.2043 13.0936 -2.1854e-17)
(49.1639 13.0745 4.64528e-17)
(49.1222 13.0539 1.24336e-17)
(49.0794 13.0319 -1.35279e-17)
(49.0337 13.0166 6.47733e-21)
(49.6708 13.2366 4.07913e-16)
(49.6586 13.2472 8.83188e-16)
(49.651 13.2602 3.06863e-19)
(49.6292 13.2491 -2.31175e-16)
(49.6078 13.243 2.7895e-16)
(49.586 13.2392 1.98326e-16)
(49.5617 13.2333 0)
(49.5358 13.2267 1.15873e-16)
(49.5086 13.2196 0)
(49.48 13.2116 1.33494e-16)
(49.45 13.2027 3.88422e-16)
(49.4186 13.1927 0)
(49.3859 13.1818 8.59714e-17)
(49.3518 13.1697 0)
(49.3165 13.1565 -1.65799e-16)
(49.2798 13.1421 0)
(49.2418 13.1265 -1.92821e-17)
(49.2025 13.1095 0)
(49.1619 13.0913 -5.81383e-17)
(49.1199 13.0716 -1.28123e-17)
(49.0767 13.0504 0)
(49.0323 13.0277 -7.58473e-18)
(48.9851 13.012 -6.94353e-20)
(49.6725 13.2435 7.75604e-18)
(49.6594 13.253 -8.33444e-16)
(49.6516 13.266 1.56781e-16)
(49.6299 13.2561 5.60954e-17)
(49.6084 13.2504 -2.48708e-16)
(49.5864 13.2471 -2.98825e-16)
(49.562 13.2417 -2.49475e-16)
(49.536 13.2356 -3.07918e-16)
(49.5086 13.2291 0)
(49.4798 13.2217 -1.7972e-16)
(49.4496 13.2133 -3.39423e-16)
(49.4181 13.2041 2.08608e-16)
(49.3852 13.1938 0)
(49.351 13.1824 1.22195e-16)
(49.3155 13.17 1.66875e-16)
(49.2786 13.1563 0)
(49.2404 13.1415 7.78718e-17)
(49.2009 13.1253 1.06114e-16)
(49.1601 13.1079 2.34391e-17)
(49.1179 13.0891 1.22854e-17)
(49.0745 13.0688 -4.93444e-19)
(49.0296 13.0469 0)
(48.9837 13.0236 -1.63627e-17)
(48.9349 13.0075 -7.7867e-20)
(49.6741 13.2498 4.43057e-16)
(49.6602 13.2586 4.1598e-16)
(49.6523 13.2715 -2.63121e-16)
(49.6306 13.2628 0)
(49.6089 13.2576 6.26838e-17)
(49.5868 13.2547 3.36171e-17)
(49.5623 13.2499 2.85941e-16)
(49.5362 13.2444 4.21075e-16)
(49.5087 13.2384 0)
(49.4797 13.2316 -1.78004e-16)
(49.4494 13.2239 1.93489e-16)
(49.4177 13.2153 -2.77902e-17)
(49.3847 13.2057 0)
(49.3503 13.195 -1.22378e-16)
(49.3146 13.1833 0)
(49.2776 13.1704 -3.52239e-17)
(49.2392 13.1563 -5.80934e-17)
(49.1995 13.141 -8.44966e-17)
(49.1585 13.1244 -2.24936e-17)
(49.1162 13.1064 -8.67105e-17)
(49.0725 13.087 0)
(49.0274 13.0661 1.44386e-17)
(48.981 13.0436 1.60151e-17)
(48.9335 13.0196 1.74205e-17)
(48.883 13.003 -3.03704e-21)
(49.6757 13.2558 4.47828e-17)
(49.6611 13.2639 0)
(49.6529 13.2769 5.22418e-16)
(49.6313 13.2693 5.60935e-17)
(49.6094 13.2646 0)
(49.5873 13.2622 1.64563e-16)
(49.5627 13.258 -7.11542e-17)
(49.5364 13.253 -3.07454e-16)
(49.5088 13.2476 4.066e-17)
(49.4798 13.2414 3.561e-16)
(49.4493 13.2343 0)
(49.4175 13.2263 -2.34842e-16)
(49.3844 13.2174 -1.96329e-16)
(49.3498 13.2074 0)
(49.314 13.1964 -3.35083e-17)
(49.2768 13.1843 0)
(49.2383 13.171 0)
(49.1984 13.1565 6.30615e-17)
(49.1572 13.1407 9.08479e-17)
(49.1146 13.1236 1.4824e-16)
(49.0707 13.1051 2.68927e-17)
(49.0254 13.0851 0)
(48.9788 13.0636 -1.61908e-17)
(48.9308 13.0405 -4.33254e-17)
(48.8816 13.0157 -9.24792e-18)
(48.8295 12.9986 -3.28744e-21)
(49.6773 13.2614 -7.95816e-16)
(49.662 13.269 -5.3559e-17)
(49.6536 13.282 -2.3725e-18)
(49.6321 13.2755 3.43172e-16)
(49.61 13.2714 0)
(49.5878 13.2695 -2.31412e-16)
(49.5631 13.2659 3.17723e-16)
(49.5368 13.2615 3.42171e-16)
(49.5091 13.2567 0)
(49.4799 13.251 -1.7818e-16)
(49.4494 13.2446 -2.39742e-16)
(49.4174 13.2372 5.26678e-17)
(49.3842 13.229 2.5215e-16)
(49.3495 13.2197 3.08207e-17)
(49.3135 13.2094 3.33757e-17)
(49.2762 13.1981 7.10949e-17)
(49.2375 13.1856 1.14351e-16)
(49.1975 13.1719 -2.29045e-16)
(49.1561 13.1569 -1.58171e-16)
(49.1133 13.1407 -4.72989e-19)
(49.0692 13.123 0)
(49.0237 13.104 4.36917e-17)
(48.9769 13.0834 -7.91276e-17)
(48.9286 13.0612 5.13025e-17)
(48.8789 13.0374 -2.81422e-17)
(48.8281 13.0118 -1.53514e-17)
(48.7742 12.9943 1.93287e-19)
(49.6789 13.2666 4.52078e-18)
(49.663 13.2738 3.64009e-16)
(49.6543 13.2868 -8.42619e-16)
(49.6328 13.2814 -2.30312e-16)
(49.6106 13.278 1.85135e-16)
(49.5883 13.2766 0)
(49.5636 13.2736 -3.55232e-16)
(49.5372 13.2698 -2.3319e-18)
(49.5094 13.2655 0)
(49.4802 13.2605 0)
(49.4495 13.2547 2.40387e-16)
(49.4175 13.248 5.08052e-17)
(49.3841 13.2404 1.67465e-16)
(49.3494 13.2319 3.07105e-17)
(49.3133 13.2223 1.12123e-18)
(49.2758 13.2117 -3.47925e-17)
(49.237 13.2 -3.85971e-17)
(49.1968 13.1871 6.29803e-17)
(49.1552 13.173 6.82784e-17)
(49.1123 13.1576 -1.22233e-16)
(49.068 13.1408 -7.89949e-17)
(49.0223 13.1227 -5.79061e-17)
(48.9752 13.103 4.69364e-17)
(48.9267 13.0819 -5.1382e-17)
(48.8767 13.059 3.72279e-17)
(48.8254 13.0344 1.01296e-17)
(48.7728 13.0081 5.40957e-18)
(48.7171 12.99 -2.08989e-19)
(49.6806 13.2715 4.01902e-16)
(49.6639 13.2784 -4.20856e-16)
(49.6549 13.2915 5.65868e-17)
(49.6336 13.2872 -5.82388e-17)
(49.6113 13.2843 -1.85212e-16)
(49.5889 13.2835 6.67983e-17)
(49.5642 13.2811 0)
(49.5377 13.2779 -5.3254e-16)
(49.5099 13.2743 0)
(49.4806 13.2699 -1.31036e-16)
(49.4498 13.2647 -4.84495e-17)
(49.4177 13.2587 -5.06528e-17)
(49.3842 13.2518 -4.73119e-16)
(49.3494 13.2439 0)
(49.3132 13.2351 -3.20145e-17)
(49.2756 13.2252 -3.46627e-17)
(49.2366 13.2143 -1.5321e-16)
(49.1963 13.2022 1.66082e-16)
(49.1546 13.1889 -2.2073e-17)
(49.1115 13.1743 2.48264e-17)
(49.067 13.1585 2.38609e-16)
(49.0211 13.1412 5.71407e-17)
(48.9737 13.1225 6.23162e-17)
(48.925 13.1023 1.69801e-16)
(48.8748 13.0805 -5.48895e-17)
(48.8232 13.0569 0)
(48.77 13.0316 0)
(48.7156 13.0044 -1.18919e-17)
(48.6582 12.9858 -1.15697e-19)
(49.6821 13.2761 3.47326e-16)
(49.6649 13.2829 0)
(49.6557 13.296 4.23927e-16)
(49.6344 13.2927 -5.12684e-16)
(49.612 13.2905 -1.61969e-18)
(49.5895 13.2902 1.6646e-18)
(49.5648 13.2885 -1.05493e-16)
(49.5383 13.2859 4.10684e-17)
(49.5104 13.2828 -8.1814e-17)
(49.481 13.2791 5.72571e-16)
(49.4502 13.2745 9.41948e-17)
(49.418 13.2692 5.0509e-17)
(49.3845 13.2629 2.22552e-16)
(49.3495 13.2558 5.99985e-17)
(49.3132 13.2477 0)
(49.2755 13.2386 3.57544e-17)
(49.2365 13.2284 3.87418e-17)
(49.196 13.2171 0)
(49.1541 13.2046 0)
(49.1109 13.191 -1.21479e-16)
(49.0662 13.176 -2.36551e-16)
(49.0201 13.1596 -2.86029e-16)
(48.9726 13.1419 -1.55729e-16)
(48.9236 13.1226 -3.1369e-19)
(48.8731 13.1017 5.55583e-17)
(48.8212 13.0792 7.33452e-19)
(48.7678 13.055 0)
(48.7129 13.0288 -2.07085e-19)
(48.6567 13.0008 0)
(48.5973 12.9815 -9.00275e-21)
(49.6837 13.2804 3.80286e-17)
(49.666 13.2871 -3.65027e-16)
(49.6564 13.3002 5.39376e-17)
(49.6352 13.298 4.60156e-16)
(49.6127 13.2965 3.0751e-16)
(49.5901 13.2967 -1.3005e-16)
(49.5654 13.2957 -6.9551e-17)
(49.5389 13.2937 3.99598e-17)
(49.511 13.2913 -8.1641e-17)
(49.4816 13.2881 -6.5972e-16)
(49.4507 13.2842 -9.64117e-17)
(49.4185 13.2795 5.03734e-17)
(49.3849 13.274 0)
(49.3499 13.2675 3.04083e-17)
(49.3135 13.2602 -2.89451e-16)
(49.2757 13.2518 -3.56303e-17)
(49.2365 13.2424 1.52424e-16)
(49.1959 13.2319 -2.04162e-16)
(49.1539 13.2203 -2.22964e-16)
(49.1105 13.2074 9.69162e-17)
(49.0657 13.1933 1.30933e-16)
(49.0194 13.1779 1.14165e-16)
(48.9717 13.161 1.54374e-16)
(48.9224 13.1427 -1.51498e-16)
(48.8718 13.1229 7.28692e-17)
(48.8196 13.1014 0)
(48.7659 13.0782 4.39096e-17)
(48.7107 13.0531 -5.89123e-17)
(48.6539 13.0262 1.25753e-17)
(48.5958 12.9973 -1.39177e-17)
(48.5345 12.9773 2.59336e-19)
(49.6853 13.2844 -3.9968e-16)
(49.667 13.2911 4.22227e-16)
(49.6571 13.3043 -4.22068e-16)
(49.636 13.3031 -1.14366e-16)
(49.6135 13.3022 -1.84976e-16)
(49.5909 13.3031 1.98732e-16)
(49.5661 13.3027 -6.94645e-17)
(49.5396 13.3013 2.68377e-18)
(49.5117 13.2995 3.24186e-16)
(49.4822 13.297 7.44616e-16)
(49.4514 13.2937 -2.37958e-16)
(49.4191 13.2897 -1.53003e-16)
(49.3854 13.2849 0)
(49.3503 13.2791 -3.03164e-17)
(49.3139 13.2725 2.27044e-16)
(49.276 13.2649 2.77981e-16)
(49.2367 13.2563 -1.14463e-16)
(49.196 13.2466 2.55193e-18)
(49.1539 13.2357 1.78042e-16)
(49.1104 13.2237 4.73031e-17)
(49.0654 13.2105 0)
(49.0189 13.196 1.41902e-16)
(48.971 13.1801 0)
(48.9216 13.1627 6.70331e-17)
(48.8707 13.1438 3.60063e-17)
(48.8182 13.1234 7.88097e-17)
(48.7643 13.1012 -1.50663e-16)
(48.7087 13.0773 2.3874e-17)
(48.6517 13.0515 -4.68499e-19)
(48.593 13.0236 2.79868e-17)
(48.5329 12.9938 -7.68754e-18)
(48.4696 12.9731 0)
(49.6868 13.2881 0)
(49.6681 13.295 0)
(49.6579 13.3083 4.25947e-16)
(49.6369 13.308 0)
(49.6143 13.3078 1.22806e-16)
(49.5916 13.3093 -6.49014e-17)
(49.5669 13.3095 -3.56724e-17)
(49.5404 13.3088 2.77643e-18)
(49.5124 13.3076 -6.08695e-16)
(49.483 13.3058 -3.12725e-18)
(49.4521 13.3031 4.79515e-17)
(49.4198 13.2998 5.18585e-17)
(49.3861 13.2956 -2.1893e-16)
(49.351 13.2906 -3.02279e-17)
(49.3144 13.2847 2.87586e-16)
(49.2765 13.2778 -5.56224e-16)
(49.2371 13.27 -3.8336e-17)
(49.1963 13.2611 2.05243e-16)
(49.1541 13.2511 1.57055e-18)
(49.1104 13.2399 -2.4419e-17)
(49.0653 13.2276 2.64932e-17)
(49.0187 13.2139 -1.13211e-16)
(48.9706 13.1989 1.11417e-18)
(48.921 13.1825 -1.66645e-16)
(48.8698 13.1646 -7.24917e-17)
(48.8172 13.1452 -1.7647e-16)
(48.7629 13.1241 8.5645e-17)
(48.7071 13.1012 2.2827e-17)
(48.6497 13.0765 1.2884e-17)
(48.5907 13.0499 6.84401e-17)
(48.5301 13.0211 -1.47187e-17)
(48.468 12.9903 8.01644e-18)
(48.4026 12.969 0)
(49.6883 13.2916 4.42146e-16)
(49.6692 13.2986 -5.17721e-17)
(49.6587 13.312 -4.22979e-16)
(49.6378 13.3127 0)
(49.6151 13.3133 -6.21516e-17)
(49.5924 13.3153 -6.48454e-17)
(49.5677 13.3162 0)
(49.5412 13.3161 3.78591e-16)
(49.5133 13.3156 3.04704e-18)
(49.4839 13.3143 -7.4146e-16)
(49.453 13.3124 0)
(49.4206 13.3097 1.53971e-16)
(49.3869 13.3062 1.6445e-16)
(49.3517 13.3019 0)
(49.3151 13.2967 -5.1356e-16)
(49.2771 13.2906 2.19185e-18)
(49.2377 13.2835 3.82127e-17)
(49.1968 13.2754 2.01955e-16)
(49.1545 13.2663 -4.33082e-17)
(49.1107 13.2559 1.70846e-18)
(49.0655 13.2445 -2.07463e-16)
(49.0187 13.2317 -2.76219e-17)
(48.9704 13.2176 0)
(48.9206 13.2022 -3.17936e-17)
(48.8693 13.1853 -1.08183e-16)
(48.8164 13.1669 4.06676e-19)
(48.7619 13.1468 0)
(48.7058 13.125 -1.15766e-16)
(48.6481 13.1014 0)
(48.5887 13.0759 -1.36762e-16)
(48.5278 13.0484 1.5172e-17)
(48.4651 13.0188 -4.8878e-17)
(48.4009 12.9869 8.99836e-18)
(48.3334 12.9648 3.40075e-19)
(49.6898 13.2949 -4.0315e-16)
(49.6703 13.3021 -1.04924e-16)
(49.6595 13.3156 9.0458e-16)
(49.6387 13.3172 -5.80649e-17)
(49.616 13.3185 -6.20962e-17)
(49.5933 13.3211 3.2535e-16)
(49.5686 13.3227 -3.55695e-17)
(49.5421 13.3233 0)
(49.5142 13.3233 3.26574e-16)
(49.4848 13.3228 3.50193e-16)
(49.4539 13.3215 0)
(49.4216 13.3195 -2.53157e-16)
(49.3878 13.3167 0)
(49.3526 13.3131 5.81507e-17)
(49.316 13.3086 2.56607e-16)
(49.278 13.3033 3.11582e-16)
(49.2385 13.297 0)
(49.1975 13.2897 -2.0252e-16)
(49.1551 13.2813 -1.74955e-16)
(49.1112 13.2718 -1.8969e-16)
(49.0659 13.2612 3.62169e-16)
(49.019 13.2494 -1.01315e-18)
(48.9705 13.2362 0)
(48.9205 13.2217 1.65969e-16)
(48.869 13.2058 1.43703e-16)
(48.8159 13.1884 7.80486e-17)
(48.7611 13.1693 2.15554e-17)
(48.7048 13.1486 1.83895e-16)
(48.6468 13.1262 2.45596e-17)
(48.5871 13.1018 2.39971e-19)
(48.5258 13.0755 4.46941e-17)
(48.4627 13.0471 -1.56956e-17)
(48.3979 13.0164 1.72291e-17)
(48.3316 12.9835 -9.38478e-18)
(48.2619 12.9605 -3.54415e-19)
(49.6912 13.2979 -9.28415e-17)
(49.6715 13.3055 5.23665e-16)
(49.6604 13.3191 -3.73836e-16)
(49.6396 13.3216 4.55202e-16)
(49.617 13.3236 6.05422e-17)
(49.5942 13.3268 -1.98251e-16)
(49.5696 13.329 -7.10475e-17)
(49.5431 13.3302 -1.06817e-18)
(49.5152 13.331 0)
(49.4858 13.3311 -8.70477e-17)
(49.455 13.3304 4.76278e-17)
(49.4226 13.3291 4.55638e-16)
(49.3889 13.327 5.37075e-17)
(49.3537 13.3241 0)
(49.3171 13.3204 0)
(49.279 13.3158 0)
(49.2394 13.3102 0)
(49.1984 13.3037 0)
(49.1559 13.2962 3.50086e-16)
(49.112 13.2876 1.90433e-16)
(49.0665 13.2778 -2.06457e-16)
(49.0194 13.2669 0)
(48.9709 13.2546 1.50426e-16)
(48.9207 13.2411 -1.31011e-16)
(48.869 13.2261 -3.50545e-17)
(48.8156 13.2097 -3.94936e-17)
(48.7607 13.1917 2.14551e-17)
(48.7041 13.1721 -2.05477e-16)
(48.6458 13.1507 0)
(48.5858 13.1275 5.42138e-17)
(48.5241 13.1024 5.87091e-17)
(48.4607 13.0752 -7.95799e-17)
(48.3956 13.0458 1.77601e-17)
(48.3286 13.0142 9.66953e-18)
(48.2601 12.9801 0)
(48.188 12.9563 -3.97504e-19)
(49.6927 13.3008 0)
(49.6726 13.3087 -3.70403e-16)
(49.6612 13.3224 3.70121e-16)
(49.6406 13.3258 -4.59921e-16)
(49.618 13.3285 -4.88111e-16)
(49.5952 13.3323 0)
(49.5706 13.3352 7.09695e-17)
(49.5442 13.3371 4.10959e-16)
(49.5163 13.3384 -2.81251e-16)
(49.487 13.3392 0)
(49.4561 13.3392 -1.45663e-18)
(49.4238 13.3386 -2.52331e-16)
(49.3901 13.3372 1.77732e-18)
(49.3549 13.335 1.74216e-16)
(49.3182 13.332 0)
(49.2801 13.3281 -2.3872e-16)
(49.2406 13.3234 2.96264e-16)
(49.1995 13.3177 1.6042e-16)
(49.157 13.3109 -1.75204e-16)
(49.1129 13.3032 0)
(49.0673 13.2943 -5.22319e-17)
(49.0202 13.2842 -1.93258e-16)
(48.9714 13.2729 -9.03145e-17)
(48.9211 13.2603 9.79951e-17)
(48.8692 13.2463 -1.05465e-16)
(48.8157 13.2309 0)
(48.7605 13.214 -1.25994e-16)
(48.7036 13.1954 1.33519e-18)
(48.6451 13.1752 2.52273e-17)
(48.5848 13.1531 -1.0736e-16)
(48.5228 13.1291 -1.17039e-16)
(48.459 13.1032 6.37992e-17)
(48.3935 13.0751 1.70152e-17)
(48.3262 13.0447 -9.37833e-17)
(48.257 13.012 -1.00844e-17)
(48.1862 12.9768 0)
(48.1118 12.952 8.43881e-19)
(49.6941 13.3034 -4.42077e-17)
(49.6738 13.3117 0)
(49.6621 13.3256 -7.99368e-16)
(49.6416 13.3299 -4.54773e-16)
(49.619 13.3333 4.93215e-16)
(49.5962 13.3377 0)
(49.5717 13.3412 0)
(49.5453 13.3437 -3.37519e-16)
(49.5175 13.3458 2.43311e-16)
(49.4882 13.3472 4.40149e-17)
(49.4574 13.3479 0)
(49.4251 13.3479 4.49998e-16)
(49.3914 13.3472 0)
(49.3562 13.3457 -5.86543e-16)
(49.3196 13.3435 6.23749e-17)
(49.2815 13.3404 -3.23868e-17)
(49.2419 13.3364 -3.91146e-17)
(49.2008 13.3315 -4.81201e-16)
(49.1582 13.3255 1.7327e-16)
(49.114 13.3186 1.39765e-16)
(49.0683 13.3106 -5.20666e-17)
(49.0211 13.3014 4.9776e-16)
(48.9723 13.291 -2.95369e-17)
(48.9218 13.2794 -6.52881e-17)
(48.8697 13.2664 3.57111e-17)
(48.816 13.252 -3.7764e-17)
(48.7606 13.2361 1.00012e-18)
(48.7035 13.2186 1.81369e-16)
(48.6447 13.1994 -2.42039e-17)
(48.5842 13.1785 1.87903e-16)
(48.5218 13.1557 5.83651e-17)
(48.4577 13.1309 -6.31704e-17)
(48.3918 13.1041 0)
(48.324 13.075 7.51066e-17)
(48.2545 13.0437 0)
(48.183 13.0098 0)
(48.1098 12.9734 0)
(48.033 12.9476 -4.54918e-19)
(49.6954 13.3059 -3.4545e-16)
(49.675 13.3146 0)
(49.663 13.3287 4.83602e-16)
(49.6426 13.3338 4.03463e-16)
(49.62 13.3379 -4.25458e-16)
(49.5973 13.3429 6.61011e-17)
(49.5728 13.347 2.77616e-16)
(49.5465 13.3503 0)
(49.5187 13.3529 -3.96744e-17)
(49.4895 13.355 4.26447e-17)
(49.4588 13.3564 2.77349e-16)
(49.4265 13.3571 -4.03777e-16)
(49.3929 13.3571 -2.15597e-16)
(49.3577 13.3563 -5.71886e-17)
(49.3211 13.3548 3.13914e-16)
(49.2829 13.3524 2.40002e-16)
(49.2433 13.3492 -2.60921e-16)
(49.2022 13.3451 3.21814e-16)
(49.1596 13.34 -1.49249e-18)
(49.1154 13.3339 -1.88778e-16)
(49.0696 13.3267 5.00744e-17)
(49.0223 13.3185 -1.67511e-16)
(48.9733 13.309 -2.38763e-16)
(48.9227 13.2983 9.64143e-17)
(48.8705 13.2863 -3.28046e-19)
(48.8166 13.2729 -1.5266e-16)
(48.761 13.258 1.24443e-16)
(48.7037 13.2415 8.95003e-17)
(48.6446 13.2235 -9.78346e-17)
(48.5838 13.2037 -1.06905e-16)
(48.5212 13.1821 0)
(48.4567 13.1585 1.25994e-16)
(48.3905 13.1329 -1.74588e-17)
(48.3223 13.1052 0)
(48.2523 13.0751 0)
(48.1804 13.0427 2.24944e-17)
(48.1065 13.0077 -2.39874e-17)
(48.0309 12.97 -6.6699e-18)
(47.9516 12.9432 0)
(49.6967 13.3083 3.95237e-16)
(49.6762 13.3174 0)
(49.6639 13.3317 -4.79353e-16)
(49.6436 13.3375 -5.64425e-17)
(49.6211 13.3423 9.79807e-16)
(49.5984 13.348 -6.45876e-17)
(49.574 13.3528 -6.26748e-16)
(49.5478 13.3566 2.97399e-16)
(49.5201 13.36 3.19385e-16)
(49.4909 13.3627 -4.38568e-17)
(49.4602 13.3647 -4.21189e-16)
(49.4281 13.3661 -2.9838e-16)
(49.3944 13.3668 2.7239e-16)
(49.3593 13.3668 1.75312e-16)
(49.3227 13.366 -4.42579e-16)
(49.2846 13.3644 0)
(49.245 13.3619 3.62964e-17)
(49.2038 13.3586 0)
(49.1611 13.3543 4.25241e-17)
(49.1169 13.3491 0)
(49.0711 13.3428 0)
(49.0237 13.3354 5.612e-17)
(48.9746 13.3268 2.70254e-16)
(48.9239 13.3171 -4.21287e-16)
(48.8715 13.306 1.39824e-16)
(48.8175 13.2936 1.5174e-16)
(48.7617 13.2797 4.22233e-17)
(48.7042 13.2644 -1.36293e-16)
(48.6449 13.2474 9.80072e-17)
(48.5838 13.2287 0)
(48.5209 13.2083 2.93992e-17)
(48.4561 13.186 -1.87926e-16)
(48.3895 13.1616 -1.73706e-17)
(48.321 13.1351 1.11059e-16)
(48.2505 13.1064 -8.04682e-17)
(48.1782 13.0754 -6.61442e-17)
(48.1039 13.0418 1.26323e-17)
(48.0275 13.0055 -1.32494e-17)
(47.9495 12.9666 1.4173e-17)
(47.8675 12.9386 0)
(49.698 13.3104 0)
(49.6773 13.32 -3.6598e-16)
(49.6648 13.3345 4.30465e-16)
(49.6447 13.3411 -3.39836e-16)
(49.6222 13.3467 -4.92682e-16)
(49.5996 13.3529 -5.8422e-16)
(49.5752 13.3583 2.09683e-16)
(49.5491 13.3629 -3.00548e-16)
(49.5215 13.3668 -3.22644e-16)
(49.4924 13.3702 0)
(49.4618 13.3729 4.5736e-17)
(49.4297 13.375 8.49415e-16)
(49.3961 13.3764 -5.31298e-17)
(49.361 13.3771 -1.1661e-16)
(49.3245 13.377 5.65455e-16)
(49.2864 13.3761 3.464e-17)
(49.2468 13.3745 0)
(49.2056 13.3719 0)
(49.1629 13.3685 4.23592e-17)
(49.1186 13.3641 -2.32078e-16)
(49.0728 13.3586 2.01737e-16)
(49.0253 13.3521 -5.59588e-17)
(48.9761 13.3445 -5.85216e-17)
(48.9253 13.3357 2.2762e-16)
(48.8728 13.3256 3.44303e-17)
(48.8186 13.3142 -1.39794e-18)
(48.7627 13.3014 4.05557e-17)
(48.7049 13.2871 -8.97199e-17)
(48.6454 13.2712 -2.48078e-17)
(48.5841 13.2536 -1.05418e-16)
(48.5209 13.2344 0)
(48.4558 13.2132 1.82439e-18)
(48.3889 13.1901 3.45793e-17)
(48.32 13.1649 1.77606e-17)
(48.2491 13.1375 6.06973e-17)
(48.1763 13.1078 4.37246e-17)
(48.1016 13.0757 3.5418e-17)
(48.0248 13.0409 -6.42656e-17)
(47.9459 13.0034 7.46519e-20)
(47.8653 12.9631 -1.53324e-17)
(47.7806 12.934 0)
(49.6993 13.3124 -3.39244e-16)
(49.6785 13.3225 8.41089e-16)
(49.6658 13.3372 -1.08341e-16)
(49.6458 13.3446 4.59829e-16)
(49.6234 13.3508 -6.04042e-17)
(49.6008 13.3577 1.04208e-15)
(49.5765 13.3638 -2.07795e-16)
(49.5505 13.3689 3.58202e-17)
(49.523 13.3736 -3.58966e-16)
(49.494 13.3776 0)
(49.4634 13.381 3.68371e-16)
(49.4314 13.3838 -4.01626e-16)
(49.3979 13.3858 0)
(49.3629 13.3872 0)
(49.3264 13.3879 -1.26829e-16)
(49.2883 13.3878 2.70155e-16)
(49.2487 13.3869 -3.28417e-16)
(49.2076 13.3851 4.04812e-17)
(49.1649 13.3825 -5.15633e-16)
(49.1206 13.3789 1.41506e-16)
(49.0747 13.3744 -1.80251e-18)
(49.0271 13.3687 0)
(48.9779 13.362 2.64622e-16)
(48.927 13.3541 0)
(48.8744 13.345 0)
(48.82 13.3346 3.86377e-17)
(48.7639 13.3228 2.04402e-16)
(48.706 13.3096 0)
(48.6462 13.2948 7.23609e-17)
(48.5847 13.2784 2.65225e-17)
(48.5212 13.2603 1.14076e-16)
(48.4559 13.2403 2.48617e-16)
(48.3886 13.2184 -3.31782e-17)
(48.3193 13.1945 -1.77273e-17)
(48.2481 13.1685 0)
(48.1749 13.1402 -2.21188e-17)
(48.0997 13.1094 -7.11705e-17)
(48.0224 13.0761 2.57631e-17)
(47.9431 13.0402 4.22515e-17)
(47.8616 13.0013 -3.04612e-17)
(47.7783 12.9596 8.14323e-18)
(47.6909 12.9292 0)
(49.7005 13.3143 4.42786e-16)
(49.6797 13.3249 -4.75832e-16)
(49.6667 13.3398 -3.71698e-16)
(49.6469 13.348 -3.97223e-16)
(49.6246 13.3549 0)
(49.602 13.3623 -5.24038e-16)
(49.5779 13.369 2.79854e-16)
(49.5519 13.3749 -2.96101e-16)
(49.5245 13.3802 3.61292e-16)
(49.4956 13.3849 4.23787e-17)
(49.4652 13.3889 -4.49247e-18)
(49.4333 13.3923 0)
(49.3998 13.3951 0)
(49.3649 13.3972 2.30704e-16)
(49.3284 13.3986 2.49273e-16)
(49.2904 13.3993 -3.39097e-16)
(49.2509 13.3991 2.9465e-16)
(49.2097 13.3982 -4.03855e-17)
(49.167 13.3964 3.02946e-16)
(49.1227 13.3936 -2.32504e-16)
(49.0768 13.3899 -2.53836e-16)
(49.0292 13.3852 0)
(48.9799 13.3794 -3.22129e-17)
(48.9289 13.3725 3.15541e-17)
(48.8762 13.3643 2.77537e-16)
(48.8217 13.3549 0)
(48.7654 13.3441 -1.63138e-16)
(48.7073 13.3319 0)
(48.6474 13.3182 0)
(48.5856 13.303 5.2765e-17)
(48.5219 13.286 -1.1434e-16)
(48.4562 13.2672 -1.55742e-16)
(48.3886 13.2466 1.6843e-16)
(48.3191 13.224 -2.19088e-16)
(48.2475 13.1992 -1.95136e-17)
(48.1739 13.1723 2.20104e-17)
(48.0982 13.1429 7.01386e-17)
(48.0204 13.1111 5.1128e-17)
(47.9406 13.0767 1.36527e-17)
(47.8586 13.0394 -1.48595e-17)
(47.7745 12.9992 1.61786e-17)
(47.6885 12.9559 -8.95013e-18)
(47.5983 12.9243 0)
(49.7017 13.3161 -4.51783e-17)
(49.6809 13.3272 -5.21287e-16)
(49.6677 13.3423 4.31645e-16)
(49.648 13.3512 3.45417e-16)
(49.6258 13.3588 0)
(49.6033 13.3669 6.57979e-17)
(49.5793 13.3742 0)
(49.5534 13.3807 3.91304e-18)
(49.5261 13.3866 0)
(49.4973 13.392 0)
(49.467 13.3967 -3.71592e-16)
(49.4352 13.4008 3.44848e-16)
(49.4019 13.4043 0)
(49.367 13.4071 -2.32914e-16)
(49.3306 13.4092 -5.00268e-16)
(49.2927 13.4106 0)
(49.2532 13.4113 0)
(49.2121 13.4111 3.14841e-16)
(49.1694 13.4101 3.39399e-16)
(49.125 13.4082 3.71135e-16)
(49.0791 13.4054 3.00731e-16)
(49.0314 13.4015 -2.18893e-16)
(48.9821 13.3966 -2.37308e-16)
(48.931 13.3906 2.86563e-16)
(48.8782 13.3834 -5.55766e-16)
(48.8236 13.375 0)
(48.7672 13.3653 0)
(48.7089 13.3542 -2.20465e-16)
(48.6488 13.3415 -1.92019e-16)
(48.5868 13.3274 2.08496e-16)
(48.5228 13.3116 2.78969e-17)
(48.4569 13.294 -3.14401e-17)
(48.3891 13.2746 -1.01481e-16)
(48.3192 13.2533 2.15618e-18)
(48.2472 13.2298 0)
(48.1732 13.2042 2.19094e-17)
(48.0971 13.1763 -2.29576e-17)
(48.0189 13.1459 -1.01407e-16)
(47.9385 13.113 -8.23131e-17)
(47.8561 13.0773 0)
(47.7714 13.0387 4.93344e-17)
(47.6845 12.997 -1.79337e-17)
(47.5957 12.9522 0)
(47.5026 12.9191 5.67498e-21)
(49.7028 13.3177 0)
(49.6821 13.3294 3.71028e-16)
(49.6687 13.3447 -3.71945e-16)
(49.6491 13.3543 0)
(49.6271 13.3626 5.45148e-16)
(49.6046 13.3713 -6.57377e-17)
(49.5807 13.3792 -1.03778e-16)
(49.555 13.3864 2.61594e-16)
(49.5278 13.3929 0)
(49.4992 13.3989 -2.96896e-16)
(49.469 13.4043 0)
(49.4373 13.4091 -3.99633e-16)
(49.404 13.4133 5.27257e-17)
(49.3692 13.4168 0)
(49.3329 13.4197 2.51098e-16)
(49.2951 13.4218 0)
(49.2556 13.4232 0)
(49.2146 13.4238 -3.17506e-16)
(49.1719 13.4237 -3.59679e-18)
(49.1276 13.4226 -1.40582e-16)
(49.0816 13.4206 -4.01184e-16)
(49.0339 13.4177 1.65012e-16)
(48.9845 13.4137 1.17949e-16)
(48.9334 13.4086 -2.27005e-18)
(48.8805 13.4024 2.37229e-18)
(48.8258 13.395 0)
(48.7692 13.3863 0)
(48.7108 13.3762 1.77677e-16)
(48.6505 13.3647 1.4385e-16)
(48.5883 13.3517 -2.09269e-16)
(48.5241 13.337 -1.12836e-16)
(48.458 13.3206 -3.13316e-17)
(48.3898 13.3025 1.65893e-16)
(48.3196 13.2824 1.45454e-16)
(48.2473 13.2602 -1.55675e-16)
(48.1729 13.236 2.18167e-17)
(48.0964 13.2095 -2.28529e-17)
(48.0178 13.1805 7.56095e-17)
(47.9369 13.1491 5.51124e-17)
(47.8539 13.1149 5.96848e-17)
(47.7687 13.0779 3.23402e-17)
(47.6813 13.0379 -1.76974e-17)
(47.5916 12.9948 9.46728e-18)
(47.4999 12.9484 1.06887e-17)
(47.4038 12.9138 0)
(49.7039 13.3193 0)
(49.6832 13.3314 5.19314e-17)
(49.6696 13.3471 4.86515e-16)
(49.6502 13.3573 0)
(49.6283 13.3663 -4.91479e-16)
(49.606 13.3755 0)
(49.5822 13.3841 -2.0669e-16)
(49.5566 13.3919 7.42919e-17)
(49.5296 13.3991 -1.09035e-18)
(49.5011 13.4057 4.8042e-17)
(49.471 13.4118 1.37747e-18)
(49.4394 13.4173 0)
(49.4063 13.4221 4.24715e-16)