/*--------------------------------*- C++ -*----------------------------------*\
  =========                 |
  \\      /  F ield         | OpenFOAM: The Open Source CFD Toolbox
   \\    /   O peration     | Website:  https://openfoam.org
    \\  /    A nd           | Version:  7
     \\/     M anipulation  |
\*---------------------------------------------------------------------------*/
FoamFile
{
    version     2.0;
    format      ascii;
    class       volScalarField;
    location    "1000";
    object      nut;
}
// * * * * * * * * * * * * * * * * * * * * * * * * * * * * * * * * * * * * * //

dimensions      [0 2 -1 0 0 0 0];

internalField   nonuniform List<scalar> 
23064
(
5.20717e-06
5.20833e-06
5.20717e-06
5.20944e-06
5.20832e-06
5.20716e-06
5.21051e-06
5.20943e-06
5.20831e-06
5.20716e-06
5.21155e-06
5.2105e-06
5.20942e-06
5.20831e-06
5.20716e-06
5.21256e-06
5.21154e-06
5.21048e-06
5.20941e-06
5.2083e-06
5.20716e-06
5.21354e-06
5.21255e-06
5.21152e-06
5.21047e-06
5.20939e-06
5.20829e-06
5.20716e-06
5.21448e-06
5.21352e-06
5.21253e-06
5.21151e-06
5.21046e-06
5.20938e-06
5.20828e-06
5.20715e-06
5.21538e-06
5.21446e-06
5.21351e-06
5.21251e-06
5.21149e-06
5.21044e-06
5.20937e-06
5.20828e-06
5.20715e-06
5.21625e-06
5.21537e-06
5.21445e-06
5.21349e-06
5.2125e-06
5.21147e-06
5.21042e-06
5.20935e-06
5.20827e-06
5.20715e-06
5.21708e-06
5.21624e-06
5.21535e-06
5.21443e-06
5.21347e-06
5.21248e-06
5.21146e-06
5.21041e-06
5.20934e-06
5.20826e-06
5.20714e-06
5.21788e-06
5.21708e-06
5.21623e-06
5.21534e-06
5.21442e-06
5.21346e-06
5.21246e-06
5.21144e-06
5.21039e-06
5.20932e-06
5.20825e-06
5.20714e-06
5.21865e-06
5.21788e-06
5.21707e-06
5.21622e-06
5.21533e-06
5.2144e-06
5.21344e-06
5.21244e-06
5.21142e-06
5.21037e-06
5.20931e-06
5.20824e-06
5.20714e-06
5.21938e-06
5.21865e-06
5.21787e-06
5.21705e-06
5.2162e-06
5.21531e-06
5.21438e-06
5.21342e-06
5.21242e-06
5.2114e-06
5.21035e-06
5.20929e-06
5.20822e-06
5.20713e-06
5.22009e-06
5.21938e-06
5.21864e-06
5.21786e-06
5.21704e-06
5.21619e-06
5.2153e-06
5.21437e-06
5.2134e-06
5.2124e-06
5.21138e-06
5.21033e-06
5.20927e-06
5.20821e-06
5.20713e-06
5.22076e-06
5.22008e-06
5.21938e-06
5.21863e-06
5.21785e-06
5.21703e-06
5.21618e-06
5.21528e-06
5.21435e-06
5.21338e-06
5.21238e-06
5.21135e-06
5.21031e-06
5.20926e-06
5.2082e-06
5.20713e-06
5.22139e-06
5.22076e-06
5.22008e-06
5.21937e-06
5.21863e-06
5.21784e-06
5.21702e-06
5.21616e-06
5.21526e-06
5.21433e-06
5.21336e-06
5.21236e-06
5.21133e-06
5.21029e-06
5.20924e-06
5.20818e-06
5.20712e-06
5.22201e-06
5.2214e-06
5.22076e-06
5.22008e-06
5.21937e-06
5.21862e-06
5.21783e-06
5.21701e-06
5.21615e-06
5.21525e-06
5.21431e-06
5.21333e-06
5.21233e-06
5.2113e-06
5.21026e-06
5.20922e-06
5.20817e-06
5.20712e-06
5.22259e-06
5.22201e-06
5.2214e-06
5.22076e-06
5.22008e-06
5.21936e-06
5.21861e-06
5.21782e-06
5.217e-06
5.21613e-06
5.21523e-06
5.21429e-06
5.21331e-06
5.21231e-06
5.21128e-06
5.21024e-06
5.20919e-06
5.20815e-06
5.20711e-06
5.22315e-06
5.22259e-06
5.22201e-06
5.2214e-06
5.22075e-06
5.22007e-06
5.21936e-06
5.2186e-06
5.21781e-06
5.21698e-06
5.21612e-06
5.21521e-06
5.21427e-06
5.21329e-06
5.21228e-06
5.21125e-06
5.21021e-06
5.20917e-06
5.20814e-06
5.2071e-06
5.22368e-06
5.22315e-06
5.2226e-06
5.22202e-06
5.2214e-06
5.22075e-06
5.22007e-06
5.21935e-06
5.2186e-06
5.2178e-06
5.21697e-06
5.2161e-06
5.21519e-06
5.21424e-06
5.21326e-06
5.21225e-06
5.21122e-06
5.21018e-06
5.20915e-06
5.20812e-06
5.2071e-06
5.22418e-06
5.22369e-06
5.22316e-06
5.22261e-06
5.22202e-06
5.2214e-06
5.22075e-06
5.22007e-06
5.21935e-06
5.21859e-06
5.21779e-06
5.21696e-06
5.21608e-06
5.21517e-06
5.21422e-06
5.21324e-06
5.21223e-06
5.21119e-06
5.21015e-06
5.20912e-06
5.2081e-06
5.20709e-06
5.22467e-06
5.22419e-06
5.2237e-06
5.22317e-06
5.22261e-06
5.22203e-06
5.22141e-06
5.22075e-06
5.22007e-06
5.21934e-06
5.21858e-06
5.21778e-06
5.21694e-06
5.21606e-06
5.21515e-06
5.21419e-06
5.21321e-06
5.2122e-06
5.21116e-06
5.21012e-06
5.20909e-06
5.20808e-06
5.20708e-06
5.22513e-06
5.22468e-06
5.2242e-06
5.2237e-06
5.22318e-06
5.22262e-06
5.22203e-06
5.22141e-06
5.22075e-06
5.22006e-06
5.21934e-06
5.21857e-06
5.21777e-06
5.21693e-06
5.21604e-06
5.21513e-06
5.21417e-06
5.21318e-06
5.21216e-06
5.21113e-06
5.21009e-06
5.20906e-06
5.20806e-06
5.20708e-06
5.22557e-06
5.22514e-06
5.22469e-06
5.22422e-06
5.22371e-06
5.22318e-06
5.22262e-06
5.22203e-06
5.22141e-06
5.22075e-06
5.22006e-06
5.21933e-06
5.21856e-06
5.21776e-06
5.21691e-06
5.21603e-06
5.2151e-06
5.21414e-06
5.21315e-06
5.21213e-06
5.2111e-06
5.21006e-06
5.20903e-06
5.20804e-06
5.20707e-06
5.22599e-06
5.22558e-06
5.22516e-06
5.2247e-06
5.22423e-06
5.22372e-06
5.22319e-06
5.22263e-06
5.22204e-06
5.22141e-06
5.22075e-06
5.22006e-06
5.21932e-06
5.21855e-06
5.21774e-06
5.21689e-06
5.21601e-06
5.21508e-06
5.21412e-06
5.21312e-06
5.2121e-06
5.21106e-06
5.21002e-06
5.209e-06
5.20802e-06
5.20706e-06
5.22639e-06
5.22601e-06
5.2256e-06
5.22517e-06
5.22472e-06
5.22424e-06
5.22373e-06
5.2232e-06
5.22264e-06
5.22204e-06
5.22141e-06
5.22075e-06
5.22005e-06
5.21932e-06
5.21854e-06
5.21773e-06
5.21688e-06
5.21599e-06
5.21505e-06
5.21409e-06
5.21309e-06
5.21206e-06
5.21102e-06
5.20998e-06
5.20897e-06
5.20799e-06
5.20705e-06
5.22677e-06
5.22641e-06
5.22602e-06
5.22561e-06
5.22518e-06
5.22473e-06
5.22425e-06
5.22374e-06
5.22321e-06
5.22264e-06
5.22204e-06
5.22141e-06
5.22075e-06
5.22005e-06
5.21931e-06
5.21853e-06
5.21772e-06
5.21686e-06
5.21596e-06
5.21503e-06
5.21406e-06
5.21305e-06
5.21203e-06
5.21098e-06
5.20995e-06
5.20893e-06
5.20796e-06
5.20704e-06
5.22714e-06
5.22679e-06
5.22642e-06
5.22604e-06
5.22563e-06
5.2252e-06
5.22474e-06
5.22426e-06
5.22375e-06
5.22321e-06
5.22265e-06
5.22205e-06
5.22142e-06
5.22075e-06
5.22005e-06
5.2193e-06
5.21852e-06
5.2177e-06
5.21684e-06
5.21594e-06
5.215e-06
5.21403e-06
5.21302e-06
5.21199e-06
5.21094e-06
5.2099e-06
5.2089e-06
5.20794e-06
5.20703e-06
5.22749e-06
5.22716e-06
5.22681e-06
5.22644e-06
5.22605e-06
5.22564e-06
5.22521e-06
5.22475e-06
5.22427e-06
5.22376e-06
5.22322e-06
5.22265e-06
5.22205e-06
5.22142e-06
5.22075e-06
5.22004e-06
5.2193e-06
5.21851e-06
5.21769e-06
5.21682e-06
5.21592e-06
5.21498e-06
5.214e-06
5.21298e-06
5.21195e-06
5.2109e-06
5.20986e-06
5.20886e-06
5.20791e-06
5.20702e-06
5.22782e-06
5.22751e-06
5.22718e-06
5.22683e-06
5.22646e-06
5.22607e-06
5.22566e-06
5.22523e-06
5.22477e-06
5.22428e-06
5.22377e-06
5.22323e-06
5.22266e-06
5.22206e-06
5.22142e-06
5.22075e-06
5.22004e-06
5.21929e-06
5.2185e-06
5.21767e-06
5.21681e-06
5.2159e-06
5.21495e-06
5.21396e-06
5.21294e-06
5.2119e-06
5.21085e-06
5.20981e-06
5.20881e-06
5.20787e-06
5.207e-06
0.000254878
5.22814e-06
5.22784e-06
5.22753e-06
5.2272e-06
5.22685e-06
5.22648e-06
5.22609e-06
5.22567e-06
5.22524e-06
5.22478e-06
5.2243e-06
5.22378e-06
5.22324e-06
5.22267e-06
5.22206e-06
5.22142e-06
5.22075e-06
5.22003e-06
5.21928e-06
5.21849e-06
5.21766e-06
5.21679e-06
5.21587e-06
5.21492e-06
5.21393e-06
5.2129e-06
5.21186e-06
5.21081e-06
5.20977e-06
5.20877e-06
5.20784e-06
5.20699e-06
0.000282836
0.000259589
5.22845e-06
5.22816e-06
5.22786e-06
5.22755e-06
5.22722e-06
5.22686e-06
5.22649e-06
5.2261e-06
5.22569e-06
5.22526e-06
5.22479e-06
5.22431e-06
5.22379e-06
5.22325e-06
5.22267e-06
5.22207e-06
5.22142e-06
5.22075e-06
5.22003e-06
5.21928e-06
5.21848e-06
5.21764e-06
5.21677e-06
5.21585e-06
5.21489e-06
5.21389e-06
5.21286e-06
5.21181e-06
5.21076e-06
5.20972e-06
5.20872e-06
5.2078e-06
5.20698e-06
0.000522672
0.000285079
0.000264185
5.22874e-06
5.22847e-06
5.22818e-06
5.22788e-06
5.22757e-06
5.22724e-06
5.22688e-06
5.22651e-06
5.22612e-06
5.22571e-06
5.22527e-06
5.22481e-06
5.22432e-06
5.2238e-06
5.22326e-06
5.22268e-06
5.22207e-06
5.22143e-06
5.22075e-06
5.22003e-06
5.21927e-06
5.21847e-06
5.21763e-06
5.21675e-06
5.21582e-06
5.21486e-06
5.21385e-06
5.21282e-06
5.21176e-06
5.2107e-06
5.20966e-06
5.20867e-06
5.20776e-06
5.20696e-06
0.000765606
0.000526544
0.000287312
0.000268771
5.22902e-06
5.22876e-06
5.22849e-06
5.22821e-06
5.22791e-06
5.22759e-06
5.22726e-06
5.2269e-06
5.22653e-06
5.22614e-06
5.22572e-06
5.22529e-06
5.22482e-06
5.22433e-06
5.22382e-06
5.22327e-06
5.22269e-06
5.22208e-06
5.22143e-06
5.22075e-06
5.22002e-06
5.21926e-06
5.21846e-06
5.21761e-06
5.21673e-06
5.2158e-06
5.21483e-06
5.21382e-06
5.21278e-06
5.21171e-06
5.21065e-06
5.20961e-06
5.20862e-06
5.20772e-06
5.20694e-06
0.00101236
0.000770111
0.000530376
0.000289479
0.000273312
5.22928e-06
5.22904e-06
5.22878e-06
5.22851e-06
5.22823e-06
5.22793e-06
5.22761e-06
5.22728e-06
5.22692e-06
5.22655e-06
5.22616e-06
5.22574e-06
5.2253e-06
5.22484e-06
5.22435e-06
5.22383e-06
5.22328e-06
5.2227e-06
5.22208e-06
5.22143e-06
5.22074e-06
5.22002e-06
5.21925e-06
5.21845e-06
5.2176e-06
5.2167e-06
5.21577e-06
5.21479e-06
5.21378e-06
5.21273e-06
5.21166e-06
5.21059e-06
5.20955e-06
5.20856e-06
5.20768e-06
5.20692e-06
0.00125387
0.00101653
0.000774505
0.000534053
0.000291724
0.000277793
5.22954e-06
5.22931e-06
5.22906e-06
5.22881e-06
5.22854e-06
5.22825e-06
5.22795e-06
5.22763e-06
5.2273e-06
5.22694e-06
5.22657e-06
5.22618e-06
5.22576e-06
5.22532e-06
5.22485e-06
5.22436e-06
5.22384e-06
5.22329e-06
5.2227e-06
5.22209e-06
5.22143e-06
5.22074e-06
5.22002e-06
5.21925e-06
5.21843e-06
5.21758e-06
5.21668e-06
5.21574e-06
5.21476e-06
5.21373e-06
5.21268e-06
5.21161e-06
5.21053e-06
5.20948e-06
5.2085e-06
5.20763e-06
5.2069e-06
0.00148471
0.00125677
0.00102055
0.000778838
0.000537866
0.000293961
0.000282292
5.22979e-06
5.22957e-06
5.22933e-06
5.22909e-06
5.22883e-06
5.22856e-06
5.22827e-06
5.22797e-06
5.22765e-06
5.22732e-06
5.22696e-06
5.22659e-06
5.2262e-06
5.22578e-06
5.22534e-06
5.22487e-06
5.22438e-06
5.22385e-06
5.2233e-06
5.22271e-06
5.22209e-06
5.22144e-06
5.22074e-06
5.22001e-06
5.21924e-06
5.21842e-06
5.21756e-06
5.21666e-06
5.21571e-06
5.21472e-06
5.21369e-06
5.21263e-06
5.21155e-06
5.21047e-06
5.20942e-06
5.20844e-06
5.20758e-06
5.20688e-06
0.00170214
0.00148558
0.00125949
0.00102446
0.000783164
0.000541478
0.000296204
0.000286751
5.23002e-06
5.22981e-06
5.22959e-06
5.22936e-06
5.22911e-06
5.22885e-06
5.22858e-06
5.2283e-06
5.22799e-06
5.22768e-06
5.22734e-06
5.22699e-06
5.22661e-06
5.22621e-06
5.2258e-06
5.22535e-06
5.22489e-06
5.22439e-06
5.22387e-06
5.22331e-06
5.22272e-06
5.2221e-06
5.22144e-06
5.22074e-06
5.22001e-06
5.21923e-06
5.21841e-06
5.21755e-06
5.21664e-06
5.21568e-06
5.21468e-06
5.21365e-06
5.21258e-06
5.21149e-06
5.2104e-06
5.20935e-06
5.20837e-06
5.20752e-06
5.20686e-06
0.00190483
0.00170038
0.00148623
0.00126203
0.00102828
0.000787286
0.000545236
0.000298494
0.00029126
5.23025e-06
5.23005e-06
5.22984e-06
5.22962e-06
5.22938e-06
5.22914e-06
5.22888e-06
5.22861e-06
5.22832e-06
5.22802e-06
5.2277e-06
5.22736e-06
5.22701e-06
5.22663e-06
5.22624e-06
5.22582e-06
5.22537e-06
5.2249e-06
5.22441e-06
5.22388e-06
5.22332e-06
5.22273e-06
5.22211e-06
5.22144e-06
5.22075e-06
5.22001e-06
5.21922e-06
5.2184e-06
5.21753e-06
5.21661e-06
5.21565e-06
5.21465e-06
5.2136e-06
5.21252e-06
5.21143e-06
5.21033e-06
5.20927e-06
5.2083e-06
5.20747e-06
5.20683e-06
0.00209194
0.0018999
0.00169835
0.00148665
0.00126441
0.0010319
0.000791468
0.000548927
0.000300697
0.000295752
5.23047e-06
5.23028e-06
5.23008e-06
5.22986e-06
5.22964e-06
5.22941e-06
5.22916e-06
5.2289e-06
5.22863e-06
5.22834e-06
5.22804e-06
5.22772e-06
5.22738e-06
5.22703e-06
5.22665e-06
5.22626e-06
5.22584e-06
5.22539e-06
5.22492e-06
5.22442e-06
5.22389e-06
5.22333e-06
5.22274e-06
5.22211e-06
5.22145e-06
5.22075e-06
5.22e-06
5.21922e-06
5.21839e-06
5.21751e-06
5.21659e-06
5.21562e-06
5.21461e-06
5.21355e-06
5.21247e-06
5.21136e-06
5.21026e-06
5.2092e-06
5.20822e-06
5.2074e-06
5.2068e-06
0.00226275
0.00208339
0.0018947
0.00169606
0.00148685
0.00126654
0.00103546
0.000795568
0.000552591
0.000303096
0.000300252
5.23068e-06
5.2305e-06
5.2303e-06
5.2301e-06
5.22989e-06
5.22967e-06
5.22943e-06
5.22919e-06
5.22893e-06
5.22866e-06
5.22837e-06
5.22807e-06
5.22775e-06
5.22741e-06
5.22705e-06
5.22668e-06
5.22628e-06
5.22586e-06
5.22541e-06
5.22494e-06
5.22444e-06
5.22391e-06
5.22334e-06
5.22275e-06
5.22212e-06
5.22145e-06
5.22075e-06
5.22e-06
5.21921e-06
5.21837e-06
5.21749e-06
5.21656e-06
5.21559e-06
5.21457e-06
5.2135e-06
5.21241e-06
5.21129e-06
5.21018e-06
5.20911e-06
5.20814e-06
5.20734e-06
5.20677e-06
0.00241647
0.00225011
0.00207453
0.00188919
0.00169347
0.00148673
0.00126852
0.00103886
0.000799676
0.000556454
0.000305446
0.000304833
5.23088e-06
5.23071e-06
5.23052e-06
5.23033e-06
5.23013e-06
5.22992e-06
5.22969e-06
5.22946e-06
5.22921e-06
5.22896e-06
5.22868e-06
5.22839e-06
5.22809e-06
5.22777e-06
5.22743e-06
5.22707e-06
5.2267e-06
5.2263e-06
5.22588e-06
5.22543e-06
5.22496e-06
5.22445e-06
5.22392e-06
5.22336e-06
5.22276e-06
5.22213e-06
5.22146e-06
5.22075e-06
5.22e-06
5.2192e-06
5.21836e-06
5.21747e-06
5.21654e-06
5.21555e-06
5.21452e-06
5.21345e-06
5.21235e-06
5.21122e-06
5.2101e-06
5.20903e-06
5.20806e-06
5.20727e-06
5.20674e-06
0.00255223
0.0023993
0.00223714
0.00206532
0.0018833
0.00169052
0.00148638
0.00127024
0.0010422
0.000803825
0.000560124
0.000307889
0.000309463
5.23108e-06
5.23091e-06
5.23074e-06
5.23055e-06
5.23036e-06
5.23016e-06
5.22994e-06
5.22972e-06
5.22949e-06
5.22924e-06
5.22898e-06
5.22871e-06
5.22842e-06
5.22812e-06
5.2278e-06
5.22746e-06
5.2271e-06
5.22672e-06
5.22632e-06
5.2259e-06
5.22545e-06
5.22497e-06
5.22447e-06
5.22394e-06
5.22337e-06
5.22277e-06
5.22214e-06
5.22146e-06
5.22075e-06
5.21999e-06
5.21919e-06
5.21835e-06
5.21745e-06
5.21651e-06
5.21552e-06
5.21448e-06
5.2134e-06
5.21228e-06
5.21115e-06
5.21002e-06
5.20894e-06
5.20797e-06
5.20719e-06
5.2067e-06
0.00266897
0.00253004
0.00238173
0.00222374
0.00205565
0.00187699
0.00168725
0.00148567
0.00127181
0.00104543
0.000807786
0.000563949
0.000310408
0.000314105
5.23127e-06
5.23111e-06
5.23094e-06
5.23076e-06
5.23058e-06
5.23039e-06
5.23018e-06
5.22997e-06
5.22975e-06
5.22951e-06
5.22927e-06
5.22901e-06
5.22873e-06
5.22845e-06
5.22814e-06
5.22782e-06
5.22748e-06
5.22712e-06
5.22674e-06
5.22634e-06
5.22592e-06
5.22547e-06
5.22499e-06
5.22449e-06
5.22395e-06
5.22338e-06
5.22278e-06
5.22215e-06
5.22147e-06
5.22075e-06
5.21999e-06
5.21919e-06
5.21834e-06
5.21744e-06
5.21649e-06
5.21549e-06
5.21444e-06
5.21334e-06
5.21222e-06
5.21107e-06
5.20993e-06
5.20884e-06
5.20787e-06
5.20711e-06
5.20666e-06
0.00276551
0.00264126
0.00250738
0.00236365
0.00220981
0.00204547
0.00187027
0.00168352
0.00148473
0.00127316
0.00104847
0.00081185
0.000567848
0.000313003
0.000318873
5.23145e-06
5.2313e-06
5.23114e-06
5.23097e-06
5.23079e-06
5.23061e-06
5.23041e-06
5.23021e-06
5.23e-06
5.22978e-06
5.22954e-06
5.2293e-06
5.22904e-06
5.22876e-06
5.22847e-06
5.22817e-06
5.22785e-06
5.22751e-06
5.22715e-06
5.22677e-06
5.22637e-06
5.22594e-06
5.22549e-06
5.22501e-06
5.22451e-06
5.22397e-06
5.2234e-06
5.2228e-06
5.22215e-06
5.22148e-06
5.22075e-06
5.21999e-06
5.21918e-06
5.21832e-06
5.21742e-06
5.21646e-06
5.21545e-06
5.21439e-06
5.21329e-06
5.21215e-06
5.21099e-06
5.20983e-06
5.20874e-06
5.20777e-06
5.20702e-06
5.20663e-06
0.00284053
0.00273176
0.00261299
0.00248411
0.00234495
0.00219525
0.00203476
0.00186296
0.00167943
0.00148342
0.00127421
0.00105144
0.000815886
0.00057176
0.000315646
0.000323756
5.23163e-06
5.23148e-06
5.23133e-06
5.23116e-06
5.231e-06
5.23082e-06
5.23064e-06
5.23044e-06
5.23024e-06
5.23003e-06
5.22981e-06
5.22957e-06
5.22932e-06
5.22906e-06
5.22879e-06
5.2285e-06
5.2282e-06
5.22787e-06
5.22753e-06
5.22717e-06
5.22679e-06
5.22639e-06
5.22596e-06
5.22551e-06
5.22503e-06
5.22453e-06
5.22399e-06
5.22341e-06
5.22281e-06
5.22216e-06
5.22148e-06
5.22076e-06
5.21999e-06
5.21917e-06
5.21831e-06
5.2174e-06
5.21643e-06
5.21541e-06
5.21434e-06
5.21323e-06
5.21208e-06
5.2109e-06
5.20974e-06
5.20863e-06
5.20766e-06
5.20693e-06
5.20662e-06
0.00289255
0.00280017
0.00269733
0.002584
0.0024601
0.00232549
0.00218003
0.00202336
0.00185516
0.00167486
0.00148171
0.00127507
0.00105426
0.000819833
0.00057565
0.000318386
0.000328638
5.2318e-06
5.23166e-06
5.23151e-06
5.23136e-06
5.23119e-06
5.23103e-06
5.23085e-06
5.23067e-06
5.23047e-06
5.23027e-06
5.23006e-06
5.22983e-06
5.2296e-06
5.22935e-06
5.22909e-06
5.22882e-06
5.22853e-06
5.22822e-06
5.2279e-06
5.22756e-06
5.2272e-06
5.22682e-06
5.22642e-06
5.22599e-06
5.22554e-06
5.22506e-06
5.22455e-06
5.224e-06
5.22343e-06
5.22282e-06
5.22218e-06
5.22149e-06
5.22076e-06
5.21999e-06
5.21917e-06
5.2183e-06
5.21738e-06
5.2164e-06
5.21538e-06
5.2143e-06
5.21317e-06
5.212e-06
5.21082e-06
5.20964e-06
5.20852e-06
5.20755e-06
5.20686e-06
5.20664e-06
0.00291993
0.00284499
0.00275902
0.00266205
0.00255412
0.00243519
0.00230522
0.00216397
0.0020113
0.00184673
0.00166975
0.00147966
0.00127562
0.0010569
0.000823783
0.00057988
0.000321243
0.000333638
5.23197e-06
5.23183e-06
5.23169e-06
5.23154e-06
5.23139e-06
5.23122e-06
5.23106e-06
5.23088e-06
5.2307e-06
5.2305e-06
5.2303e-06
5.23009e-06
5.22986e-06
5.22963e-06
5.22938e-06
5.22912e-06
5.22885e-06
5.22856e-06
5.22825e-06
5.22793e-06
5.22759e-06
5.22723e-06
5.22685e-06
5.22644e-06
5.22601e-06
5.22556e-06
5.22508e-06
5.22457e-06
5.22402e-06
5.22345e-06
5.22284e-06
5.22219e-06
5.2215e-06
5.22076e-06
5.21999e-06
5.21916e-06
5.21829e-06
5.21736e-06
5.21637e-06
5.21534e-06
5.21425e-06
5.21311e-06
5.21193e-06
5.21072e-06
5.20953e-06
5.2084e-06
5.20743e-06
5.20682e-06
5.20667e-06
0.00292088
0.00286455
0.00279649
0.00271684
0.00262572
0.00252318
0.0024093
0.00228395
0.0021471
0.00199845
0.00183762
0.0016641
0.00147715
0.00127584
0.0010594
0.000827847
0.000584003
0.000324199
0.000338808
5.23213e-06
5.232e-06
5.23186e-06
5.23172e-06
5.23157e-06
5.23142e-06
5.23125e-06
5.23109e-06
5.23091e-06
5.23073e-06
5.23053e-06
5.23033e-06
5.23012e-06
5.22989e-06
5.22966e-06
5.22941e-06
5.22915e-06
5.22888e-06
5.22859e-06
5.22828e-06
5.22796e-06
5.22762e-06
5.22725e-06
5.22687e-06
5.22647e-06
5.22604e-06
5.22558e-06
5.2251e-06
5.22459e-06
5.22404e-06
5.22347e-06
5.22285e-06
5.2222e-06
5.22151e-06
5.22077e-06
5.21999e-06
5.21916e-06
5.21827e-06
5.21734e-06
5.21635e-06
5.2153e-06
5.2142e-06
5.21304e-06
5.21185e-06
5.21063e-06
5.20942e-06
5.20827e-06
5.20731e-06
5.20682e-06
5.20672e-06
0.00289347
0.00285701
0.00280804
0.00274678
0.00267342
0.00258814
0.00249106
0.00238224
0.00226168
0.00212926
0.00198474
0.00182778
0.00165784
0.00147414
0.00127579
0.00106178
0.000831718
0.000588111
0.000327301
0.000344119
5.23229e-06
5.23216e-06
5.23203e-06
5.23189e-06
5.23175e-06
5.2316e-06
5.23145e-06
5.23129e-06
5.23112e-06
5.23094e-06
5.23076e-06
5.23056e-06
5.23036e-06
5.23015e-06
5.22992e-06
5.22969e-06
5.22944e-06
5.22918e-06
5.22891e-06
5.22862e-06
5.22831e-06
5.22799e-06
5.22764e-06
5.22728e-06
5.2269e-06
5.22649e-06
5.22606e-06
5.22561e-06
5.22512e-06
5.22461e-06
5.22406e-06
5.22348e-06
5.22287e-06
5.22221e-06
5.22151e-06
5.22077e-06
5.21999e-06
5.21915e-06
5.21826e-06
5.21732e-06
5.21632e-06
5.21526e-06
5.21414e-06
5.21298e-06
5.21177e-06
5.21053e-06
5.2093e-06
5.20814e-06
5.2072e-06
5.20686e-06
5.20679e-06
0.00283562
0.0028204
0.00279181
0.00275012
0.00269562
0.00262857
0.00254917
0.00245759
0.00235394
0.00223822
0.00211033
0.0019701
0.00181715
0.00165091
0.00147065
0.00127537
0.00106384
0.000835519
0.000592447
0.000330536
0.00034959
5.23244e-06
5.23232e-06
5.23219e-06
5.23206e-06
5.23192e-06
5.23178e-06
5.23163e-06
5.23148e-06
5.23132e-06
5.23115e-06
5.23097e-06
5.23079e-06
5.23059e-06
5.23039e-06
5.23018e-06
5.22996e-06
5.22972e-06
5.22947e-06
5.22921e-06
5.22894e-06
5.22865e-06
5.22834e-06
5.22802e-06
5.22767e-06
5.22731e-06
5.22693e-06
5.22652e-06
5.22609e-06
5.22563e-06
5.22515e-06
5.22463e-06
5.22408e-06
5.2235e-06
5.22288e-06
5.22223e-06
5.22152e-06
5.22078e-06
5.21999e-06
5.21915e-06
5.21825e-06
5.2173e-06
5.21629e-06
5.21522e-06
5.21409e-06
5.21291e-06
5.21168e-06
5.21043e-06
5.20918e-06
5.208e-06
5.20711e-06
5.20692e-06
5.20686e-06
0.00274517
0.00275265
0.00274579
0.00272497
0.00269053
0.0026428
0.00258207
0.00250861
0.00242262
0.00232423
0.00221346
0.00209026
0.00195445
0.00180562
0.00164327
0.0014666
0.00127447
0.00106566
0.000839362
0.00059685
0.000333932
0.000355237
5.23259e-06
5.23247e-06
5.23235e-06
5.23222e-06
5.23209e-06
5.23195e-06
5.23181e-06
5.23166e-06
5.23151e-06
5.23135e-06
5.23118e-06
5.231e-06
5.23082e-06
5.23063e-06
5.23042e-06
5.23021e-06
5.22999e-06
5.22975e-06
5.2295e-06
5.22924e-06
5.22897e-06
5.22868e-06
5.22837e-06
5.22805e-06
5.2277e-06
5.22734e-06
5.22696e-06
5.22655e-06
5.22612e-06
5.22566e-06
5.22517e-06
5.22466e-06
5.22411e-06
5.22352e-06
5.2229e-06
5.22224e-06
5.22154e-06
5.22079e-06
5.21999e-06
5.21914e-06
5.21824e-06
5.21728e-06
5.21626e-06
5.21518e-06
5.21404e-06
5.21284e-06
5.21159e-06
5.21032e-06
5.20905e-06
5.20786e-06
5.20707e-06
5.20702e-06
5.20694e-06
0.00261988
0.00265155
0.00266789
0.00266931
0.00265622
0.00262902
0.00258807
0.00253373
0.0024663
0.00238599
0.00229296
0.00218728
0.00206892
0.00193765
0.00179315
0.00163485
0.00146186
0.00127314
0.00106731
0.000843107
0.000601344
0.000337501
0.00036103
5.23274e-06
5.23262e-06
5.2325e-06
5.23238e-06
5.23225e-06
5.23212e-06
5.23199e-06
5.23184e-06
5.2317e-06
5.23154e-06
5.23138e-06
5.23121e-06
5.23104e-06
5.23085e-06
5.23066e-06
5.23046e-06
5.23024e-06
5.23002e-06
5.22978e-06
5.22954e-06
5.22927e-06
5.229e-06
5.22871e-06
5.2284e-06
5.22808e-06
5.22774e-06
5.22737e-06
5.22699e-06
5.22658e-06
5.22615e-06
5.22569e-06
5.2252e-06
5.22468e-06
5.22413e-06
5.22354e-06
5.22292e-06
5.22226e-06
5.22155e-06
5.2208e-06
5.21999e-06
5.21914e-06
5.21823e-06
5.21726e-06
5.21623e-06
5.21514e-06
5.21398e-06
5.21277e-06
5.2115e-06
5.21021e-06
5.20891e-06
5.20772e-06
5.20706e-06
5.20714e-06
5.20704e-06
0.0024575
0.00251488
0.00255589
0.002581
0.00259064
0.00258527
0.00256532
0.00253122
0.00248334
0.00242202
0.00234751
0.00226
0.00215956
0.00204616
0.00191963
0.00177962
0.0016255
0.00145647
0.00127139
0.00106863
0.000846791
0.00060595
0.000341291
0.000367119
5.23288e-06
5.23277e-06
5.23265e-06
5.23254e-06
5.23241e-06
5.23229e-06
5.23215e-06
5.23202e-06
5.23188e-06
5.23173e-06
5.23157e-06
5.23141e-06
5.23124e-06
5.23107e-06
5.23088e-06
5.23069e-06
5.23049e-06
5.23027e-06
5.23005e-06
5.22982e-06
5.22957e-06
5.22931e-06
5.22903e-06
5.22874e-06
5.22843e-06
5.22811e-06
5.22777e-06
5.2274e-06
5.22702e-06
5.22661e-06
5.22618e-06
5.22572e-06
5.22523e-06
5.22471e-06
5.22415e-06
5.22357e-06
5.22294e-06
5.22227e-06
5.22156e-06
5.2208e-06
5.22e-06
5.21914e-06
5.21822e-06
5.21724e-06
5.2162e-06
5.21509e-06
5.21392e-06
5.21269e-06
5.21141e-06
5.21009e-06
5.20877e-06
5.20759e-06
5.20709e-06
5.20728e-06
5.20714e-06
0.0022559
0.00234044
0.00240759
0.00245785
0.00249164
0.00250947
0.00251183
0.00249918
0.00247199
0.00243068
0.00237559
0.00230702
0.00222516
0.00213013
0.00202188
0.00190026
0.00176489
0.00161521
0.00145038
0.00126906
0.00106965
0.000850336
0.000610618
0.000345261
0.000373505
5.23302e-06
5.23291e-06
5.2328e-06
5.23269e-06
5.23257e-06
5.23245e-06
5.23232e-06
5.23219e-06
5.23205e-06
5.23191e-06
5.23176e-06
5.23161e-06
5.23144e-06
5.23128e-06
5.2311e-06
5.23092e-06
5.23072e-06
5.23052e-06
5.23031e-06
5.23008e-06
5.22985e-06
5.2296e-06
5.22934e-06
5.22907e-06
5.22877e-06
5.22847e-06
5.22814e-06
5.2278e-06
5.22744e-06
5.22705e-06
5.22664e-06
5.22621e-06
5.22575e-06
5.22526e-06
5.22473e-06
5.22418e-06
5.22359e-06
5.22296e-06
5.22229e-06
5.22158e-06
5.22081e-06
5.22e-06
5.21913e-06
5.21821e-06
5.21722e-06
5.21617e-06
5.21505e-06
5.21387e-06
5.21262e-06
5.21131e-06
5.20997e-06
5.20862e-06
5.20747e-06
5.20716e-06
5.20744e-06
5.20725e-06
0.00201316
0.00212615
0.00222086
0.00229769
0.00235705
0.00239948
0.0024255
0.00243561
0.00243033
0.00241016
0.00237552
0.0023268
0.00226432
0.00218828
0.00209882
0.00199592
0.00187941
0.00174893
0.00160394
0.00144342
0.00126614
0.00107027
0.000853727
0.000615278
0.000349514
0.000380124
5.23316e-06
5.23305e-06
5.23295e-06
5.23283e-06
5.23272e-06
5.2326e-06
5.23248e-06
5.23235e-06
5.23222e-06
5.23208e-06
5.23194e-06
5.23179e-06
5.23164e-06
5.23148e-06
5.23131e-06
5.23113e-06
5.23095e-06
5.23076e-06
5.23055e-06
5.23034e-06
5.23012e-06
5.22988e-06
5.22964e-06
5.22937e-06
5.2291e-06
5.22881e-06
5.2285e-06
5.22818e-06
5.22783e-06
5.22747e-06
5.22709e-06
5.22668e-06
5.22624e-06
5.22578e-06
5.22529e-06
5.22476e-06
5.22421e-06
5.22361e-06
5.22298e-06
5.22231e-06
5.22159e-06
5.22082e-06
5.22001e-06
5.21913e-06
5.2182e-06
5.2172e-06
5.21614e-06
5.21501e-06
5.21381e-06
5.21254e-06
5.21122e-06
5.20984e-06
5.20846e-06
5.20738e-06
5.20727e-06
5.20763e-06
5.20738e-06
0.00172775
0.00187028
0.00199373
0.00209844
0.00218473
0.00225315
0.00230419
0.0023384
0.00235633
0.00235851
0.00234545
0.00231762
0.00227543
0.00221919
0.00214917
0.00206548
0.00196812
0.00185693
0.00173161
0.00159145
0.00143556
0.00126251
0.00107045
0.000856969
0.000620305
0.000354045
0.000387007
5.23329e-06
5.23319e-06
5.23309e-06
5.23298e-06
5.23287e-06
5.23275e-06
5.23263e-06
5.23251e-06
5.23238e-06
5.23225e-06
5.23212e-06
5.23197e-06
5.23183e-06
5.23167e-06
5.23151e-06
5.23134e-06
5.23117e-06
5.23098e-06
5.23079e-06
5.23059e-06
5.23038e-06
5.23015e-06
5.22992e-06
5.22967e-06
5.22941e-06
5.22913e-06
5.22884e-06
5.22854e-06
5.22821e-06
5.22787e-06
5.22751e-06
5.22712e-06
5.22671e-06
5.22627e-06
5.22581e-06
5.22532e-06
5.22479e-06
5.22423e-06
5.22364e-06
5.22301e-06
5.22233e-06
5.22161e-06
5.22084e-06
5.22001e-06
5.21913e-06
5.21819e-06
5.21719e-06
5.21611e-06
5.21497e-06
5.21375e-06
5.21246e-06
5.21111e-06
5.20971e-06
5.20831e-06
5.20732e-06
5.2074e-06
5.20783e-06
5.20751e-06
0.00139867
0.00157152
0.00172463
0.00185829
0.00197272
0.0020684
0.0021458
0.00220544
0.00224787
0.00227368
0.00228341
0.0022776
0.00225673
0.00222122
0.00217142
0.00210759
0.00202988
0.00193829
0.0018327
0.0017127
0.00157768
0.00142663
0.00125813
0.00107017
0.000860157
0.000625352
0.000358926
0.000394287
5.23342e-06
5.23333e-06
5.23322e-06
5.23312e-06
5.23301e-06
5.2329e-06
5.23279e-06
5.23267e-06
5.23255e-06
5.23242e-06
5.23229e-06
5.23215e-06
5.23201e-06
5.23186e-06
5.23171e-06
5.23155e-06
5.23138e-06
5.2312e-06
5.23102e-06
5.23083e-06
5.23062e-06
5.23041e-06
5.23019e-06
5.22995e-06
5.22971e-06
5.22945e-06
5.22917e-06
5.22888e-06
5.22857e-06
5.22825e-06
5.22791e-06
5.22754e-06
5.22715e-06
5.22674e-06
5.22631e-06
5.22584e-06
5.22535e-06
5.22482e-06
5.22426e-06
5.22367e-06
5.22303e-06
5.22235e-06
5.22163e-06
5.22085e-06
5.22002e-06
5.21913e-06
5.21818e-06
5.21717e-06
5.21608e-06
5.21492e-06
5.21369e-06
5.21238e-06
5.21101e-06
5.20957e-06
5.20816e-06
5.20731e-06
5.20757e-06
5.20805e-06
5.20767e-06
0.0010248
0.00122902
0.0014125
0.00157588
0.00171937
0.00184342
0.00194834
0.00203465
0.00210288
0.00215359
0.00218735
0.00220475
0.00220631
0.00219256
0.00216391
0.00212074
0.00206332
0.00199182
0.00190626
0.00180647
0.0016921
0.00156246
0.00141656
0.00125291
0.00106941
0.000863034
0.000630466
0.000364219
0.000402107
5.23355e-06
5.23346e-06
5.23336e-06
5.23326e-06
5.23315e-06
5.23305e-06
5.23293e-06
5.23282e-06
5.2327e-06
5.23258e-06
5.23245e-06
5.23232e-06
5.23218e-06
5.23204e-06
5.23189e-06
5.23174e-06
5.23158e-06
5.23141e-06
5.23124e-06
5.23105e-06
5.23086e-06
5.23066e-06
5.23045e-06
5.23022e-06
5.22999e-06
5.22974e-06
5.22948e-06
5.22921e-06
5.22892e-06
5.22861e-06
5.22829e-06
5.22794e-06
5.22758e-06
5.22719e-06
5.22678e-06
5.22634e-06
5.22588e-06
5.22538e-06
5.22486e-06
5.22429e-06
5.2237e-06
5.22306e-06
5.22237e-06
5.22164e-06
5.22086e-06
5.22003e-06
5.21914e-06
5.21818e-06
5.21715e-06
5.21605e-06
5.21488e-06
5.21363e-06
5.2123e-06
5.2109e-06
5.20942e-06
5.20802e-06
5.20733e-06
5.20776e-06
5.20829e-06
5.20784e-06
0.000603394
0.000840452
0.00105642
0.0012503
0.00142355
0.00157672
0.00171013
0.00182418
0.00191936
0.00199618
0.0020552
0.00209701
0.00212219
0.00213129
0.00212481
0.00210321
0.00206688
0.0020161
0.00195105
0.00187175
0.00177805
0.00166957
0.00154564
0.00140522
0.00124677
0.00106797
0.000865615
0.000635572
0.000369943
0.000410383
5.23368e-06
5.23359e-06
5.23349e-06
5.23339e-06
5.23329e-06
5.23319e-06
5.23308e-06
5.23297e-06
5.23285e-06
5.23274e-06
5.23261e-06
5.23249e-06
5.23236e-06
5.23222e-06
5.23208e-06
5.23193e-06
5.23178e-06
5.23162e-06
5.23145e-06
5.23127e-06
5.23109e-06
5.2309e-06
5.2307e-06
5.23048e-06
5.23026e-06
5.23003e-06
5.22978e-06
5.22952e-06
5.22924e-06
5.22895e-06
5.22865e-06
5.22832e-06
5.22798e-06
5.22762e-06
5.22723e-06
5.22682e-06
5.22638e-06
5.22591e-06
5.22542e-06
5.22489e-06
5.22433e-06
5.22372e-06
5.22308e-06
5.2224e-06
5.22167e-06
5.22088e-06
5.22004e-06
5.21914e-06
5.21817e-06
5.21714e-06
5.21603e-06
5.21484e-06
5.21357e-06
5.21222e-06
5.21079e-06
5.20927e-06
5.20789e-06
5.20739e-06
5.20798e-06
5.20855e-06
5.20802e-06
0.000205175
0.000415384
0.000652791
0.000879898
0.00108444
0.00126738
0.00142992
0.00157252
0.00169557
0.00179958
0.00188498
0.00195237
0.00200231
0.0020354
0.00205216
0.00205314
0.00203879
0.00200952
0.00196562
0.00190727
0.00183451
0.00174719
0.00164492
0.00152703
0.00139244
0.00123949
0.00106579
0.000867807
0.000640931
0.00037624
0.000419084
5.23381e-06
5.23372e-06
5.23362e-06
5.23353e-06
5.23343e-06
5.23333e-06
5.23322e-06
5.23311e-06
5.233e-06
5.23289e-06
5.23277e-06
5.23265e-06
5.23252e-06
5.23239e-06
5.23225e-06
5.23211e-06
5.23196e-06
5.23181e-06
5.23165e-06
5.23148e-06
5.23131e-06
5.23113e-06
5.23093e-06
5.23073e-06
5.23052e-06
5.2303e-06
5.23006e-06
5.22982e-06
5.22956e-06
5.22928e-06
5.22899e-06
5.22869e-06
5.22836e-06
5.22802e-06
5.22765e-06
5.22727e-06
5.22685e-06
5.22642e-06
5.22595e-06
5.22545e-06
5.22492e-06
5.22436e-06
5.22376e-06
5.22311e-06
5.22242e-06
5.22169e-06
5.2209e-06
5.22005e-06
5.21914e-06
5.21817e-06
5.21712e-06
5.216e-06
5.2148e-06
5.21351e-06
5.21214e-06
5.21067e-06
5.20912e-06
5.20779e-06
5.20749e-06
5.20822e-06
5.20883e-06
5.20823e-06
1.93223e-06
8.18118e-05
0.00024931
0.000466765
0.000698749
0.000914215
0.00110693
0.00127866
0.00143025
0.00156221
0.00167494
0.00176893
0.00184471
0.00190288
0.00194398
0.00196856
0.00197718
0.0019703
0.00194831
0.00191153
0.00186015
0.00179422
0.00171359
0.00161786
0.00150637
0.00137795
0.00123093
0.00106274
0.000869758
0.000646517
0.00038321
0.00042847
5.23393e-06
5.23384e-06
5.23375e-06
5.23366e-06
5.23356e-06
5.23346e-06
5.23336e-06
5.23325e-06
5.23315e-06
5.23304e-06
5.23292e-06
5.2328e-06
5.23268e-06
5.23256e-06
5.23242e-06