/*--------------------------------*- C++ -*----------------------------------*\
  =========                 |
  \\      /  F ield         | OpenFOAM: The Open Source CFD Toolbox
   \\    /   O peration     | Website:  https://openfoam.org
    \\  /    A nd           | Version:  7
     \\/     M anipulation  |
\*---------------------------------------------------------------------------*/
FoamFile
{
    version     2.0;
    format      ascii;
    class       volScalarField;
    location    "1000";
    object      nuTilda;
}
// * * * * * * * * * * * * * * * * * * * * * * * * * * * * * * * * * * * * * //

dimensions      [0 2 -1 0 0 0 0];

internalField   nonuniform List<scalar> 
23064
(
3.43221e-05
3.43243e-05
3.43221e-05
3.43263e-05
3.43243e-05
3.43221e-05
3.43283e-05
3.43263e-05
3.43243e-05
3.43221e-05
3.43303e-05
3.43283e-05
3.43263e-05
3.43242e-05
3.43221e-05
3.43321e-05
3.43302e-05
3.43283e-05
3.43263e-05
3.43242e-05
3.43221e-05
3.4334e-05
3.43321e-05
3.43302e-05
3.43283e-05
3.43263e-05
3.43242e-05
3.43221e-05
3.43357e-05
3.43339e-05
3.43321e-05
3.43302e-05
3.43282e-05
3.43262e-05
3.43242e-05
3.43221e-05
3.43374e-05
3.43357e-05
3.43339e-05
3.43321e-05
3.43302e-05
3.43282e-05
3.43262e-05
3.43242e-05
3.43221e-05
3.4339e-05
3.43374e-05
3.43357e-05
3.43339e-05
3.4332e-05
3.43301e-05
3.43282e-05
3.43262e-05
3.43242e-05
3.43221e-05
3.43405e-05
3.4339e-05
3.43373e-05
3.43356e-05
3.43338e-05
3.4332e-05
3.43301e-05
3.43281e-05
3.43262e-05
3.43241e-05
3.43221e-05
3.4342e-05
3.43405e-05
3.4339e-05
3.43373e-05
3.43356e-05
3.43338e-05
3.4332e-05
3.43301e-05
3.43281e-05
3.43261e-05
3.43241e-05
3.43221e-05
3.43435e-05
3.4342e-05
3.43405e-05
3.43389e-05
3.43373e-05
3.43356e-05
3.43338e-05
3.43319e-05
3.433e-05
3.43281e-05
3.43261e-05
3.43241e-05
3.43221e-05
3.43448e-05
3.43434e-05
3.4342e-05
3.43405e-05
3.43389e-05
3.43373e-05
3.43355e-05
3.43337e-05
3.43319e-05
3.433e-05
3.4328e-05
3.43261e-05
3.43241e-05
3.43221e-05
3.43461e-05
3.43448e-05
3.43434e-05
3.4342e-05
3.43405e-05
3.43389e-05
3.43372e-05
3.43355e-05
3.43337e-05
3.43318e-05
3.43299e-05
3.4328e-05
3.4326e-05
3.43241e-05
3.43221e-05
3.43474e-05
3.43461e-05
3.43448e-05
3.43434e-05
3.4342e-05
3.43405e-05
3.43389e-05
3.43372e-05
3.43355e-05
3.43337e-05
3.43318e-05
3.43299e-05
3.4328e-05
3.4326e-05
3.4324e-05
3.4322e-05
3.43485e-05
3.43474e-05
3.43461e-05
3.43448e-05
3.43434e-05
3.4342e-05
3.43404e-05
3.43388e-05
3.43372e-05
3.43354e-05
3.43336e-05
3.43318e-05
3.43299e-05
3.43279e-05
3.4326e-05
3.4324e-05
3.4322e-05
3.43497e-05
3.43485e-05
3.43474e-05
3.43461e-05
3.43448e-05
3.43434e-05
3.43419e-05
3.43404e-05
3.43388e-05
3.43371e-05
3.43354e-05
3.43336e-05
3.43317e-05
3.43298e-05
3.43279e-05
3.43259e-05
3.4324e-05
3.4322e-05
3.43508e-05
3.43497e-05
3.43486e-05
3.43474e-05
3.43461e-05
3.43448e-05
3.43434e-05
3.43419e-05
3.43404e-05
3.43388e-05
3.43371e-05
3.43354e-05
3.43335e-05
3.43317e-05
3.43298e-05
3.43278e-05
3.43259e-05
3.4324e-05
3.4322e-05
3.43518e-05
3.43508e-05
3.43497e-05
3.43486e-05
3.43474e-05
3.43461e-05
3.43448e-05
3.43434e-05
3.43419e-05
3.43404e-05
3.43387e-05
3.43371e-05
3.43353e-05
3.43335e-05
3.43316e-05
3.43297e-05
3.43278e-05
3.43258e-05
3.43239e-05
3.4322e-05
3.43528e-05
3.43518e-05
3.43508e-05
3.43497e-05
3.43486e-05
3.43474e-05
3.43461e-05
3.43448e-05
3.43434e-05
3.43419e-05
3.43403e-05
3.43387e-05
3.4337e-05
3.43353e-05
3.43335e-05
3.43316e-05
3.43297e-05
3.43277e-05
3.43258e-05
3.43239e-05
3.4322e-05
3.43537e-05
3.43528e-05
3.43518e-05
3.43508e-05
3.43497e-05
3.43486e-05
3.43474e-05
3.43461e-05
3.43447e-05
3.43433e-05
3.43419e-05
3.43403e-05
3.43387e-05
3.4337e-05
3.43352e-05
3.43334e-05
3.43315e-05
3.43296e-05
3.43277e-05
3.43258e-05
3.43239e-05
3.4322e-05
3.43546e-05
3.43537e-05
3.43528e-05
3.43518e-05
3.43508e-05
3.43497e-05
3.43486e-05
3.43474e-05
3.43461e-05
3.43447e-05
3.43433e-05
3.43418e-05
3.43403e-05
3.43387e-05
3.4337e-05
3.43352e-05
3.43334e-05
3.43315e-05
3.43295e-05
3.43276e-05
3.43257e-05
3.43238e-05
3.4322e-05
3.43555e-05
3.43546e-05
3.43538e-05
3.43528e-05
3.43518e-05
3.43508e-05
3.43497e-05
3.43486e-05
3.43474e-05
3.43461e-05
3.43447e-05
3.43433e-05
3.43418e-05
3.43403e-05
3.43386e-05
3.43369e-05
3.43351e-05
3.43333e-05
3.43314e-05
3.43295e-05
3.43276e-05
3.43257e-05
3.43238e-05
3.4322e-05
3.43563e-05
3.43555e-05
3.43547e-05
3.43538e-05
3.43528e-05
3.43519e-05
3.43508e-05
3.43497e-05
3.43486e-05
3.43474e-05
3.43461e-05
3.43447e-05
3.43433e-05
3.43418e-05
3.43402e-05
3.43386e-05
3.43369e-05
3.43351e-05
3.43332e-05
3.43314e-05
3.43294e-05
3.43275e-05
3.43256e-05
3.43237e-05
3.43219e-05
3.43571e-05
3.43563e-05
3.43555e-05
3.43547e-05
3.43538e-05
3.43529e-05
3.43519e-05
3.43508e-05
3.43497e-05
3.43486e-05
3.43474e-05
3.43461e-05
3.43447e-05
3.43433e-05
3.43418e-05
3.43402e-05
3.43385e-05
3.43368e-05
3.4335e-05
3.43332e-05
3.43313e-05
3.43294e-05
3.43274e-05
3.43255e-05
3.43237e-05
3.43219e-05
3.43578e-05
3.43571e-05
3.43563e-05
3.43555e-05
3.43547e-05
3.43538e-05
3.43529e-05
3.43519e-05
3.43508e-05
3.43497e-05
3.43486e-05
3.43473e-05
3.43461e-05
3.43447e-05
3.43433e-05
3.43417e-05
3.43402e-05
3.43385e-05
3.43368e-05
3.4335e-05
3.43331e-05
3.43312e-05
3.43293e-05
3.43274e-05
3.43255e-05
3.43237e-05
3.43219e-05
3.43585e-05
3.43578e-05
3.43571e-05
3.43564e-05
3.43556e-05
3.43547e-05
3.43538e-05
3.43529e-05
3.43519e-05
3.43509e-05
3.43497e-05
3.43486e-05
3.43473e-05
3.4346e-05
3.43447e-05
3.43432e-05
3.43417e-05
3.43401e-05
3.43385e-05
3.43367e-05
3.43349e-05
3.43331e-05
3.43312e-05
3.43292e-05
3.43273e-05
3.43254e-05
3.43236e-05
3.43219e-05
3.43592e-05
3.43585e-05
3.43579e-05
3.43571e-05
3.43564e-05
3.43556e-05
3.43547e-05
3.43539e-05
3.43529e-05
3.43519e-05
3.43509e-05
3.43498e-05
3.43486e-05
3.43473e-05
3.4346e-05
3.43447e-05
3.43432e-05
3.43417e-05
3.43401e-05
3.43384e-05
3.43367e-05
3.43349e-05
3.4333e-05
3.43311e-05
3.43291e-05
3.43272e-05
3.43253e-05
3.43236e-05
3.43219e-05
3.43598e-05
3.43592e-05
3.43586e-05
3.43579e-05
3.43572e-05
3.43564e-05
3.43556e-05
3.43548e-05
3.43539e-05
3.43529e-05
3.43519e-05
3.43509e-05
3.43498e-05
3.43486e-05
3.43473e-05
3.4346e-05
3.43447e-05
3.43432e-05
3.43417e-05
3.43401e-05
3.43384e-05
3.43366e-05
3.43348e-05
3.43329e-05
3.4331e-05
3.43291e-05
3.43271e-05
3.43253e-05
3.43235e-05
3.43218e-05
3.43605e-05
3.43599e-05
3.43593e-05
3.43586e-05
3.43579e-05
3.43572e-05
3.43564e-05
3.43556e-05
3.43548e-05
3.43539e-05
3.4353e-05
3.43519e-05
3.43509e-05
3.43498e-05
3.43486e-05
3.43473e-05
3.4346e-05
3.43446e-05
3.43432e-05
3.43416e-05
3.434e-05
3.43383e-05
3.43366e-05
3.43348e-05
3.43329e-05
3.43309e-05
3.4329e-05
3.4327e-05
3.43252e-05
3.43234e-05
3.43218e-05
0.000258227
3.4361e-05
3.43605e-05
3.43599e-05
3.43593e-05
3.43586e-05
3.4358e-05
3.43572e-05
3.43565e-05
3.43557e-05
3.43548e-05
3.43539e-05
3.4353e-05
3.4352e-05
3.43509e-05
3.43498e-05
3.43486e-05
3.43473e-05
3.4346e-05
3.43446e-05
3.43432e-05
3.43416e-05
3.434e-05
3.43383e-05
3.43365e-05
3.43347e-05
3.43328e-05
3.43308e-05
3.43289e-05
3.4327e-05
3.43251e-05
3.43234e-05
3.43218e-05
0.000285582
0.000262824
3.43616e-05
3.43611e-05
3.43605e-05
3.43599e-05
3.43593e-05
3.43587e-05
3.4358e-05
3.43573e-05
3.43565e-05
3.43557e-05
3.43548e-05
3.43539e-05
3.4353e-05
3.4352e-05
3.43509e-05
3.43498e-05
3.43486e-05
3.43473e-05
3.4346e-05
3.43446e-05
3.43431e-05
3.43416e-05
3.434e-05
3.43383e-05
3.43365e-05
3.43346e-05
3.43327e-05
3.43308e-05
3.43288e-05
3.43269e-05
3.4325e-05
3.43233e-05
3.43218e-05
0.000523496
0.000287784
0.000267314
3.43621e-05
3.43616e-05
3.43611e-05
3.43606e-05
3.436e-05
3.43594e-05
3.43587e-05
3.4358e-05
3.43573e-05
3.43565e-05
3.43557e-05
3.43549e-05
3.4354e-05
3.4353e-05
3.4352e-05
3.43509e-05
3.43498e-05
3.43486e-05
3.43473e-05
3.4346e-05
3.43446e-05
3.43431e-05
3.43416e-05
3.43399e-05
3.43382e-05
3.43364e-05
3.43346e-05
3.43326e-05
3.43307e-05
3.43287e-05
3.43268e-05
3.43249e-05
3.43232e-05
3.43217e-05
0.000765991
0.000527356
0.000289976
0.000271799
3.43627e-05
3.43622e-05
3.43617e-05
3.43612e-05
3.43606e-05
3.436e-05
3.43594e-05
3.43588e-05
3.43581e-05
3.43573e-05
3.43566e-05
3.43558e-05
3.43549e-05
3.4354e-05
3.4353e-05
3.4352e-05
3.43509e-05
3.43498e-05
3.43486e-05
3.43473e-05
3.4346e-05
3.43446e-05
3.43431e-05
3.43415e-05
3.43399e-05
3.43382e-05
3.43364e-05
3.43345e-05
3.43325e-05
3.43306e-05
3.43286e-05
3.43267e-05
3.43248e-05
3.43232e-05
3.43217e-05
0.00101258
0.000770492
0.000531176
0.000292105
0.000276244
3.43632e-05
3.43627e-05
3.43622e-05
3.43617e-05
3.43612e-05
3.43606e-05
3.43601e-05
3.43594e-05
3.43588e-05
3.43581e-05
3.43574e-05
3.43566e-05
3.43558e-05
3.43549e-05
3.4354e-05
3.43531e-05
3.4352e-05
3.4351e-05
3.43498e-05
3.43486e-05
3.43473e-05
3.4346e-05
3.43446e-05
3.43431e-05
3.43415e-05
3.43398e-05
3.43381e-05
3.43363e-05
3.43344e-05
3.43325e-05
3.43305e-05
3.43285e-05
3.43265e-05
3.43247e-05
3.43231e-05
3.43217e-05
0.00125401
0.00101674
0.000774881
0.000534842
0.000294311
0.000280635
3.43636e-05
3.43632e-05
3.43628e-05
3.43623e-05
3.43618e-05
3.43612e-05
3.43607e-05
3.43601e-05
3.43595e-05
3.43588e-05
3.43581e-05
3.43574e-05
3.43566e-05
3.43558e-05
3.4355e-05
3.4354e-05
3.43531e-05
3.43521e-05
3.4351e-05
3.43498e-05
3.43486e-05
3.43473e-05
3.4346e-05
3.43446e-05
3.43431e-05
3.43415e-05
3.43398e-05
3.43381e-05
3.43362e-05
3.43343e-05
3.43324e-05
3.43304e-05
3.43284e-05
3.43264e-05
3.43246e-05
3.4323e-05
3.43216e-05
0.00148481
0.00125692
0.00102077
0.00077921
0.000538644
0.000296511
0.000285048
3.43641e-05
3.43637e-05
3.43632e-05
3.43628e-05
3.43623e-05
3.43618e-05
3.43613e-05
3.43607e-05
3.43601e-05
3.43595e-05
3.43589e-05
3.43582e-05
3.43574e-05
3.43567e-05
3.43558e-05
3.4355e-05
3.43541e-05
3.43531e-05
3.43521e-05
3.4351e-05
3.43498e-05
3.43486e-05
3.43473e-05
3.4346e-05
3.43445e-05
3.4343e-05
3.43414e-05
3.43398e-05
3.4338e-05
3.43362e-05
3.43342e-05
3.43323e-05
3.43303e-05
3.43283e-05
3.43263e-05
3.43245e-05
3.43229e-05
3.43216e-05
0.00170222
0.00148569
0.00125963
0.00102467
0.000783533
0.000542246
0.000298717
0.000289426
3.43645e-05
3.43641e-05
3.43637e-05
3.43633e-05
3.43628e-05
3.43624e-05
3.43619e-05
3.43613e-05
3.43608e-05
3.43602e-05
3.43596e-05
3.43589e-05
3.43582e-05
3.43575e-05
3.43567e-05
3.43559e-05
3.4355e-05
3.43541e-05
3.43531e-05
3.43521e-05
3.4351e-05
3.43498e-05
3.43486e-05
3.43473e-05
3.4346e-05
3.43445e-05
3.4343e-05
3.43414e-05
3.43397e-05
3.43379e-05
3.43361e-05
3.43342e-05
3.43322e-05
3.43302e-05
3.43281e-05
3.43262e-05
3.43244e-05
3.43228e-05
3.43215e-05
0.00190489
0.00170045
0.00148633
0.00126218
0.00102849
0.00078765
0.000545993
0.00030097
0.000293856
3.43649e-05
3.43646e-05
3.43642e-05
3.43638e-05
3.43633e-05
3.43629e-05
3.43624e-05
3.43619e-05
3.43614e-05
3.43608e-05
3.43602e-05
3.43596e-05
3.43589e-05
3.43582e-05
3.43575e-05
3.43567e-05
3.43559e-05
3.4355e-05
3.43541e-05
3.43531e-05
3.43521e-05
3.4351e-05
3.43499e-05
3.43486e-05
3.43473e-05
3.4346e-05
3.43445e-05
3.4343e-05
3.43414e-05
3.43397e-05
3.43379e-05
3.4336e-05
3.43341e-05
3.43321e-05
3.433e-05
3.4328e-05
3.4326e-05
3.43242e-05
3.43227e-05
3.43215e-05
0.00209199
0.00189997
0.00169843
0.00148675
0.00126455
0.00103211
0.000791829
0.000549674
0.000303138
0.000298273
3.43654e-05
3.4365e-05
3.43646e-05
3.43642e-05
3.43638e-05
3.43634e-05
3.43629e-05
3.43625e-05
3.4362e-05
3.43614e-05
3.43609e-05
3.43603e-05
3.43596e-05
3.4359e-05
3.43583e-05
3.43576e-05
3.43568e-05
3.43559e-05
3.43551e-05
3.43542e-05
3.43532e-05
3.43521e-05
3.4351e-05
3.43499e-05
3.43486e-05
3.43473e-05
3.4346e-05
3.43445e-05
3.4343e-05
3.43413e-05
3.43396e-05
3.43378e-05
3.43359e-05
3.4334e-05
3.4332e-05
3.43299e-05
3.43279e-05
3.43259e-05
3.43241e-05
3.43226e-05
3.43214e-05
0.00226279
0.00208344
0.00189476
0.00169614
0.00148695
0.00126668
0.00103567
0.000795925
0.000553329
0.0003055
0.0003027
3.43657e-05
3.43654e-05
3.4365e-05
3.43647e-05
3.43643e-05
3.43639e-05
3.43634e-05
3.4363e-05
3.43625e-05
3.4362e-05
3.43615e-05
3.43609e-05
3.43603e-05
3.43597e-05
3.4359e-05
3.43583e-05
3.43576e-05
3.43568e-05
3.4356e-05
3.43551e-05
3.43542e-05
3.43532e-05
3.43522e-05
3.43511e-05
3.43499e-05
3.43486e-05
3.43473e-05
3.4346e-05
3.43445e-05
3.43429e-05
3.43413e-05
3.43396e-05
3.43378e-05
3.43359e-05
3.43339e-05
3.43319e-05
3.43298e-05
3.43277e-05
3.43257e-05
3.43239e-05
3.43224e-05
3.43214e-05
0.00241651
0.00225016
0.00207459
0.00188925
0.00169355
0.00148684
0.00126866
0.00103907
0.00080003
0.000557182
0.000307814
0.00030721
3.43661e-05
3.43658e-05
3.43655e-05
3.43651e-05
3.43647e-05
3.43643e-05
3.43639e-05
3.43635e-05
3.4363e-05
3.43625e-05
3.4362e-05
3.43615e-05
3.43609e-05
3.43604e-05
3.43597e-05
3.43591e-05
3.43584e-05
3.43576e-05
3.43568e-05
3.4356e-05
3.43551e-05
3.43542e-05
3.43532e-05
3.43522e-05
3.43511e-05
3.43499e-05
3.43487e-05
3.43473e-05
3.43459e-05
3.43445e-05
3.43429e-05
3.43413e-05
3.43395e-05
3.43377e-05
3.43358e-05
3.43338e-05
3.43317e-05
3.43297e-05
3.43276e-05
3.43256e-05
3.43238e-05
3.43223e-05
3.43213e-05
0.00255226
0.00239934
0.00223718
0.00206538
0.00188337
0.0016906
0.00148648
0.00127038
0.00104241
0.000804174
0.000560841
0.000310221
0.000311772
3.43665e-05
3.43662e-05
3.43658e-05
3.43655e-05
3.43651e-05
3.43648e-05
3.43644e-05
3.4364e-05
3.43635e-05
3.43631e-05
3.43626e-05
3.43621e-05
3.43616e-05
3.4361e-05
3.43604e-05
3.43598e-05
3.43591e-05
3.43584e-05
3.43577e-05
3.43569e-05
3.43561e-05
3.43552e-05
3.43542e-05
3.43533e-05
3.43522e-05
3.43511e-05
3.43499e-05
3.43487e-05
3.43473e-05
3.43459e-05
3.43445e-05
3.43429e-05
3.43412e-05
3.43395e-05
3.43376e-05
3.43357e-05
3.43337e-05
3.43316e-05
3.43295e-05
3.43274e-05
3.43254e-05
3.43236e-05
3.43222e-05
3.43213e-05
0.002669
0.00253008
0.00238177
0.00222378
0.0020557
0.00187705
0.00168733
0.00148578
0.00127195
0.00104564
0.000808132
0.000564658
0.000312704
0.000316348
3.43668e-05
3.43665e-05
3.43662e-05
3.43659e-05
3.43656e-05
3.43652e-05
3.43648e-05
3.43644e-05
3.4364e-05
3.43636e-05
3.43631e-05
3.43626e-05
3.43621e-05
3.43616e-05
3.4361e-05
3.43604e-05
3.43598e-05
3.43592e-05
3.43585e-05
3.43577e-05
3.43569e-05
3.43561e-05
3.43552e-05
3.43543e-05
3.43533e-05
3.43522e-05
3.43511e-05
3.43499e-05
3.43487e-05
3.43473e-05
3.43459e-05
3.43444e-05
3.43429e-05
3.43412e-05
3.43394e-05
3.43376e-05
3.43356e-05
3.43336e-05
3.43315e-05
3.43294e-05
3.43273e-05
3.43252e-05
3.43234e-05
3.4322e-05
3.43212e-05
0.00276554
0.0026413
0.00250742
0.0023637
0.00220985
0.00204552
0.00187033
0.0016836
0.00148484
0.0012733
0.00104867
0.000812193
0.000568547
0.000315261
0.000321052
3.43672e-05
3.43669e-05
3.43666e-05
3.43663e-05
3.43659e-05
3.43656e-05
3.43652e-05
3.43649e-05
3.43645e-05
3.43641e-05
3.43636e-05
3.43632e-05
3.43627e-05
3.43622e-05
3.43617e-05
3.43611e-05
3.43605e-05
3.43599e-05
3.43592e-05
3.43585e-05
3.43578e-05
3.4357e-05
3.43561e-05
3.43552e-05
3.43543e-05
3.43533e-05
3.43523e-05
3.43511e-05
3.43499e-05
3.43487e-05
3.43474e-05
3.43459e-05
3.43444e-05
3.43428e-05
3.43412e-05
3.43394e-05
3.43375e-05
3.43355e-05
3.43335e-05
3.43314e-05
3.43292e-05
3.43271e-05
3.4325e-05
3.43232e-05
3.43218e-05
3.43211e-05
0.00284056
0.00273179
0.00261302
0.00248415
0.00234499
0.0021953
0.00203482
0.00186303
0.00167951
0.00148352
0.00127435
0.00105165
0.000816225
0.000572449
0.000317868
0.000325872
3.43675e-05
3.43672e-05
3.43669e-05
3.43666e-05
3.43663e-05
3.4366e-05
3.43657e-05
3.43653e-05
3.43649e-05
3.43645e-05
3.43641e-05
3.43637e-05
3.43632e-05
3.43627e-05
3.43622e-05
3.43617e-05
3.43611e-05
3.43605e-05
3.43599e-05
3.43592e-05
3.43585e-05
3.43578e-05
3.4357e-05
3.43562e-05
3.43553e-05
3.43543e-05
3.43533e-05
3.43523e-05
3.43512e-05
3.435e-05
3.43487e-05
3.43474e-05
3.43459e-05
3.43444e-05
3.43428e-05
3.43411e-05
3.43393e-05
3.43374e-05
3.43355e-05
3.43334e-05
3.43312e-05
3.43291e-05
3.43269e-05
3.43248e-05
3.4323e-05
3.43217e-05
3.43211e-05
0.00289258
0.0028002
0.00269737
0.00258403
0.00246013
0.00232553
0.00218008
0.00202341
0.00185523
0.00167494
0.00148182
0.00127521
0.00105447
0.000820169
0.00057633
0.000320571
0.000330693
3.43678e-05
3.43675e-05
3.43673e-05
3.4367e-05
3.43667e-05
3.43664e-05
3.43661e-05
3.43657e-05
3.43654e-05
3.4365e-05
3.43646e-05
3.43642e-05
3.43637e-05
3.43633e-05
3.43628e-05
3.43623e-05
3.43618e-05
3.43612e-05
3.43606e-05
3.436e-05
3.43593e-05
3.43586e-05
3.43578e-05
3.43571e-05
3.43562e-05
3.43553e-05
3.43544e-05
3.43534e-05
3.43523e-05
3.43512e-05
3.435e-05
3.43487e-05
3.43474e-05
3.43459e-05
3.43444e-05
3.43428e-05
3.43411e-05
3.43393e-05
3.43374e-05
3.43354e-05
3.43333e-05
3.43311e-05
3.43289e-05
3.43267e-05
3.43246e-05
3.43228e-05
3.43215e-05
3.43211e-05
0.00291996
0.00284502
0.00275905
0.00266208
0.00255415
0.00243523
0.00230526
0.00216402
0.00201135
0.0018468
0.00166983
0.00147976
0.00127576
0.0010571
0.000824116
0.00058055
0.00032339
0.000335633
3.43681e-05
3.43679e-05
3.43676e-05
3.43673e-05
3.4367e-05
3.43667e-05
3.43664e-05
3.43661e-05
3.43658e-05
3.43654e-05
3.4365e-05
3.43646e-05
3.43642e-05
3.43638e-05
3.43633e-05
3.43629e-05
3.43623e-05
3.43618e-05
3.43612e-05
3.43606e-05
3.436e-05
3.43593e-05
3.43586e-05
3.43579e-05
3.43571e-05
3.43563e-05
3.43554e-05
3.43544e-05
3.43534e-05
3.43523e-05
3.43512e-05
3.435e-05
3.43487e-05
3.43474e-05
3.43459e-05
3.43444e-05
3.43428e-05
3.43411e-05
3.43392e-05
3.43373e-05
3.43353e-05
3.43332e-05
3.4331e-05
3.43287e-05
3.43265e-05
3.43244e-05
3.43226e-05
3.43215e-05
3.43212e-05
0.00292091
0.00286458
0.00279652
0.00271687
0.00262575
0.00252322
0.00240933
0.00228399
0.00214715
0.0019985
0.00183769
0.00166418
0.00147725
0.00127598
0.0010596
0.000828176
0.000584664
0.000326309
0.000340745
3.43684e-05
3.43682e-05
3.43679e-05
3.43677e-05
3.43674e-05
3.43671e-05
3.43668e-05
3.43665e-05
3.43662e-05
3.43658e-05
3.43655e-05
3.43651e-05
3.43647e-05
3.43643e-05
3.43638e-05
3.43634e-05
3.43629e-05
3.43624e-05
3.43619e-05
3.43613e-05
3.43607e-05
3.43601e-05
3.43594e-05
3.43587e-05
3.43579e-05
3.43571e-05
3.43563e-05
3.43554e-05
3.43545e-05
3.43534e-05
3.43524e-05
3.43512e-05
3.435e-05
3.43487e-05
3.43474e-05
3.43459e-05
3.43444e-05
3.43428e-05
3.4341e-05
3.43392e-05
3.43372e-05
3.43352e-05
3.4333e-05
3.43308e-05
3.43286e-05
3.43263e-05
3.43242e-05
3.43224e-05
3.43215e-05
3.43213e-05
0.00289349
0.00285703
0.00280807
0.00274681
0.00267346
0.00258817
0.0024911
0.00238228
0.00226172
0.00212931
0.00198479
0.00182785
0.00165793
0.00147424
0.00127592
0.00106198
0.000832044
0.000588763
0.000329372
0.000345998
3.43687e-05
3.43685e-05
3.43682e-05
3.4368e-05
3.43677e-05
3.43674e-05
3.43672e-05
3.43669e-05
3.43665e-05
3.43662e-05
3.43659e-05
3.43655e-05
3.43651e-05
3.43648e-05
3.43643e-05
3.43639e-05
3.43634e-05
3.4363e-05
3.43625e-05
3.43619e-05
3.43614e-05
3.43608e-05
3.43601e-05
3.43595e-05
3.43587e-05
3.4358e-05
3.43572e-05
3.43563e-05
3.43555e-05
3.43545e-05
3.43535e-05
3.43524e-05
3.43513e-05
3.43501e-05
3.43488e-05
3.43474e-05
3.43459e-05
3.43444e-05
3.43427e-05
3.4341e-05
3.43391e-05
3.43372e-05
3.43351e-05
3.43329e-05
3.43307e-05
3.43284e-05
3.43261e-05
3.43239e-05
3.43222e-05
3.43215e-05
3.43214e-05
0.00283565
0.00282043
0.00279183
0.00275015
0.00269565
0.0026286
0.0025492
0.00245763
0.00235398
0.00223826
0.00211039
0.00197016
0.00181722
0.00165099
0.00147076
0.00127551
0.00106404
0.000835843
0.000593089
0.000332568
0.000351412
3.4369e-05
3.43688e-05
3.43685e-05
3.43683e-05
3.4368e-05
3.43678e-05
3.43675e-05
3.43672e-05
3.43669e-05
3.43666e-05
3.43663e-05
3.43659e-05
3.43656e-05
3.43652e-05
3.43648e-05
3.43644e-05
3.4364e-05
3.43635e-05
3.4363e-05
3.43625e-05
3.4362e-05
3.43614e-05
3.43608e-05
3.43602e-05
3.43595e-05
3.43588e-05
3.4358e-05
3.43572e-05
3.43564e-05
3.43555e-05
3.43545e-05
3.43535e-05
3.43524e-05
3.43513e-05
3.43501e-05
3.43488e-05
3.43474e-05
3.43459e-05
3.43444e-05
3.43427e-05
3.43409e-05
3.43391e-05
3.43371e-05
3.4335e-05
3.43328e-05
3.43305e-05
3.43282e-05
3.43259e-05
3.43237e-05
3.4322e-05
3.43217e-05
3.43215e-05
0.0027452
0.00275268
0.00274582
0.002725
0.00269056
0.00264283
0.00258211
0.00250865
0.00242266
0.00232427
0.0022135
0.00209031
0.00195451
0.00180569
0.00164336
0.0014667
0.00127461
0.00106586
0.000839683
0.000597482
0.000335924
0.000357002
3.43693e-05
3.43691e-05
3.43688e-05
3.43686e-05
3.43683e-05
3.43681e-05
3.43678e-05
3.43676e-05
3.43673e-05
3.4367e-05
3.43667e-05
3.43663e-05
3.4366e-05
3.43656e-05
3.43653e-05
3.43649e-05
3.43645e-05
3.4364e-05
3.43636e-05
3.43631e-05
3.43626e-05
3.4362e-05
3.43615e-05
3.43609e-05
3.43602e-05
3.43596e-05
3.43588e-05
3.43581e-05
3.43573e-05
3.43564e-05
3.43555e-05
3.43546e-05
3.43536e-05
3.43525e-05
3.43513e-05
3.43501e-05
3.43488e-05
3.43474e-05
3.43459e-05
3.43444e-05
3.43427e-05
3.43409e-05
3.4339e-05
3.4337e-05
3.43349e-05
3.43327e-05
3.43304e-05
3.4328e-05
3.43256e-05
3.43234e-05
3.43219e-05
3.43218e-05
3.43217e-05
0.00261991
0.00265158
0.00266792
0.00266934
0.00265626
0.00262905
0.00258811
0.00253377
0.00246633
0.00238603
0.00229301
0.00218733
0.00206897
0.00193771
0.00179322
0.00163493
0.00146197
0.00127328
0.0010675
0.000843424
0.000601968
0.000339452
0.00036274
3.43695e-05
3.43693e-05
3.43691e-05
3.43689e-05
3.43686e-05
3.43684e-05
3.43682e-05
3.43679e-05
3.43676e-05
3.43673e-05
3.4367e-05
3.43667e-05
3.43664e-05
3.43661e-05
3.43657e-05
3.43653e-05
3.43649e-05
3.43645e-05
3.43641e-05
3.43636e-05
3.43631e-05
3.43626e-05
3.43621e-05
3.43615e-05
3.43609e-05
3.43603e-05
3.43596e-05
3.43589e-05
3.43581e-05
3.43573e-05
3.43565e-05
3.43556e-05
3.43546e-05
3.43536e-05
3.43525e-05
3.43514e-05
3.43501e-05
3.43488e-05
3.43474e-05
3.43459e-05
3.43444e-05
3.43427e-05
3.43409e-05
3.4339e-05
3.43369e-05
3.43348e-05
3.43325e-05
3.43302e-05
3.43278e-05
3.43254e-05
3.43231e-05
3.43219e-05
3.43221e-05
3.43219e-05
0.00245754
0.00251491
0.00255593
0.00258104
0.00259068
0.0025853
0.00256535
0.00253125
0.00248338
0.00242206
0.00234755
0.00226004
0.00215961
0.00204621
0.00191969
0.00177969
0.00162558
0.00145657
0.00127153
0.00106883
0.000847106
0.000606564
0.000343199
0.000368775
3.43698e-05
3.43696e-05
3.43694e-05
3.43692e-05
3.43689e-05
3.43687e-05
3.43685e-05
3.43682e-05
3.43679e-05
3.43677e-05
3.43674e-05
3.43671e-05
3.43668e-05
3.43665e-05
3.43661e-05
3.43658e-05
3.43654e-05
3.4365e-05
3.43646e-05
3.43641e-05
3.43637e-05
3.43632e-05
3.43627e-05
3.43622e-05
3.43616e-05
3.4361e-05
3.43603e-05
3.43597e-05
3.4359e-05
3.43582e-05
3.43574e-05
3.43565e-05
3.43556e-05
3.43547e-05
3.43537e-05
3.43526e-05
3.43514e-05
3.43502e-05
3.43488e-05
3.43474e-05
3.43459e-05
3.43443e-05
3.43426e-05
3.43408e-05
3.43389e-05
3.43368e-05
3.43347e-05
3.43324e-05
3.433e-05
3.43276e-05
3.43251e-05
3.43229e-05
3.4322e-05
3.43223e-05
3.43221e-05
0.00225595
0.00234048
0.00240763
0.00245789
0.00249168
0.00250951
0.00251186
0.00249922
0.00247203
0.00243072
0.00237563
0.00230706
0.00222521
0.00213018
0.00202194
0.00190032
0.00176497
0.0016153
0.00145049
0.0012692
0.00106985
0.000850649
0.000611223
0.000347127
0.000375105
3.43701e-05
3.43699e-05
3.43697e-05
3.43694e-05
3.43692e-05
3.4369e-05
3.43688e-05
3.43685e-05
3.43683e-05
3.4368e-05
3.43677e-05
3.43675e-05
3.43672e-05
3.43668e-05
3.43665e-05
3.43662e-05
3.43658e-05
3.43654e-05
3.43651e-05
3.43646e-05
3.43642e-05
3.43637e-05
3.43633e-05
3.43628e-05
3.43622e-05
3.43616e-05
3.4361e-05
3.43604e-05
3.43597e-05
3.4359e-05
3.43583e-05
3.43575e-05
3.43566e-05
3.43557e-05
3.43547e-05
3.43537e-05
3.43526e-05
3.43514e-05
3.43502e-05
3.43489e-05
3.43475e-05
3.4346e-05
3.43443e-05
3.43426e-05
3.43408e-05
3.43388e-05
3.43368e-05
3.43346e-05
3.43323e-05
3.43298e-05
3.43273e-05
3.43248e-05
3.43227e-05
3.43221e-05
3.43226e-05
3.43223e-05
0.00201322
0.0021262
0.0022209
0.00229773
0.00235709
0.00239952
0.00242554
0.00243565
0.00243037
0.0024102
0.00237556
0.00232685
0.00226436
0.00218833
0.00209888
0.00199598
0.00187947
0.001749
0.00160402
0.00144353
0.00126629
0.00107047
0.000854036
0.000615874
0.000351336
0.00038167
3.43703e-05
3.43701e-05
3.43699e-05
3.43697e-05
3.43695e-05
3.43693e-05
3.43691e-05
3.43688e-05
3.43686e-05
3.43683e-05
3.43681e-05
3.43678e-05
3.43675e-05
3.43672e-05
3.43669e-05
3.43666e-05
3.43662e-05
3.43659e-05
3.43655e-05
3.43651e-05
3.43647e-05
3.43643e-05
3.43638e-05
3.43633e-05
3.43628e-05
3.43623e-05
3.43617e-05
3.43611e-05
3.43605e-05
3.43598e-05
3.43591e-05
3.43583e-05
3.43575e-05
3.43567e-05
3.43557e-05
3.43548e-05
3.43537e-05
3.43527e-05
3.43515e-05
3.43502e-05
3.43489e-05
3.43475e-05
3.4346e-05
3.43443e-05
3.43426e-05
3.43408e-05
3.43388e-05
3.43367e-05
3.43345e-05
3.43321e-05
3.43296e-05
3.43271e-05
3.43245e-05
3.43225e-05
3.43223e-05
3.4323e-05
3.43225e-05
0.00172782
0.00187034
0.00199378
0.00209849
0.00218478
0.00225319
0.00230424
0.00233845
0.00235637
0.00235855
0.00234549
0.00231767
0.00227547
0.00221924
0.00214922
0.00206553
0.00196818
0.001857
0.00173168
0.00159153
0.00143567
0.00126265
0.00107064
0.000857277
0.000620891
0.000355822
0.0003885
3.43706e-05
3.43704e-05
3.43702e-05
3.437e-05
3.43698e-05
3.43696e-05
3.43694e-05
3.43691e-05
3.43689e-05
3.43686e-05
3.43684e-05
3.43681e-05
3.43679e-05
3.43676e-05
3.43673e-05
3.4367e-05
3.43666e-05
3.43663e-05
3.43659e-05
3.43656e-05
3.43652e-05
3.43648e-05
3.43643e-05
3.43639e-05
3.43634e-05
3.43629e-05
3.43623e-05
3.43618e-05
3.43612e-05
3.43605e-05
3.43599e-05
3.43591e-05
3.43584e-05
3.43576e-05
3.43567e-05
3.43558e-05
3.43548e-05
3.43538e-05
3.43527e-05
3.43515e-05
3.43503e-05
3.43489e-05
3.43475e-05
3.4346e-05
3.43443e-05
3.43426e-05
3.43407e-05
3.43387e-05
3.43366e-05
3.43344e-05
3.4332e-05
3.43295e-05
3.43268e-05
3.43242e-05
3.43224e-05
3.43226e-05
3.43233e-05
3.43228e-05
0.00139878
0.00157161
0.00172471
0.00185836
0.00197277
0.00206846
0.00214585
0.00220549
0.00224792
0.00227373
0.00228345
0.00227765
0.00225677
0.00222126
0.00217147
0.00210764
0.00202993
0.00193835
0.00183277
0.00171277
0.00157777
0.00142674
0.00125827
0.00107037
0.000860462
0.000625929
0.000360656
0.000395726
3.43708e-05
3.43706e-05
3.43704e-05
3.43702e-05
3.437e-05
3.43698e-05
3.43696e-05
3.43694e-05
3.43692e-05
3.4369e-05
3.43687e-05
3.43685e-05
3.43682e-05
3.43679e-05
3.43676e-05
3.43673e-05
3.4367e-05
3.43667e-05
3.43664e-05
3.4366e-05
3.43656e-05
3.43652e-05
3.43648e-05
3.43644e-05
3.43639e-05
3.43635e-05
3.43629e-05
3.43624e-05
3.43618e-05
3.43612e-05
3.43606e-05
3.43599e-05
3.43592e-05
3.43584e-05
3.43576e-05
3.43568e-05
3.43559e-05
3.43549e-05
3.43539e-05
3.43527e-05
3.43516e-05
3.43503e-05
3.4349e-05
3.43475e-05
3.4346e-05
3.43443e-05
3.43426e-05
3.43407e-05
3.43387e-05
3.43365e-05
3.43342e-05
3.43318e-05
3.43293e-05
3.43266e-05
3.4324e-05
3.43224e-05
3.43229e-05
3.43238e-05
3.4323e-05
0.00102502
0.00122917
0.00141261
0.00157597
0.00171944
0.00184348
0.0019484
0.00203471
0.00210293
0.00215363
0.0021874
0.0022048
0.00220636
0.00219261
0.00216396
0.00212079
0.00206338
0.00199188
0.00190632
0.00180654
0.00169218
0.00156255
0.00141667
0.00125306
0.00106961
0.000863338
0.000631034
0.0003659
0.000403492
3.43711e-05
3.43709e-05
3.43707e-05
3.43705e-05
3.43703e-05
3.43701e-05
3.43699e-05
3.43697e-05
3.43695e-05
3.43693e-05
3.4369e-05
3.43688e-05
3.43685e-05
3.43683e-05
3.4368e-05
3.43677e-05
3.43674e-05
3.43671e-05
3.43668e-05
3.43664e-05
3.43661e-05
3.43657e-05
3.43653e-05
3.43649e-05
3.43645e-05
3.4364e-05
3.43635e-05
3.4363e-05
3.43625e-05
3.43619e-05
3.43613e-05
3.43607e-05
3.436e-05
3.43593e-05
3.43585e-05
3.43577e-05
3.43568e-05
3.43559e-05
3.4355e-05
3.43539e-05
3.43528e-05
3.43516e-05
3.43503e-05
3.4349e-05
3.43476e-05
3.4346e-05
3.43443e-05
3.43426e-05
3.43407e-05
3.43386e-05
3.43365e-05
3.43341e-05
3.43317e-05
3.43291e-05
3.43263e-05
3.43237e-05
3.43224e-05
3.43232e-05
3.43242e-05
3.43234e-05
0.000604013
0.000840772
0.00105662
0.00125044
0.00142367
0.00157681
0.0017102
0.00182425
0.00191942
0.00199624
0.00205525
0.00209706
0.00212224
0.00213134
0.00212486
0.00210326
0.00206693
0.00201616
0.00195111
0.00187181
0.00177813
0.00166966
0.00154574
0.00140534
0.00124692
0.00106817
0.000865916
0.00063613
0.000371573
0.000411713
3.43713e-05
3.43711e-05
3.43709e-05
3.43708e-05
3.43706e-05
3.43704e-05
3.43702e-05
3.437e-05
3.43698e-05
3.43695e-05
3.43693e-05
3.43691e-05
3.43688e-05
3.43686e-05
3.43683e-05
3.4368e-05
3.43678e-05
3.43675e-05
3.43672e-05
3.43668e-05
3.43665e-05
3.43661e-05
3.43658e-05
3.43654e-05
3.4365e-05
3.43645e-05
3.43641e-05
3.43636e-05
3.43631e-05
3.43625e-05
3.4362e-05
3.43614e-05
3.43607e-05
3.43601e-05
3.43593e-05
3.43586e-05
3.43578e-05
3.43569e-05
3.4356e-05
3.4355e-05
3.4354e-05
3.43529e-05
3.43517e-05
3.43504e-05
3.4349e-05
3.43476e-05
3.4346e-05
3.43444e-05
3.43426e-05
3.43406e-05
3.43386e-05
3.43364e-05
3.4334e-05
3.43315e-05
3.43289e-05
3.4326e-05
3.43235e-05
3.43225e-05
3.43236e-05
3.43247e-05
3.43237e-05
0.000210163
0.000416683
0.000653321
0.00088019
0.00108464
0.00126752
0.00143003
0.00157261
0.00169565
0.00179965
0.00188504
0.00195243
0.00200237
0.00203545
0.00205222
0.00205319
0.00203885
0.00200958
0.00196568
0.00190733
0.00183457
0.00174726
0.001645
0.00152713
0.00139256
0.00123963
0.00106599
0.000868106
0.00064148
0.000377817
0.00042036
3.43715e-05
3.43714e-05
3.43712e-05
3.4371e-05
3.43708e-05
3.43706e-05
3.43704e-05
3.43702e-05
3.437e-05
3.43698e-05
3.43696e-05
3.43694e-05
3.43691e-05
3.43689e-05
3.43686e-05
3.43684e-05
3.43681e-05
3.43678e-05
3.43675e-05
3.43672e-05
3.43669e-05
3.43666e-05
3.43662e-05
3.43658e-05
3.43654e-05
3.4365e-05
3.43646e-05
3.43641e-05
3.43637e-05
3.43632e-05
3.43626e-05
3.4362e-05
3.43614e-05
3.43608e-05
3.43601e-05
3.43594e-05
3.43587e-05
3.43578e-05
3.4357e-05
3.43561e-05
3.43551e-05
3.4354e-05
3.43529e-05
3.43517e-05
3.43504e-05
3.43491e-05
3.43476e-05
3.4346e-05
3.43444e-05
3.43426e-05
3.43406e-05
3.43385e-05
3.43363e-05
3.43339e-05
3.43314e-05
3.43286e-05
3.43258e-05
3.43233e-05
3.43227e-05
3.43241e-05
3.43252e-05
3.43241e-05
2.61702e-05
0.000100188
0.000252804
0.000467798
0.000699212
0.000914486
0.00110712
0.0012788
0.00143036
0.0015623
0.00167502
0.001769
0.00184478
0.00190294
0.00194404
0.00196862
0.00197724
0.00197036
0.00194837
0.00191159
0.00186022
0.00179429
0.00171367
0.00161795
0.00150647
0.00137807
0.00123107
0.00106294
0.000870057
0.000647057
0.000384731
0.000429691
3.43718e-05
3.43716e-05
3.43714e-05
3.43712e-05
3.43711e-05
3.43709e-05
3.43707e-05
3.43705e-05
3.43703e-05
3.43701e-05
3.43699e-05
3.43697e-05
3.43694e-05
3.43692e-05
3.4369e-05
3.43687e-05
3.43685e-05
3.43682e-05