/*--------------------------------*- C++ -*----------------------------------*\
  =========                 |
  \\      /  F ield         | OpenFOAM: The Open Source CFD Toolbox
   \\    /   O peration     | Website:  https://openfoam.org
    \\  /    A nd           | Version:  7
     \\/     M anipulation  |
\*---------------------------------------------------------------------------*/
FoamFile
{
    version     2.0;
    format      ascii;
    class       volScalarField;
    location    "1000";
    object      p;
}
// * * * * * * * * * * * * * * * * * * * * * * * * * * * * * * * * * * * * * //

dimensions      [0 2 -2 0 0 0 0];

internalField   nonuniform List<scalar> 
23064
(
-7.0463
-7.06704
-7.32524
-7.05834
-7.34016
-7.60345
-7.26631
-7.32592
-7.61172
-7.88101
-7.52893
-7.54389
-7.59161
-7.88156
-8.15785
-7.81214
-7.81591
-7.82002
-7.85531
-8.14949
-8.43381
-8.14647
-8.10765
-8.10159
-8.09463
-8.11677
-8.41533
-8.70866
-8.53323
-8.45234
-8.40183
-8.38587
-8.36743
-8.3759
-8.6789
-8.98224
-8.96531
-8.85087
-8.75701
-8.69467
-8.66846
-8.63839
-8.63256
-8.94006
-9.25476
-9.44193
-9.29561
-9.16746
-9.06046
-8.98596
-8.94939
-8.90741
-8.88655
-9.1986
-9.52589
-9.96358
-9.78601
-9.62494
-9.48283
-9.36245
-9.27558
-9.22839
-9.17419
-9.13774
-9.45437
-9.79553
-10.5296
-10.3226
-10.1292
-9.95317
-9.79684
-9.66283
-9.56332
-9.50527
-9.43877
-9.38594
-9.70705
-10.0636
-11.1395
-10.9046
-10.6808
-10.4714
-10.2801
-10.1094
-9.96156
-9.8491
-9.78002
-9.70082
-9.63096
-9.95657
-10.3298
-11.7931
-11.5316
-11.2789
-11.038
-10.8124
-10.6057
-10.4204
-10.2584
-10.1328
-10.0524
-9.96039
-9.8727
-10.2027
-10.5944
-12.4906
-12.2034
-11.923
-11.6522
-11.3941
-11.152
-10.9298
-10.7297
-10.5534
-10.4142
-10.3223
-10.2171
-10.1109
-10.4451
-10.8568
-13.2323
-12.9203
-12.6131
-12.3135
-12.0245
-11.749
-11.4903
-11.2523
-11.0371
-10.8462
-10.6932
-10.5895
-10.4709
-10.3455
-10.6837
-11.117
-14.0184
-13.6824
-13.3493
-13.0219
-12.703
-12.3955
-12.1024
-11.827
-11.5729
-11.3424
-11.1367
-10.9695
-10.8538
-10.7218
-10.5762
-10.9182
-11.3751
-14.8496
-14.4901
-14.1318
-13.7775
-13.4297
-13.0913
-12.7653
-12.4544
-12.1619
-11.8916
-11.6456
-11.4247
-11.2431
-11.1153
-10.9693
-10.8029
-11.1484
-11.6305
-15.7266
-15.3441
-14.9612
-14.5805
-14.2046
-13.8363
-13.4784
-13.1335
-12.8046
-12.4949
-12.2081
-11.9464
-11.7102
-11.5138
-11.3734
-11.2135
-11.0254
-11.374
-11.8836
-16.6503
-16.2451
-15.8379
-15.4314
-15.0281
-14.6306
-14.2417
-13.8639
-13.5001
-13.1531
-12.8259
-12.5225
-12.2448
-11.9929
-11.7815
-11.6282
-11.454
-11.2434
-11.5948
-12.1338
-17.6216
-17.194
-16.763
-16.331
-15.9007
-15.4746
-15.0554
-14.6456
-14.2478
-13.8649
-13.4995
-13.1548
-12.8344
-12.5405
-12.2728
-12.0459
-11.8795
-11.6909
-11.4569
-11.8105
-12.3809
-18.6419
-18.1919
-17.7372
-17.28
-16.823
-16.3688
-15.9199
-15.4787
-15.0479
-14.63
-14.2278
-13.8439
-13.4813
-13.1438
-12.8334
-12.5495
-12.3069
-12.1272
-11.9239
-11.6657
-12.021
-12.6247
-19.7122
-19.24
-18.7616
-18.2794
-17.796
-17.3139
-16.8356
-16.3636
-15.9004
-15.4484
-15.0103
-14.5886
-14.1859
-13.8053
-13.4505
-13.1234
-12.8231
-12.5644
-12.3709
-12.1527
-11.8695
-12.2258
-12.8655
-20.8341
-20.3397
-19.8376
-19.3304
-18.8206
-18.3107
-17.8034
-17.3009
-16.8057
-16.3203
-15.847
-15.3884
-14.9471
-14.5255
-14.1267
-13.7542
-13.4103
-13.0933
-12.818
-12.6105
-12.3773
-12.0681
-12.4248
-13.1027
-22.009
-21.4923
-20.9665
-20.4341
-19.898
-19.3605
-18.8241
-18.2914
-17.7645
-17.246
-16.7382
-16.2435
-15.7644
-15.3032
-14.8625
-14.4452
-14.055
-13.6938
-13.3597
-13.0678
-12.8459
-12.5974
-12.2614
-12.6177
-13.3362
-23.2388
-22.6995
-22.1497
-21.5922
-21.0295
-20.4643
-19.8989
-19.336
-18.7776
-18.2264
-17.6844
-17.1541
-16.6378
-16.1378
-15.6567
-15.1968
-14.7608
-14.3525
-13.974
-13.6227
-13.3135
-13.0768
-12.8129
-12.4492
-12.8041
-13.5658
-24.5252
-23.963
-23.3891
-22.8061
-22.2167
-21.6235
-21.0291
-20.4358
-19.846
-19.262
-18.6861
-18.1207
-17.5677
-17.0297
-16.5088
-16.0075
-15.5281
-15.0733
-14.6467
-14.2505
-13.8817
-13.5547
-13.3031
-13.0236
-12.6312
-12.9838
-13.791
-25.8701
-25.2849
-24.6864
-24.0776
-23.4612
-22.8398
-22.2159
-21.5921
-20.9707
-20.3541
-19.7443
-19.1438
-18.5545
-17.9788
-17.4189
-16.877
-16.3554
-15.8563
-15.3824
-14.9373
-14.5231
-14.1364
-13.7916
-13.5245
-13.2293
-12.8074
-13.1564
-14.012
-27.2758
-26.667
-26.0436
-25.4085
-24.7647
-24.1147
-23.4611
-22.8065
-22.1533
-21.5037
-20.86
-20.2244
-19.599
-18.9859
-18.3873
-17.8054
-17.2422
-16.7001
-16.1813
-15.6881
-15.2243
-14.7919
-14.387
-14.0238
-13.7408
-13.4297
-12.9775
-13.3218
-14.2283
-28.7442
-28.1114
-27.4628
-26.801
-26.1293
-25.4501
-24.7665
-24.0807
-23.3952
-22.7123
-22.0344
-21.3635
-20.7019
-20.0516
-19.4146
-18.793
-18.1889
-17.6044
-17.0417
-16.5028
-15.9901
-15.5073
-15.0565
-14.6332
-14.2512
-13.9519
-13.6247
-13.1412
-13.4795
-14.4395
-30.2776
-29.6206
-28.9461
-28.2572
-27.5569
-26.8482
-26.1337
-25.4161
-24.6979
-23.9814
-23.2689
-22.5626
-21.8645
-21.1768
-20.5014
-19.8404
-19.1957
-18.5693
-17.9633
-17.3798
-16.8207
-16.2883
-15.7863
-15.3167
-14.8748
-14.4737
-14.1576
-13.8141
-13.2985
-13.6294
-14.6457
-471.912
-31.8787
-31.1967
-30.4958
-29.7791
-29.0498
-28.3109
-27.565
-26.8151
-26.0636
-25.3129
-24.5653
-23.823
-23.0881
-22.3628
-21.6488
-20.9484
-20.2632
-19.5952
-18.9465
-18.3188
-17.7143
-17.1348
-16.5826
-16.061
-15.5725
-15.1115
-14.6908
-14.3575
-13.9978
-13.4491
-13.7709
-14.8466
-471.932
-501.663
-33.5499
-32.8425
-32.1145
-31.3694
-30.6104
-29.8405
-29.0627
-28.2797
-27.4941
-26.7085
-25.9252
-25.1464
-24.3743
-23.6108
-22.858
-22.1178
-21.3921
-20.6826
-19.9914
-19.3201
-18.6706
-18.045
-17.445
-16.8726
-16.3314
-15.8236
-15.3433
-14.9025
-14.5516
-14.1753
-13.5928
-13.9039
-15.0422
-471.927
-501.678
-531.828
-35.2938
-34.5605
-33.8049
-33.0306
-32.2412
-31.4396
-30.6289
-29.8121
-28.9917
-28.1704
-27.3506
-26.5347
-25.7246
-24.9224
-24.1303
-23.35
-22.5835
-21.8325
-21.0987
-20.384
-19.6901
-19.0187
-18.3718
-17.7511
-17.1584
-16.5971
-16.0698
-15.5699
-15.1087
-14.7397
-14.3467
-13.7294
-14.0279
-15.2316
-471.903
-501.666
-531.837
-562.371
-37.1135
-36.3534
-35.5695
-34.7654
-33.9446
-33.1105
-32.2662
-31.4146
-30.5586
-29.7009
-28.8437
-27.9897
-27.141
-26.2995
-25.4673
-24.6465
-23.8387
-23.0457
-22.2693
-21.5111
-20.7728
-20.0562
-19.3628
-18.6945
-18.0529
-17.4396
-16.8582
-16.311
-15.7912
-15.3092
-14.9215
-14.5116
-13.8589
-14.1427
-15.4144
-471.876
-501.638
-531.82
-562.373
-593.447
-39.0118
-38.2244
-37.4114
-36.5765
-35.7237
-34.8562
-33.9772
-33.09
-32.1974
-31.3022
-30.4069
-29.5139
-28.6255
-27.7438
-26.871
-26.0088
-25.1591
-24.3237
-23.5042
-22.7023
-21.9197
-21.1578
-20.4183
-19.7027
-19.0128
-18.3501
-17.7162
-17.1142
-16.5469
-16.007
-15.5037
-15.0967
-14.67
-13.981
-14.2478
-15.5906
-471.846
-501.605
-531.784
-562.35
-593.442
-624.995
-40.9918
-40.1764
-39.3334
-38.4672
-37.5812
-36.6793
-35.7647
-34.8408
-33.9107
-32.977
-32.0424
-31.1095
-30.1805
-29.2577
-28.3431
-27.4388
-26.5464
-25.6679
-24.8048
-23.9588
-23.1315
-22.3242
-21.5386
-20.7762
-20.0383
-19.3267
-18.6428
-17.9879
-17.3652
-16.7775
-16.2171
-15.692
-15.2652
-14.8215
-14.0954
-14.3431
-15.7603
-471.812
-501.569
-531.746
-562.31
-593.411
-624.984
-657.176
-43.0568
-42.2125
-41.3389
-40.4401
-39.5203
-38.5829
-37.6319
-36.6702
-35.7013
-34.728
-33.7531
-32.7791
-31.8084
-30.8433
-29.8861
-28.9386
-28.0027
-27.0802
-26.1727
-25.2819
-24.4094
-23.5564
-22.7246
-21.9152
-21.1297
-20.3694
-19.6359
-18.9306
-18.2545
-17.6109
-17.0025
-16.4212
-15.874
-15.4268
-14.9659
-14.2021
-14.4281
-15.923
-471.775
-501.528
-531.701
-562.264
-593.365
-624.946
-657.155
-689.936
-45.2101
-44.3363
-43.4311
-42.4989
-41.5441
-40.5703
-39.5816
-38.5811
-37.5722
-36.5581
-35.5415
-34.5251
-33.5116
-32.5032
-31.502
-30.5103
-29.5298
-28.5623
-27.6096
-26.6733
-25.7548
-24.8556
-23.9771
-23.1205
-22.2872
-21.4786
-20.6958
-19.9403
-19.2134
-18.516
-17.8512
-17.2217
-16.6194
-16.0495
-15.5814
-15.1031
-14.3009
-14.5025
-16.078
-471.734
-501.483
-531.653
-562.215
-593.312
-624.894
-657.112
-689.91
-723.422
-47.4555
-46.5511
-45.6134
-44.6469
-43.6561
-42.6448
-41.6171
-40.5765
-39.5265
-38.4703
-37.4108
-36.3509
-35.2931
-34.24
-33.1937
-32.1564
-31.1301
-30.1165
-29.1175
-28.1347
-27.1694
-26.2231
-25.2973
-24.3931
-23.5118
-22.6546
-21.8228
-21.0174
-20.2397
-19.491
-18.7721
-18.0858
-17.435
-16.8112
-16.2183
-15.7286
-15.2329
-14.3917
-14.5658
-16.2247
-471.691
-501.435
-531.6
-562.158
-593.252
-624.834
-657.052
-689.86
-723.386
-757.695
-49.7964
-48.8607
-47.8896
-46.8878
-45.8597
-44.8098
-43.7419
-42.6599
-41.5673
-40.4677
-39.3639
-38.259
-37.1557
-36.0564
-34.9636
-33.8795
-32.8061
-31.7452
-30.6987
-29.6681
-28.655
-27.6608
-26.6868
-25.7343
-24.8044
-23.8983
-23.0172
-22.162
-21.3338
-20.5339
-19.7633
-19.0227
-18.3146
-17.6423
-16.9967
-16.3802
-15.8681
-15.355
-14.4742
-14.6177
-16.3635
-471.644
-501.382
-531.542
-562.098
-593.188
-624.768
-656.984
-689.792
-723.329
-757.651
-792.807
-52.2371
-51.2691
-50.2635
-49.2251
-48.1588
-47.0688
-45.9594
-44.8347
-43.6983
-42.5537
-41.4043
-40.2528
-39.1024
-37.9557
-36.8148
-35.6824
-34.5605
-33.4508
-32.3554
-31.2759
-30.2137
-29.1704
-28.1473
-27.1455
-26.1663
-25.2108
-24.2798
-23.3746
-22.4961
-21.6451
-20.8228
-20.03
-19.2675
-18.5374
-17.8432
-17.1755
-16.535
-16
-15.4691
-14.5484
-14.6581
-16.4936
-471.594
-501.326
-531.479
-562.031
-593.117
-624.695
-656.908
-689.715
-723.252
-757.581
-792.752
-828.801
-54.7813
-53.7802
-52.739
-51.6629
-50.5569
-49.4257
-48.2736
-47.1047
-45.923
-44.732
-43.5352
-42.3357
-41.1365
-39.9407
-38.7503
-37.5681
-36.3959
-35.2361
-34.0903
-32.9604
-31.8479
-30.7542
-29.6807
-28.6286
-27.5991
-26.5932
-25.6119
-24.6561
-23.7268
-22.8248
-21.9509
-21.1061
-20.2911
-19.5064
-18.754
-18.0376
-17.3476
-16.6827
-16.124
-15.5753
-14.6141
-14.6864
-16.6138
-471.539
-501.265
-531.411
-561.959
-593.04
-624.615
-656.825
-689.632
-723.168
-757.498
-792.676
-828.737
-865.876
-57.4336
-56.3981
-55.3202
-54.2054
-53.0587
-51.8846
-50.6883
-49.4738
-48.2451
-47.0062
-45.7604
-44.5112
-43.2618
-42.0149
-40.7734
-39.5395
-38.3157
-37.1039
-35.9062
-34.7243
-33.5599
-32.4144
-31.2892
-30.1856
-29.1046
-28.0473
-27.0148
-26.0077
-25.0271
-24.0736
-23.1481
-22.2512
-21.3837
-20.5463
-19.7392
-18.9644
-18.2255
-17.5128
-16.823
-16.2398
-15.6731
-14.6711
-14.7022
-16.7256
-471.48
-501.198
-531.337
-561.88
-592.955
-624.528
-656.735
-689.541
-723.075
-757.404
-792.582
-828.652
-865.801
-904.035
-60.1982
-59.1273
-58.0116
-56.8566
-55.6677
-54.4497
-53.2075
-51.9458
-50.6687
-49.38
-48.0838
-46.7831
-45.4816
-44.1821
-42.8875
-41.6004
-40.3229
-39.0574
-37.806
-36.5705
-35.3525
-34.1536
-32.9752
-31.8185
-30.6848
-29.5749
-28.49
-27.4307
-26.398
-25.3924
-24.4148
-23.4657
-22.5457
-21.6554
-20.7954
-19.9658
-19.1683
-18.4065
-17.6708
-16.9557
-16.3472
-15.7624
-14.7195
-14.7052
-16.8275
-471.417
-501.126
-531.257
-561.795
-592.865
-624.434
-656.635
-689.438
-722.971
-757.3
-792.478
-828.55
-865.703
-903.949
-943.391
-63.0799
-61.9724
-60.8177
-59.6212
-58.3886
-57.1252
-55.8359
-54.525
-53.1978
-51.8577
-50.5089
-49.1552
-47.7997
-46.4457
-45.0962
-43.7536
-42.4209
-41.0998
-39.7928
-38.5019
-37.2285
-35.9745
-34.7413
-33.53
-32.3419
-31.1781
-30.0395
-28.9268
-27.8409
-26.7825
-25.752
-24.7502
-23.7775
-22.8342
-21.9211
-21.0384
-20.1861
-19.3655
-18.5806
-17.8216
-17.0807
-16.4462
-15.8431
-14.759
-14.6953
-16.918
-471.351
-501.049
-531.171
-561.703
-592.765
-624.33
-656.528
-689.33
-722.861
-757.187
-792.363
-828.435
-865.591
-903.841
-943.291
-984.081
-66.0837
-64.9385
-63.7432
-62.504
-61.2262
-59.9155
-58.5773
-57.2161
-55.8367
-54.4434
-53.0406
-51.6315
-50.22
-48.8098
-47.4032
-46.0034
-44.613
-43.2346
-41.8701
-40.5217
-39.1911
-37.8801
-36.5902
-35.3226
-34.0785
-32.8592
-31.6653
-30.4979
-29.3577
-28.2451
-27.161
-26.1056
-25.0796
-24.0832
-23.1167
-22.1805
-21.275
-20.3998
-19.556
-18.7476
-17.9649
-17.1979
-16.5364
-15.9148
-14.7897
-14.6719
-16.9987
-471.277
-500.967
-531.078
-561.602
-592.658
-624.219
-656.411
-689.209
-722.737
-757.063
-792.238
-828.311
-865.466
-903.717
-943.173
-983.968
-1026.32
-69.2143
-68.03
-66.7932
-65.5095
-64.1851
-62.8258
-61.4366
-60.0233
-58.5902
-57.1417
-55.6825
-54.2165
-52.747
-51.278
-49.8127
-48.3534
-46.9037
-45.4653
-44.0414
-42.6335
-41.2436
-39.8735
-38.525
-37.1991
-35.8973
-34.6206
-33.3699
-32.1461
-30.9501
-29.7822
-28.6431
-27.5334
-26.4531
-25.4028
-24.3827
-23.3929
-22.4336
-21.5051
-20.6067
-19.7395
-18.9073
-18.1006
-17.3071
-16.6178
-15.9774
-14.8115
-14.6347
-17.0687
-471.199
-500.877
-530.977
-561.495
-592.542
-624.098
-656.285
-689.08
-722.606
-756.927
-792.1
-828.172
-865.327
-903.579
-943.036
-983.837
-1026.19
-1070.08
-72.4779
-71.253
-69.9727
-68.6435
-67.2705
-65.8607
-64.4193
-62.9513
-61.4626
-59.9572
-58.4396
-56.9144
-55.385
-53.8552
-52.3283
-50.8078
-49.2961
-47.7962
-46.3102
-44.8407
-43.3894
-41.9583
-40.5489
-39.1628
-37.8011
-36.4651
-35.1558
-33.874
-32.6204
-31.3957
-30.2003
-29.0348
-27.8994
-26.7942
-25.7197
-24.6759
-23.6626
-22.6801
-21.7284
-20.8069
-19.9159
-19.0596
-18.2286
-17.4081
-16.6901
-16.0307
-14.8242
-14.5835
-17.1271
-471.115
-500.78
-530.867
-561.377
-592.416
-623.966
-656.147
-688.939
-722.461
-756.78
-791.951
-828.023
-865.176
-903.427
-942.886
-983.689
-1026.04
-1069.94
-1115.67
-75.8795
-74.6129
-73.2878
-71.9106
-70.4879
-69.0254
-67.5298
-66.0058
-64.4592
-62.8946
-61.3168
-59.7299
-58.138
-56.5456
-54.9552
-53.3707
-51.7949
-50.2307
-48.6808
-47.1472
-45.6322
-44.1377
-42.6653
-41.2167
-39.7931
-38.3958
-37.0258
-35.684
-34.3711
-33.0878
-31.8346
-30.6119
-29.4199
-28.2588
-27.1288
-26.0301
-24.9624
-23.9257
-22.92
-21.945
-21
-20.085
-19.2043
-18.3487
-17.5009
-16.7533
-16.0745
-14.8279
-14.518
-17.1716
-471.025
-500.676
-530.75
-561.25
-592.28
-623.825
-655.999
-688.785
-722.304
-756.621
-791.788
-827.86
-865.011
-903.261
-942.72
-983.524
-1025.88
-1069.78
-1115.51
-1163.2
-79.425
-78.1151
-76.7434
-75.3171
-73.842
-72.3257
-70.7734
-69.1916
-67.5851
-65.9589
-64.3185
-62.668
-61.0116
-59.3535
-57.6975
-56.0468
-54.4043
-52.7737
-51.157
-49.5571
-47.9756
-46.4155
-44.8778
-43.3645
-41.8766
-40.4158
-38.983
-37.5791
-36.205
-34.8611
-33.5482
-32.2666
-31.0165
-29.7981
-28.6115
-27.4568
-26.3338
-25.2423
-24.1821
-23.153
-22.1546
-21.1859
-20.2468
-19.3414
-18.4609
-17.5852
-16.8071
-16.1086
-14.8227
-14.4377
-17.2045
-470.929
-500.563
-530.623
-561.113
-592.132
-623.671
-655.838
-688.62
-722.135
-756.447
-791.611
-827.682
-864.831
-903.079
-942.538
-983.342
-1025.7
-1069.6
-1115.33
-1163.02
-1212.95
-83.1217
-81.7667
-80.3462
-78.8688
-77.34
-75.7672
-74.1565
-72.514
-70.8453
-69.1559
-67.4504
-65.7336
-64.0103
-62.2845
-60.5597
-58.8403
-57.129
-55.4291
-53.7433
-52.0743
-50.4244
-48.7957
-47.1903
-45.6095
-44.0552
-42.5284
-41.0304
-39.5623
-38.1247
-36.7183
-35.3438
-34.0013
-32.6914
-31.414
-30.1694
-28.9573
-27.7778
-26.6306
-25.5153
-24.4315
-23.379
-22.3571
-21.3646
-20.4011
-19.4706
-18.5648
-17.6611
-16.8514
-16.1329
-14.8085
-14.3424
-17.2243
-470.827
-500.443
-530.487
-560.965
-591.973
-623.503
-655.663
-688.44
-721.951
-756.259
-791.42
-827.489
-864.634
-902.883
-942.341
-983.146
-1025.5
-1069.4
-1115.13
-1162.82
-1212.75
-1265.1
-86.9756
-85.573
-84.1028
-82.5715
-80.9871
-79.3561
-77.6848
-75.9794
-74.2461
-72.4905
-70.7176
-68.9321
-67.1392
-65.3431
-63.5475
-61.7563
-59.9736
-58.2018
-56.4441
-54.7035
-52.9822
-51.2827
-49.6065
-47.9561
-46.3326
-44.7373
-43.1718
-41.6369
-40.1335
-38.6623
-37.2239
-35.8187
-34.4469
-33.1087
-31.8043
-30.5335
-29.2961
-28.0918
-26.9203
-25.7813
-24.6739
-23.5978
-22.5523
-21.5359
-20.5478
-19.5918
-18.6605
-17.7285
-16.8862
-16.1472
-14.7854
-14.2318
-17.2302
-470.718
-500.314
-530.339
-560.805
-591.8
-623.322
-655.473
-688.244
-721.75
-756.054
-791.212
-827.279
-864.422
-902.668
-942.124
-982.928
-1025.28
-1069.19
-1114.92
-1162.61
-1212.53
-1264.88
-1320
-90.9939
-89.542
-88.0187
-86.4323
-84.79
-83.0982
-81.3638
-79.5935
-77.7933
-75.9688
-74.1259
-72.2694
-70.4044
-68.5348
-66.6655
-64.8005
-62.9428
-61.0965
-59.2643
-57.4494
-55.6538
-53.8802
-52.1311
-50.4078
-48.7124
-47.0464
-45.4106
-43.8064
-42.2347
-40.6964
-39.1917
-37.7215
-36.2857
-34.8848
-33.5186
-32.1871
-30.8901
-29.6274
-28.3985
-27.2029
-26.04
-24.9091
-23.8093
-22.7401
-21.6996
-20.6867
-19.7051
-18.7479
-17.7871
-16.9113
-16.1512
-14.7534
-14.1058
-17.2211
-470.602
-500.175
-530.181
-560.632
-591.614
-623.127
-655.268
-688.034
-721.534
-755.833
-790.986
-827.052
-864.192
-902.435
-941.891
-982.694
-1025.04
-1068.95
-1114.68
-1162.37
-1212.3
-1264.63
-1319.74
-1377.87
-95.1836
-93.6807
-92.1023
-90.4584
-88.7555
-87.0004
-85.2002
-83.3623
-81.493
-79.5972
-77.6813
-75.7511
-73.8109
-71.8656
-69.9195
-67.9772
-66.0426
-64.1187
-62.2087
-60.3161
-58.4436
-56.5936
-54.7681
-52.9697
-51.1994
-49.4593
-47.7507
-46.0745
-44.4319
-42.8237
-41.2505
-39.7128
-38.2107
-36.7447
-35.3147
-33.9206
-32.5622
-31.2393
-29.9513
-28.6978
-27.4781
-26.2914
-25.1368
-24.0135
-22.9203
-21.8557
-20.8177
-19.8101
-18.8267
-17.837
-16.9267
-16.1448
-14.7126
-13.964
-17.1975
-470.48
-500.028
-530.012
-560.446
-591.414
-622.915
-655.046
-687.804
-721.3
-755.594
-790.741
-826.805
-863.941
-902.181
-941.637
-982.439
-1024.78
-1068.69
-1114.42
-1162.11
-1212.03
-1264.37
-1319.47
-1377.58
-1439.16
-99.5526
-97.9958
-96.361
-94.6568
-92.8905
-91.0696
-89.2012
-87.293
-85.3511
-83.3817
-81.3902
-79.383
-77.3647
-75.3408
-73.3151
-71.2929
-69.2775
-67.2733
-65.2827
-63.3098
-61.3568
-59.4271
-57.5225
-55.6454
-53.7976
-51.9806
-50.1961
-48.4453
-46.7289
-45.0482
-43.4036
-41.7957
-40.2249
-38.6915
-37.1953
-35.7363
-34.3146
-32.9295
-31.5807
-30.2676
-28.9895
-27.7458
-26.5354
-25.3571
-24.21
-23.093
-22.0039
-20.9408
-19.907
-18.897
-17.8781
-16.9322
-16.1279
-14.6632
-13.8065
-17.1584
-470.35
-499.87
-529.831
-560.248
-591.198
-622.687
-654.806
-687.557
-721.046
-755.334
-790.476
-826.537
-863.671
-901.909
-941.361
-982.162
-1024.5
-1068.41
-1114.13
-1161.82
-1211.75
-1264.09
-1319.19
-1377.29
-1438.84
-1504.28
-104.11
-102.497
-100.802
-99.0345
-97.2025
-95.3128
-93.3738
-91.3928
-89.3752
-87.3286
-85.2589
-83.1719
-81.0727
-78.9665
-76.8583
-74.7528
-72.6539
-70.5654
-68.4915
-66.4346
-64.3987
-62.3859
-60.3991
-58.4404
-56.5116
-54.6147
-52.7512
-50.9224
-49.1294
-47.3734
-45.6546
-43.974
-42.3318
-40.7282
-39.1635
-37.6373
-36.1497
-34.7003
-33.2887
-31.9141
-30.5761
-29.2736
-28.0058
-26.7716
-25.5698
-24.3989
-23.2579
-22.1443
-21.0559
-19.9955
-18.9587
-17.9104
-16.9279
-16.1003
-14.6055
-13.6331
-17.1041
-470.214
-499.703
-529.637
-560.035
-590.965
-622.441
-654.548
-687.29
-720.771
-755.052
-790.188
-826.247
-863.376
-901.61
-941.06
-981.859
-1024.2
-1068.1
-1113.82
-1161.51
-1211.43
-1263.77
-1318.87
-1376.97
-1438.5
-1503.91
-1573.75
-108.863
-107.191
-105.434
-103.601
-101.7
-99.7388
-97.7255
-95.6683
-93.5722
-91.4461
-89.2943
-87.1242
-84.941
-82.7494
-80.5554
-78.3631
-76.1775
-74.0022
-71.8407
-69.6971
-67.5742
-65.4754
-63.4027
-61.3589
-59.3461
-57.3663
-55.4205
-53.5109
-51.6381
-49.8034
-48.0076
-46.2511
-44.5347
-42.8584
-41.2223
-39.6264
-38.0706
-36.5545
-35.0777
-33.6397
-32.2395
-30.8766
-29.5497
-28.258
-27.0001
-25.7747
-24.58
-23.4149
-22.2768
-21.1628
-20.0756
-19.0117
-17.9339
-16.9138
-16.0618
-14.5396
-13.4436
-17.0329
-470.07
-499.527
-529.433
-559.806
-590.717
-622.178
-654.27
-687.001
-720.474
-754.748
-789.878
-825.932
-863.056
-901.289
-940.735
-981.532
-1023.87
-1067.77
-1113.49
-1161.18
-1211.09
-1263.43
-1318.52
-1376.62
-1438.15
-1503.54
-1573.33
-1648.18
-113.822
-112.088
-110.265
-108.363
-106.39
-104.355
-102.265
-100.128
-97.9499
-95.7401
-93.504
-91.2468
-88.976
-86.6964
-84.4128
-82.1304
-79.8542
-77.5883
-75.3366
-73.1024
-70.8896
-68.7007
-66.5391
-64.4068
-62.3065
-60.2397
-58.2088
-56.2147
-54.259
-52.3425
-50.4664
-48.6312
-46.8374
-45.0853
-43.3752
-41.7068
-40.0801
-38.4948
-36.9505
-35.4465
-33.9821
-32.5566
-31.1689
-29.8178
-28.5022
-27.2207
-25.9716
-24.7533
-23.564
-22.4012
-21.2616
-20.1473
-19.056
-17.9485
-16.8898
-16.0124
-14.4658
-13.2379
-16.944
-469.921
-499.34
-529.215
-559.563
-590.451
-621.895
-653.97
-686.691
-720.154
-754.42
-789.541
-825.592
-862.71
-900.939
-940.383
-981.177
-1023.5
-1067.4
-1113.12
-1160.81
-1210.72
-1263.05
-1318.14
-1376.24
-1437.76
-1503.14
-1572.91
-1647.71
-1728.3
-118.997
-117.197
-115.305
-113.331
-111.283
-109.169
-106.998
-104.778
-102.516
-100.219
-97.8943
-95.5476
-93.1855
-90.8137
-88.4372
-86.0616
-83.6912
-81.3311
-78.9849
-76.6567
-74.3497
-72.0679
-69.8134
-67.5893
-65.3975
-63.2408
-61.1209
-59.039
-56.9968
-54.9953
-53.0356
-51.1184
-49.2441
-47.4132
-45.6259
-43.882
-42.1816
-40.5245
-38.9098
-37.3374
-35.8065
-34.3161
-32.8652
-31.4529
-30.0777
-28.7384
-27.4333
-26.1606
-24.9185
-23.705
-22.5175
-21.3521
-20.2105
-19.0915
-17.9543
-16.8561
-15.9519
-14.3846
-13.0159
-16.8369
-469.767
-499.145
-528.984
-559.305
-590.168
-621.592
-653.649
-686.357
-719.809
-754.066
-789.18
-825.224
-862.336
-900.56
-940
-980.791
-1023.11
-1067.01
-1112.72
-1160.41
-1210.31
-1262.64
-1317.73
-1375.81
-1437.33
-1502.71
-1572.47
-1647.23
-1727.76
-1814.81
-124.399
-122.529
-120.565
-118.514
-116.387
-114.192
-111.936
-109.63
-107.279
-104.891
-102.474
-100.034
-97.5767
-95.109
-92.6357
-90.1627
-87.695
-85.2366
-82.7923
-80.3659
-77.9618
-75.5823
-73.2316
-70.9118
-68.6253
-66.3746
-64.1621
-61.9888
-59.8566
-57.7664
-55.7198
-53.7171
-51.7588
-49.8458
-47.9782
-46.1558
-44.3786
-42.6465
-40.959
-39.3155
-37.7152
-36.1575
-34.6412
-33.1652
-31.7284
-30.3293
-28.9663
-27.6377
-26.3416
-25.0757
-23.838
-22.6256
-21.4344
-20.2653
-19.1182
-17.9513
-16.8128
-15.8803
-14.296
-12.7776
-16.7125
-469.605
-498.943
-528.743
-559.033
-589.867
-621.269
-653.306
-685.999
-719.439
-753.685
-788.79
-824.828
-861.933
-900.15
-939.585
-980.373
-1022.69
-1066.58
-1112.29
-1159.97
-1209.87
-1262.2
-1317.27
-1375.35
-1436.86
-1502.24
-1571.99
-1646.74
-1727.22
-1814.18
-1908.61
-130.037
-128.095
-126.053
-123.923
-121.713
-119.432
-117.088
-114.691
-112.247
-109.765
-107.252
-104.714
-102.158
-99.5901
-97.0161
-94.4416
-91.872
-89.312
-86.7655
-84.2373
-81.7312
-79.2512
-76.7997
-74.3803
-71.9951
-69.6468
-67.3377
-65.0694
-62.8431
-60.6608
-58.5233
-56.4316
-54.3862
-52.3876
-50.4363
-48.532
-46.675
-44.8648
-43.1013
-41.3837
-39.7114
-38.0836
-36.4993
-34.9573
-33.4565
-31.9954
-30.5725
-29.1859
-27.8339
-26.5143
-25.2246
-23.9627
-22.7255
-21.5083
-20.3115
-19.1361
-17.9396
-16.7599
-15.7972
-14.2006
-12.5237
-16.5679
-469.42
-498.723
-528.49
-558.747
-589.55
-620.926
-652.941
-685.618
-719.042
-753.275
-788.371
-824.4
-861.495
-899.707
-939.138
-979.921
-1022.23
-1066.12
-1111.82
-1159.5
-1209.39
-1261.71
-1316.78
-1374.85
-1436.35
-1501.71
-1571.45
-1646.19
-1726.67
-1813.57
-1907.89
-2012.2
-135.926
-133.905
-131.783
-129.568
-127.27
-124.899
-122.462
-119.97
-117.43
-114.849
-112.236
-109.595
-106.937
-104.264
-101.586
-98.9064
-96.2307
-93.5642
-90.9118
-88.2777
-85.6662
-83.0802
-80.5245
-78.0011
-75.5132
-73.0631
-70.6536
-68.2859
-65.962
-63.6837
-61.4515
-59.2669
-57.1306
-55.0428
-53.0043
-51.0147
-49.0744
-47.1831
-45.3403
-43.5456
-41.7983
-40.0975
-38.4424
-36.8318
-35.2644
-33.7388
-32.2537
-30.807
-29.397
-28.0217
-26.6787
-25.3654
-24.0793
-22.8172
-21.574
-20.3493
-19.1453
-17.9193
-16.6978
-15.7028
-14.0992
-12.2542
-16.4041
-469.215
-498.476
-528.211
-558.441
-589.218
-620.567
-652.555
-685.211
-718.618
-752.837
-787.92
-823.942
-861.027
-899.23
-938.654
-979.432
-1021.74
-1065.62
-1111.32
-1158.98
-1208.87
-1261.18
-1316.24
-1374.31
-1435.8
-1501.14
-1570.87
-1645.59
-1726.05
-1812.93
-1907.18
-2011.34
-2128.33
-142.075
-139.973
-137.764
-135.46
-133.071
-130.605
-128.071
-125.48
-122.838
-120.154
-117.436
-114.689
-111.922
-109.142
-106.354
-103.564
-100.778
-98.0013
-95.2378
-92.4937
-89.7722
-87.0772
-84.412
-81.7808
-79.1856
-76.6297
-74.1153
-71.6444
-69.2189
-66.8402
-64.5098
-62.2286
-59.9972
-57.8164
-55.6869
-53.6085
-51.5814
-49.6053
-47.68
-45.8049
-43.9794
-42.2027
-40.4737
-38.7915
-37.1548
-35.5622
-34.0122
-32.503
-31.0328
-29.5996
-28.201
-26.8347
-25.4978
-24.1875
-22.9005
-21.6314
-20.3788
-19.1458
-17.8904
-16.6265
-15.5969
-13.9922
-11.9688
-16.22
-469.001
-498.212
-527.906
-558.105
-588.857
-620.184
-652.15
-684.783
-718.17
-752.37
-787.439
-823.449
-860.522
-898.717
-938.133
-978.905
-1021.2
-1065.08
-1110.77
-1158.43
-1208.31
-1260.61
-1315.66
-1373.71
-1435.19
-1500.52
-1570.23
-1644.93
-1725.37
-1812.23
-1906.45
-2010.5
-2127.42
-2201.41
-148.5
-146.31
-144.011
-141.613
-139.126
-136.56
-133.925
-131.228
-128.481
-125.689
-122.86
-120.003
-117.124
-114.231
-111.329
-108.424
-105.523
-102.631
-99.7524
-96.8932
-94.057
-91.248
-88.4696
-85.7252
-83.0191
-80.3528
-77.7295
-75.1511
-72.6195
-70.1364
-67.7032
-65.3211
-62.9909
-60.7133
-58.4888
-56.3179
-54.2
-52.1358
-50.1243
-48.1654
-46.2583
-44.4023
-42.5964
-40.8396
-39.1306
-37.4682
-35.8505
-34.2762
-32.7433
-31.2498
-29.7934
-28.3718
-26.9823
-25.6219
-24.2875
-22.9756
-21.6805
-20.3998
-19.1377
-17.8532
-16.5466
-15.4797
-13.88
-11.6686
-16.0149
-468.781
-497.939
-527.585
-557.745
-588.463
-619.768
-651.716
-684.331
-717.697
-751.877
-786.927
-822.924
-859.984
-898.167
-937.573
-978.338
-1020.62
-1064.49
-1110.17
-1157.83
-1207.7
-1259.99
-1315.02
-1373.07
-1434.53
-1499.84
-1569.53
-1644.21
-1724.63
-1811.46
-1905.64
-2009.65
-2126.48
-2200.26
-2225.62
-155.215
-152.932
-150.536
-148.038
-145.448
-142.777
-140.034
-137.228
-134.369
-131.463
-128.52
-125.547
-122.551
-119.54
-116.518
-113.494
-110.473
-107.461
-104.463
-101.484
-98.5283
-95.6007
-92.7041
-89.8431
-87.0203
-84.2394
-81.5022
-78.812
-76.1699
-73.5781
-71.0377
-68.5506
-66.1172
-63.7387
-61.4155
-59.1476
-56.9355
-54.7789
-52.6776
-50.6312
-48.6391
-46.7003
-44.8141
-42.9796
-41.1951
-39.4597
-37.7717
-36.1293
-34.531
-32.9745
-31.4578
-29.9786
-28.534
-27.1214
-25.7376
-24.3791
-23.0423
-21.7213
-20.4126
-19.1211
-17.8078
-16.4584
-15.3508
-13.7636
-11.354
-15.7896
-468.554
-497.657
-527.253
-557.37
-588.05
-619.322
-651.243
-683.843
-717.193
-751.355
-786.388
-822.367
-859.41
-897.578
-936.974
-977.729
-1020
-1063.86
-1109.53
-1157.18
-1207.04
-1259.32
-1314.34
-1372.37
-1433.81
-1499.11
-1568.77
-1643.43
-1723.81
-1810.61
-1904.75
-2008.72
-2125.48
-2199.37
-2224.46
-2249.79
-162.235
-159.852
-157.353
-154.749
-152.051
-149.269
-146.413
-143.492
-140.514
-137.49
-134.426
-131.332
-128.214
-125.078
-121.933
-118.784
-115.638
-112.501
-109.378
-106.275
-103.194
-100.143
-97.1236
-94.1404
-91.197
-88.2963
-85.4407
-82.6335
-79.8764
-77.171
-74.5194
-71.9224
-69.3818
-66.8979
-64.4714
-62.1028
-59.7922
-57.5395
-55.3444
-53.2067
-51.1257
-49.1008
-47.1307
-45.2148
-43.3517
-41.5402
-39.7785
-38.0652
-36.3985
-34.7763
-33.1965
-31.6568
-30.1547
-28.6875
-27.252
-25.8448
-24.4624
-23.1008
-21.754
-20.4173
-19.0962
-17.7544
-16.3623
-15.2102
-13.644
-11.026
-15.5401
-468.321
-497.365
-526.91
-556.982
-587.62
-618.856
-650.744
-683.318
-716.648
-750.795
-785.813
-821.781
-858.805
-896.955
-936.335
-977.076
-1019.33
-1063.18
-1108.84
-1156.48
-1206.32
-1258.59
-1313.59
-1371.61
-1433.03
-1498.31
-1567.94
-1642.57
-1722.92
-1809.68
-1903.77
-2007.67
-2124.38
-2198.3
-2223.55
-2248.67
-2274.58
-169.575
-167.086
-164.478
-161.762
-158.948
-156.049
-153.073
-150.03
-146.93
-143.781
-140.591
-137.368
-134.122
-130.858
-127.583
-124.304
-121.028
-117.761
-114.507
-111.274
-108.064
-104.883
-101.736
-98.6256
-95.5564
-92.5308
-89.5518
-86.623
-83.7454
-80.9222
-78.1543
-75.4435
-72.7902
-70.1967
-67.6628
-65.1889
-62.7753
-60.4223
-58.1295
-55.8966
-53.7228
-51.6077
-49.5502
-47.5494
-45.6041
-43.7129
-41.8744
-40.0869
-38.3487
-36.6576
-35.0119
-33.4091
-31.8467
-30.3221
-28.8322
-27.3739
-25.9436
-24.5373
-23.1511
-21.7785
-20.4139
-19.063
-17.6932
-16.2587
-15.0581
-13.522
-10.6846
-15.2709
-468.081
-497.064
-526.554
-556.579
-587.175
-618.374
-650.226
-682.769
-716.072
-750.195
-785.196
-821.151
-858.162
-896.296
-935.66
-976.385
-1018.62
-1062.46
-1108.1
-1155.72
-1205.55
-1257.8
-1312.79
-1370.78
-1432.19
-1497.44
-1567.04
-1641.64
-1721.95
-1808.66
-1902.7
-2006.52
-2123.16
-2197.1
-2222.49
-2247.79
-2273.45
-2299.31
-177.255
-174.652
-171.926
-169.091
-166.155
-163.132
-160.029
-156.858
-153.628
-150.348
-147.026
-143.67
-140.288
-136.889
-133.478
-130.064
-126.652
-123.249
-119.859
-116.49
-113.145
-109.83
-106.549
-103.306
-100.105
-96.9499
-93.843
-90.787
-87.7848
-84.8381
-81.9492
-79.1191
-76.3494
-73.6411
-70.9948
-68.4113
-65.8905
-63.4328
-61.0378
-58.7053
-56.4349
-54.2257
-52.0767
-49.9874
-47.9562
-45.9818
-44.0629
-42.1978
-40.3847
-38.6217
-36.9069
-35.2378
-33.6122
-32.0273
-30.4804
-28.9681
-27.4873
-26.0339
-24.604
-23.1933
-21.7951
-20.4028
-19.0219
-17.6244
-16.1487
-14.8944
-13.3986
-10.3318
-14.9796
-467.835
-496.753
-526.187
-556.161
-586.712
-617.873
-649.688
-682.199
-715.472
-749.566
-784.542
-820.477
-857.471
-895.593
-934.943
-975.652
-1017.87
-1061.69
-1107.31
-1154.91
-1204.73
-1256.96
-1311.92
-1369.89
-1431.27
-1496.49
-1566.06
-1640.62
-1720.89
-1807.55
-1901.52
-2005.27
-2121.82
-2195.79
-2221.29
-2246.75
-2272.56
-2298.24
-2324.64
-185.291
-182.566
-179.716
-176.753
-173.688
-170.532
-167.296
-163.99
-160.623
-157.204
-153.743
-150.247
-146.725
-143.183
-139.63
-136.074
-132.52
-128.975
-125.444
-121.932
-118.446
-114.991
-111.571
-108.191
-104.853
-101.563
-98.3212
-95.1333
-92.0008
-88.926
-85.9108
-82.9568
-80.065
-77.2374
-74.4741
-71.7759
-69.1433
-66.5762
-64.0748
-61.6384
-59.2667
-56.9593
-54.715
-52.5329
-50.4119
-48.3506
-46.3477
-44.4014
-42.5101
-40.6718
-38.8845
-37.1461
-35.4541
-33.8058
-32.1986
-30.6295
-29.0951
-27.5919
-26.1158
-24.6624
-23.2273
-21.8038
-20.384
-18.973
-17.5482
-16.0328
-14.7192
-13.2752
-9.96879
-14.6634
-467.581
-496.432
-525.807
-555.728
-586.231
-617.35
-649.128
-681.605
-714.846
-748.912
-783.86
-819.77
-856.74
-894.841
-934.176
-974.872
-1017.07
-1060.87
-1106.48
-1154.05
-1203.84
-1256.05
-1310.99
-1368.93
-1430.28
-1495.47
-1565.01
-1639.52
-1719.74
-1806.34
-1900.24