/*--------------------------------*- C++ -*----------------------------------*\
  =========                 |
  \\      /  F ield         | OpenFOAM: The Open Source CFD Toolbox
   \\    /   O peration     | Website:  https://openfoam.org
    \\  /    A nd           | Version:  7
     \\/     M anipulation  |
\*---------------------------------------------------------------------------*/
FoamFile
{
    version     2.0;
    format      ascii;
    class       surfaceScalarField;
    location    "1000";
    object      phi;
}
// * * * * * * * * * * * * * * * * * * * * * * * * * * * * * * * * * * * * * //

dimensions      [0 3 -1 0 0 0 0];

internalField   nonuniform List<scalar> 
45818
(
0.0756483
0.146608
0.0724776
0.1402
0.0757454
0.149931
0.0694388
0.134074
0.0725682
0.143377
0.0758227
0.153246
0.06653
0.128217
0.0695279
0.137114
0.0726405
0.146559
0.0758817
0.156553
0.0637341
0.12264
0.0666141
0.131131
0.0696036
0.140151
0.0727113
0.149729
0.0759308
0.159857
0.0610629
0.117277
0.0638352
0.125418
0.0666934
0.134041
0.0696779
0.143185
0.0727688
0.152891
0.075965
0.163158
0.0585078
0.112162
0.0611725
0.119939
0.0639179
0.128194
0.0667712
0.136948
0.0697339
0.14622
0.0728015
0.156055
0.075976
0.166468
0.0560622
0.10729
0.0585975
0.114737
0.0612354
0.122622
0.0639808
0.130984
0.0668122
0.13987
0.0697617
0.14926
0.0728209
0.15921
0.0759721
0.169762
0.0537167
0.102629
0.0561528
0.109735
0.0586824
0.11729
0.0613118
0.125291
0.0640354
0.133761
0.0668668
0.142765
0.0697979
0.152283
0.0728205
0.162361
0.0759584
0.173052
0.0514698
0.098172
0.0538091
0.104973
0.0562395
0.112178
0.0587623
0.119839
0.0613783
0.127948
0.0640836
0.136544
0.0669016
0.145661
0.0697925
0.155311
0.0727968
0.165523
0.0759298
0.17632
0.0493219
0.093916
0.0515631
0.100418
0.0538916
0.107321
0.0563086
0.114631
0.058819
0.122398
0.0614216
0.13061
0.0641134
0.139333
0.0668997
0.148554
0.0697991
0.158308
0.072795
0.168658
0.0758646
0.179589
0.047263
0.0898512
0.0494083
0.0960707
0.0516488
0.102661
0.0539689
0.10966
0.0563751
0.117075
0.0588707
0.124949
0.0614599
0.133264
0.0641384
0.142094
0.0669064
0.151446
0.0697606
0.161343
0.0727282
0.171794
0.0757929
0.182854
0.0452853
0.085969
0.0473512
0.0919083
0.0494972
0.0982223
0.0517192
0.104911
0.0540286
0.112007
0.056425
0.119521
0.0589077
0.127502
0.061465
0.135937
0.0641301
0.14487
0.0668847
0.154322
0.069734
0.164337
0.07267
0.174917
0.0756981
0.186098
0.0434016
0.0822515
0.0453767
0.0879435
0.0474332
0.0939723
0.0495671
0.100374
0.0517847
0.107154
0.0540807
0.114351
0.0564615
0.121967
0.0589263
0.13004
0.0614887
0.138578
0.0641305
0.147624
0.0668667
0.15719
0.0696793
0.167327
0.0725835
0.178032
0.0755834
0.189346
0.0415869
0.0787114
0.0434848
0.0841434
0.0454619
0.0899148
0.0475063
0.0960331
0.0496358
0.102523
0.05184
0.109395
0.0541303
0.116682
0.056495
0.124398
0.0589535
0.132575
0.0614791
0.14123
0.0641025
0.150389
0.066802
0.160067
0.0696013
0.17031
0.0724906
0.181125
0.0754539
0.192573
0.0398575
0.0753172
0.0416769
0.0805193
0.0435668
0.0860385
0.0455318
0.0918894
0.0475768
0.0980921
0.0496893
0.104674
0.0518778
0.111648
0.0541547
0.119023
0.0565086
0.126843
0.058934
0.135121
0.0614597
0.143873
0.0640513
0.153139
0.0667374
0.162931
0.0695084
0.173292
0.0723562
0.184222
0.0753012
0.195786
0.0381957
0.0720865
0.039938
0.0770561
0.0417557
0.0823304
0.0436462
0.0879241
0.0456005
0.0938657
0.0476248
0.100157
0.0497329
0.106819
0.0519193
0.113883
0.0541728
0.121358
0.0565134
0.129264
0.0589415
0.137639
0.0614304
0.146493
0.0640087
0.155868
0.0666615
0.165778
0.0693958
0.176252
0.0722168
0.187307
0.075137
0.198973
0.036603
0.0689943
0.038278
0.0737465
0.0400222
0.0787897
0.0418319
0.0841447
0.0437067
0.0898178
0.0456566
0.095834
0.0476815
0.102208
0.0497712
0.108967
0.0519406
0.116115
0.0541821
0.12369
0.0564979
0.131708
0.0588889
0.14018
0.0613729
0.149129
0.0639278
0.158602
0.0665673
0.168606
0.0692783
0.179191
0.0720611
0.190383
0.074918
0.202165
0.035082
0.0660338
0.0366871
0.0705852
0.038359
0.0754096
0.0400902
0.0805314
0.0418942
0.0859573
0.0437646
0.0917098
0.0457015
0.097814
0.047713
0.104266
0.049797
0.111111
0.0519494
0.118348
0.0541788
0.126009
0.0564813
0.134115
0.0588583
0.142695
0.0612971
0.15176
0.0638421
0.161327
0.0664399
0.171444
0.0691227
0.182129
0.0718872
0.193413
0.0747109
0.205325
0.0336251
0.0632154
0.0351601
0.0675607
0.0367649
0.0721793
0.0384275
0.0770723
0.0401606
0.0822649
0.0419502
0.0877716
0.0438113
0.0936
0.0457461
0.099781
0.0477397
0.106323
0.0498102
0.11325
0.0519456
0.120581
0.0541616
0.128329
0.0564458
0.136528
0.0588045
0.145187
0.0612333
0.154369
0.0637232
0.164044
0.0663027
0.174264
0.0689488
0.185068
0.0716751
0.196449
0.0744706
0.208472
0.0322235
0.0605188
0.0336986
0.0646769
0.0352384
0.0690872
0.0368388
0.073768
0.0384933
0.0787396
0.0402135
0.0840016
0.0420051
0.0895779
0.0438554
0.0954907
0.0457709
0.10175
0.047761
0.108373
0.0498123
0.115383
0.0519393
0.122803
0.054127
0.130647
0.0563914
0.138941
0.0587223
0.147699
0.0611329
0.156959
0.0635995
0.166747
0.0661457
0.177067
0.0687719
0.187971
0.0714482
0.199471
0.0742055
0.211605
0.030886
0.0579404
0.0322976
0.0619199
0.0337774
0.0661379
0.0353041
0.0706218
0.0368964
0.0753649
0.0385543
0.0803988
0.0402687
0.085738
0.042046
0.0913873
0.043887
0.0973746
0.0457954
0.103715
0.0477649
0.11042
0.0498041
0.117518
0.0519091
0.125021
0.0540884
0.13295
0.0563246
0.141338
0.0586398
0.150192
0.0610127
0.159546
0.0634694
0.169423
0.0659789
0.17986
0.0685501
0.190869
0.0711932
0.202484
0.073904
0.21472
0.0296013
0.055481
0.0309569
0.059281
0.0323767
0.0633205
0.0338435
0.0675986
0.0353722
0.0721461
0.0369565
0.0769628
0.0386
0.0820675
0.0403078
0.0874762
0.0420743
0.0932
0.043906
0.099264
0.0458037
0.105677
0.0477625
0.112462
0.0497834
0.119644
0.0518763
0.127233
0.054026
0.135249
0.0562488
0.143729
0.0585295
0.152675
0.0608911
0.162124
0.0633027
0.1721
0.0657874
0.182623
0.0683353
0.193727
0.0709401
0.205448
0.0736044
0.217804
0.0283725
0.0531288
0.0296718
0.0567662
0.0310302
0.0606276
0.0324419
0.0647221
0.033907
0.0690638
0.035429
0.0736735
0.0370103
0.0785525
0.0386522
0.083723
0.0403479
0.0892026
0.0421051
0.0950009
0.0439211
0.101147
0.0457995
0.10764
0.0477413
0.114504
0.0497552
0.121765
0.0518211
0.129438
0.0539525
0.137545
0.0561556
0.146103
0.0584139
0.155152
0.0607244
0.164702
0.0631112
0.174776
0.0655642
0.185394
0.0680689
0.196598
0.0706272
0.208425
0.0732533
0.220869
0.0271937
0.0508806
0.0284426
0.054358
0.0297504
0.0580459
0.0311021
0.0619673
0.0325022
0.0661269
0.0339656
0.0705272
0.0354847
0.0751992
0.0370529
0.0801518
0.0386777
0.0853932
0.0403668
0.0909409
0.0421147
0.0968073
0.0439263
0.10302
0.0457914
0.10959
0.0477225
0.116536
0.0497058
0.12388
0.0517557
0.131635
0.0538701
0.139831
0.0560372
0.14848
0.0582736
0.157603
0.0605648
0.167249
0.0629283
0.177412
0.0653297
0.188133
0.0677928
0.199433
0.0703313
0.211347
0.0729009
0.223902
0.0260667
0.0487322
0.0272653
0.0520579
0.0285148
0.0555936
0.0298101
0.0593379
0.0311601
0.0633094
0.0325649
0.0675276
0.0340153
0.0719966
0.0355263
0.0767258
0.0370916
0.0817379
0.0387148
0.0870452
0.0403881
0.0926674
0.0421267
0.0986069
0.0439163
0.104895
0.0457671
0.111545
0.0476749
0.118567
0.0496498
0.125986
0.0516791
0.133826
0.0537688
0.142099
0.0559127
0.150841
0.0581167
0.160051
0.0603955
0.169782
0.0626939
0.180048
0.065067
0.190859
0.0674919
0.202272
0.0699605
0.214287
0.072492
0.226936
0.0249848
0.0466813
0.026135
0.0498625
0.0273316
0.0532412
0.0285749
0.0568288
0.0298699
0.0606281
0.0312146
0.0646597
0.03261
0.068933
0.0340637
0.0734592
0.0355617
0.0782557
0.037119
0.0833336
0.0387279
0.0887054
0.0403969
0.0943971
0.0421148
0.100408
0.0439001
0.106762
0.0457389
0.113481
0.047631
0.120586
0.049579
0.128086
0.0515886
0.136006
0.0536501
0.144362
0.055773
0.153185
0.0579474
0.162499
0.0601745
0.172301
0.062463
0.182652
0.064798
0.193553
0.0671763
0.205056
0.0696067
0.217172
0.0720867
0.229922
0.0239507
0.0447201
0.0250531
0.0477632
0.0262018
0.0509922
0.0273938
0.0544223
0.0286387
0.0580599
0.029927
0.0619157
0.0312687
0.0660009
0.0326588
0.0703379
0.0340996
0.0749213
0.035596
0.0797788
0.0371389
0.0849226
0.0387448
0.0903576
0.0403995
0.0961124
0.0421067
0.102202
0.04387
0.108631
0.0456895
0.115423
0.0475647
0.1226
0.049493
0.130182
0.0514757
0.138181
0.0535125
0.146622
0.0556058
0.155526
0.0577543
0.164919
0.0599437
0.17482
0.0621941
0.185255
0.0644825
0.196247
0.0668359
0.207827
0.0692148
0.220044
0.0716417
0.232883
0.0229586
0.0428468
0.0240152
0.0457579
0.0251166
0.0488484
0.0262616
0.0521245
0.0274595
0.0556015
0.0286914
0.0592956
0.0299794
0.0632051
0.0313144
0.0673453
0.0327028
0.0717346
0.0341306
0.0763867
0.0356162
0.0813015
0.0371576
0.0865098
0.0387428
0.0920143
0.0403832
0.097836
0.0420811
0.103991
0.0438288
0.110491
0.0456299
0.117357
0.0474832
0.12461
0.0493958
0.132262
0.0513539
0.140339
0.0533661
0.148862
0.0554312
0.157849
0.0575388
0.167324
0.0597067
0.177308
0.061902
0.187836
0.0641655
0.198917
0.0664541
0.210588
0.0688032
0.222883
0.0711603
0.235828
0.0220084
0.0410564
0.0230222
0.0438398
0.0240788
0.0467958
0.0251778
0.0499321
0.026323
0.053261
0.0275048
0.056788
0.0287477
0.0605272
0.0300277
0.0644918
0.0313524
0.0686957
0.0327265
0.0731387
0.0341562
0.0778467
0.0356316
0.0828274
0.0371623
0.0880903
0.0387395
0.0936579
0.0403693
0.0995478
0.0420465
0.105773
0.04378
0.112341
0.0455605
0.11928
0.0473955
0.12661
0.0492799
0.134336
0.0512147
0.142491
0.0532036
0.151089
0.0552327
0.160155
0.0573144
0.169717
0.059437
0.179773
0.061612
0.190389
0.0638155
0.201556
0.066056
0.213335
0.0683352
0.225708
0.0706625
0.238731
0.0210977
0.0393453
0.0220706
0.0420079
0.0230834
0.0448351
0.0241381
0.0478355
0.0252349
0.0510203
0.0263751
0.0543906
0.0275602
0.0579756
0.0287865
0.0617684
0.0300611
0.0657831
0.0313879
0.0700343
0.0327603
0.0745346
0.0341784
0.0793
0.0356445
0.0843452
0.0371558
0.089674
0.0387187
0.0953085
0.0403356
0.101259
0.0420022
0.107551
0.0437123
0.11419
0.0454809
0.121195
0.0472952
0.128595
0.0491514
0.136399
0.0510629
0.144631
0.0530173
0.153305
0.0550205
0.162449
0.0570663
0.172087
0.0591471
0.182237
0.0612804
0.192925
0.0634408
0.204171
0.0656481
0.216022
0.0678742
0.228496
0.0701218
0.241617
1.89274e-06
-9.15945e-05
0.0202254
0.0377118
0.0211571
0.0402588
0.02213
0.0429613
0.0231409
0.0458323
0.0241943
0.0488761
0.0252896
0.0521058
0.0264232
0.0555276
0.0276044
0.0591577
0.0288289
0.0630006
0.030102
0.067069
0.0314157
0.0713789
0.0327715
0.0759415
0.0341816
0.0807629
0.0356384
0.0858626
0.0371431
0.0912496
0.0386954
0.0969486
0.0402952
0.102966
0.0419426
0.109321
0.0436385
0.116032
0.0453801
0.12311
0.0471712
0.130575
0.0490141
0.138448
0.0508924
0.146756
0.0528159
0.15551
0.0547858
0.16473
0.0567957
0.174439
0.0588443
0.184674
0.0609291
0.195436
0.0630464
0.206773
0.0651921
0.218704
0.0673668
0.231251
0.0695747
0.244442
3.86002e-06
-0.000103265
1.85818e-06
-9.34497e-05
0.0193895
0.0361474
0.0202849
0.0385839
0.0212166
0.0411722
0.0221847
0.0439175
0.0231956
0.0468309
0.0242461
0.0499196
0.0253331
0.0531959
0.0264678
0.0566642
0.0276473
0.0603393
0.0288652
0.0642374
0.0301252
0.0683595
0.0314337
0.0727168
0.0327915
0.0773317
0.0341886
0.0822126
0.0356324
0.0873733
0.0371215
0.0928235
0.0386595
0.0985844
0.0402464
0.104662
0.0418768
0.111082
0.0435507
0.117861
0.0452755
0.125006
0.0470397
0.13255
0.0488493
0.140491
0.0507031
0.148869
0.0525997
0.157696
0.0545324
0.166993
0.0565014
0.176782
0.0585128
0.18709
0.0605447
0.197938
0.0626239
0.209341
0.0647215
0.221349
0.0668381
0.233988
0.0689712
0.247257
6.00791e-06
-0.000113588
3.82369e-06
-0.000105231
1.80549e-06
-9.52513e-05
0.0185896
0.0346557
0.0194458
0.0369865
0.0203407
0.0394599
0.0212709
0.042086
0.02224
0.0448731
0.0232476
0.0478294
0.0242937
0.0509591
0.0253804
0.0542833
0.0265098
0.0578017
0.0276826
0.0615219
0.0288938
0.0654687
0.0301486
0.0696446
0.031449
0.0740592
0.0327903
0.0787301
0.0341767
0.0836683
0.0356126
0.0888822
0.0370887
0.0943943
0.0386138
0.100217
0.0401787
0.10636
0.0417935
0.112839
0.0434505
0.119686
0.0451497
0.126896
0.0468906
0.134508
0.0486734
0.142521
0.0505026
0.150966
0.0523633
0.159865
0.0542616
0.169233
0.0561947
0.1791
0.0581576
0.189477
0.0601491
0.200413
0.0621667
0.211896
0.0642079
0.22398
0.066268
0.236691
0.0683432
0.25004
8.26076e-06
-0.000122923
5.90192e-06
-0.000115667
3.75101e-06
-0.000107179
1.84917e-06
-9.70962e-05
0.017822
0.0332292
0.018644
0.0354574
0.0195012
0.037826
0.0203937
0.0403372
0.0213234
0.0430026
0.0222906
0.0458301
0.0232948
0.0488283
0.02434
0.0519995
0.0254229
0.0553702
0.0265491
0.0589352
0.0277052
0.0627105
0.0289162
0.0667011
0.0301644
0.0709293
0.0314518
0.0753976
0.0327887
0.0801181
0.0341663
0.0851146
0.0355865
0.0903845
0.0370534
0.0959548
0.0385564
0.101839
0.0401071
0.108046
0.0416964
0.114594
0.0433342
0.121502
0.0450101
0.128776
0.0467278
0.136454
0.0484823
0.144541
0.0502734
0.153056
0.0521032
0.162023
0.0539669
0.171461
0.055863
0.181394
0.0577864
0.19184
0.0597374
0.202842
0.0616999
0.214404
0.063688
0.22656
0.065695
0.239339
0.0676988
0.25278
1.06922e-05
-0.000132057
8.15473e-06
-0.000125176
5.87612e-06
-0.000117792
3.73685e-06
-0.000109068
1.77277e-06
-9.8864e-05
0.017087
0.0318647
0.0178762
0.033997
0.0186977
0.036261
0.0195539
0.0386658
0.0204458
0.0412148
0.0213736
0.0439196
0.0223374
0.0467875
0.0233387
0.0498296
0.0243736
0.0530487
0.0254598
0.0564595
0.0265722
0.0600682
0.0277345
0.0638923
0.0289324
0.067933
0.0301725
0.0722086
0.0314534
0.0767329
0.0327786
0.0815058
0.0341456
0.0865555
0.0355492
0.0918886
0.0369954
0.0975158
0.0384907
0.103456
0.0400208
0.109722
0.0415944
0.116333
0.0432089
0.123303
0.044858
0.130646
0.0465488
0.138387
0.0482788
0.146536
0.0500367
0.155123
0.0518334
0.164157
0.0536549
0.173669
0.0555051
0.183676
0.0573801
0.194197
0.0592823
0.20526
0.0612034
0.216888
0.063125
0.22913
0.0650607
0.241977
0.0670114
0.255474
1.32733e-05
-0.000141289
1.055e-05
-0.000134452
8.06622e-06
-0.000127366
5.80435e-06
-0.000119861
3.68225e-06
-0.000110979
1.7929e-06
-0.000100652
0.0163833
0.0305609
0.0171389
0.032602
0.0179276
0.0347671
0.0187485
0.0370663
0.0196052
0.0395064
0.0204927
0.0420957
0.0214181
0.0448389
0.0223794
0.0477467
0.0233779
0.0508254
0.0244189
0.0540896
0.0254847
0.057547
0.0266004
0.0612022
0.0277546
0.0650701
0.0289424
0.0691631
0.0301744
0.0734875
0.0314487
0.0780628
0.0327546
0.0828967
0.0341087
0.087996
0.035503
0.093381
0.0369363
0.0990701
0.038411
0.105066
0.0399241
0.111392
0.0414772
0.118065
0.0430662
0.125095
0.0446934
0.132501
0.0463574
0.140309
0.0480479
0.148525
0.0497812
0.157175
0.0515321
0.16628
0.0533178
0.175856
0.0551322
0.185923
0.0569601
0.196519
0.0588039
0.207659
0.0606555
0.219358
0.0625425
0.231648
0.0644118
0.244577
0.0662862
0.25813
1.60118e-05
-0.000150782
1.30944e-05
-0.000143833
1.04351e-05
-0.000136822
8.00984e-06
-0.000129572
5.70014e-06
-0.000121879
3.73172e-06
-0.00011292
1.79031e-06
-0.000102437
0.0157076
0.0293156
0.0164335
0.0312663
0.01719
0.0333397
0.0179757
0.0355399
0.0187976
0.0378739
0.0196503
0.0403489
0.0205393
0.0429745
0.0214622
0.0457561
0.0224212
0.0487034
0.0234158
0.0518286
0.024445
0.0551293
0.0255156
0.0586318
0.0266196
0.0623372
0.0277636
0.0662489
0.0289433
0.0703943
0.0301652
0.074771
0.0314265
0.079391
0.0327308
0.0842745
0.0340692
0.0894299
0.0354456
0.0948718
0.0368633
0.100618
0.0383187
0.106671
0.0398127
0.113057
0.0413452
0.119786
0.042906
0.126882
0.0445049
0.134354
0.0461408
0.142216
0.0478045
0.150501
0.0494983
0.159208
0.0512234
0.168374
0.052966
0.178022
0.0547284
0.188155
0.0565091
0.198814
0.0583108
0.210004
0.0601147
0.221785
0.061922
0.234138
0.0637283
0.247135
0.0655214
0.260757
1.89171e-05
-0.000160683
1.57958e-05
-0.000153484
1.2913e-05
-0.000146311
1.03188e-05
-0.000139131
7.93178e-06
-0.000131805
5.73995e-06
-0.000123888
3.65211e-06
-0.000114784
1.76492e-06
-0.000104196
0.0150618
0.0281236
0.015757
0.0299921
0.0164809
0.0319755
0.0172368
0.0340785
0.0180244
0.0363131
0.0188428
0.0386814
0.0196955
0.0411926
0.0205806
0.0438562
0.0215016
0.0466757
0.0224532
0.0496659
0.0234459
0.0528276
0.0244699
0.056175
0.0255302
0.0597212
0.0266304
0.0634704
0.0277663
0.0674258
0.0289444
0.0716151
0.0301597
0.0760378
0.0314066
0.0807152
0.0326917
0.085652
0.0340149
0.0908606
0.0353807
0.0963544
0.0367842
0.102152
0.038219
0.108265
0.0396887
0.114713
0.041193
0.121499
0.0427383
0.128649
0.0443104
0.136184
0.0459131
0.144107
0.0475473
0.152452
0.0492017
0.16123
0.0508836
0.170456
0.0525892
0.180161
0.0543044
0.19036
0.0560395
0.201085
0.0577764
0.212342
0.0595296
0.224178
0.0612669
0.236599
0.0630152
0.249641
0.0647503
0.263333
2.1958e-05
-0.000171027
1.8623e-05
-0.00016351
1.55874e-05
-0.000156158
1.28557e-05
-0.000148848
1.02676e-05
-0.000141467
7.88559e-06
-0.000133951
5.66503e-06
-0.000125902
3.6635e-06
-0.000116684
1.81712e-06
-0.000106008
0.0144419
0.0269867
0.0151075
0.0287732
0.0158037
0.0306693
0.0165284
0.0326839
0.0172828
0.0348202
0.0180699
0.037086
0.0188867
0.0394901
0.0197374
0.0420358
0.0206186
0.0447392
0.0215362
0.0475927
0.0224889
0.050623
0.0234713
0.0538263
0.02449
0.0572152
0.0255486
0.060803
0.0266407
0.064596
0.0277664
0.0686038
0.0289343
0.0728405
0.0301302
0.0773143
0.0313706
0.0820363
0.0326441
0.0870228
0.0339566
0.0922847
0.0353032
0.0978354
0.0366824
0.103689
0.0381017
0.109852
0.0395545
0.116352
0.0410347
0.123202
0.0425531
0.130406
0.0440984
0.137999
0.045668
0.145987
0.047264
0.15439
0.048884
0.16323
0.0505252
0.17252
0.0521837
0.182282
0.0538545
0.192545
0.0555398
0.203322
0.0572261
0.214646
0.0589106
0.226534
0.0606005
0.239014
0.0622592
0.252132
0.0639131
0.26587
2.52259e-05
-0.000181958
2.16668e-05
-0.000174071
1.84281e-05
-0.000166351
1.54699e-05
-0.000158773
1.27133e-05
-0.000151294
1.02136e-05
-0.000143795
7.84744e-06
-0.000136134
5.73518e-06
-0.000127975
3.67951e-06
-0.000118548
1.75852e-06
-0.000107762
0.013848
0.0258984
0.0144869
0.0276072
0.0151544
0.0294224
0.0158495
0.0313482
0.0165736
0.033393
0.0173284
0.0355616
0.018112
0.0378607
0.0189279
0.0402997
0.0197741
0.0428802
0.0206563
0.0456191
0.021566
0.0485156
0.0225119
0.0515824
0.023489
0.0548273
0.0245088
0.0582549
0.0255557
0.061888
0.0266376
0.0657248
0.0277603
0.0697778
0.0289101
0.0740605
0.0301045
0.0785804
0.0313269
0.0833535
0.0325912
0.0883882
0.0338858
0.0937021
0.0352145
0.0993033
0.0365796
0.105211
0.0379732
0.111433
0.039402
0.117985
0.0408639
0.124892
0.0423455
0.132159
0.043864
0.139803
0.045404
0.147847
0.046967
0.156307
0.0485525
0.165202
0.0501493
0.174555
0.0517634
0.184373
0.0533859
0.194699
0.0550105
0.205537
0.0566421
0.216914
0.058267
0.228868
0.059878
0.241395
0.0614737
0.254571
0.0630596
0.268361
2.86487e-05
-0.000193445
2.48555e-05
-0.000185147
2.14465e-05
-0.00017709
1.82927e-05
-0.000169174
1.53584e-05
-0.000161418
1.26933e-05
-0.000153774
1.0175e-05
-0.000146123
7.91974e-06
-0.000138319
5.76748e-06
-0.000130064
3.70652e-06
-0.000120498
1.80766e-06
-0.000109565
0.0132784
0.0248587
0.0138918
0.0264936
0.0145316
0.02823
0.0151975
0.0300744
0.0158929
0.0320289
0.016616
0.0341055
0.0173688
0.0363048
0.0181518
0.0386368
0.0189652
0.0411086
0.019809
0.0437276
0.0206837
0.0465014
0.0215931
0.0494344
0.0225336
0.0525378
0.0235119
0.0558243
0.0245136
0.0592971
0.0255617
0.062964
0.0266369
0.0668482
0.0277443
0.0709437
0.0288912
0.0752738
0.0300676
0.0798397
0.0312835
0.0846612
0.0325234
0.0897506
0.0338052
0.0951114
0.0351183
0.100765
0.0364578
0.106726
0.0378323
0.113003
0.0392378
0.119611
0.0406706
0.126567
0.0421304
0.133893
0.0436144
0.141592
0.0451177
0.149696
0.0466476
0.158212
0.0481887
0.167163
0.0497498
0.176568
0.0513119
0.186447
0.0528887
0.196821
0.0544613
0.207718
0.0560296
0.219152
0.0575925
0.231153
0.0591362
0.243733
0.060677
0.256954
0.0621634
0.270817
3.23225e-05
-0.000205662
2.82842e-05
-0.000196873
2.46528e-05
-0.000188353
2.12518e-05
-0.000180049
1.81305e-05
-0.000171946
1.53341e-05
-0.000164059
1.26141e-05
-0.000156213
1.02097e-05
-0.000148414
7.9196e-06
-0.000140471
5.7273e-06
-0.000132085
3.69665e-06
-0.000122389
1.82112e-06
-0.000111382
0.0127344
0.0238631
0.0133221
0.0254284
0.0139348
0.0270904
0.0145734
0.0288541
0.0152407
0.0307266
0.0159351
0.0327099
0.0166576
0.0348167
0.0174078
0.0370489
0.0181889
0.0394131
0.0189997
0.0419178
0.0198421
0.0445692
0.0207135
0.047381
0.0216174
0.0503506
0.0225541
0.0534956
0.0235206
0.0568172
0.0245235
0.0603353
0.0255549
0.0640459
0.0266235
0.067969
0.0277229
0.0721119
0.0288546
0.0764868
0.0300194
0.0811038
0.0312146
0.0859699
0.0324481
0.0911077
0.0337092
0.0965204
0.0350045
0.102218
0.0363298
0.108229
0.0376838
0.114557
0.0390602
0.121221
0.0404698
0.128227
0.0418964
0.135611
0.0433451
0.143365
0.0448203
0.151523
0.0463094
0.160091
0.0478112
0.169102
0.0493229
0.178557
0.0508393
0.188497
0.0523605
0.198921
0.0538835
0.209864
0.0553948
0.221349
0.0568894
0.2334
0.0583675
0.246042
0.0598141
0.259303
0.0612276
0.273223
3.62176e-05
-0.000218614
3.19237e-05
-0.000209301
2.80153e-05
-0.000200236
2.44438e-05
-0.000191545
2.1126e-05
-0.000183044
1.81467e-05
-0.000174759
1.52158e-05
-0.000166661
1.2697e-05
-0.000158701
1.02623e-05
-0.000150757
7.93405e-06
-0.000142679
5.77302e-06
-0.000134162
3.7615e-06
-0.00012433
1.83931e-06
-0.000113218
0.0122122
0.022913
0.0127743
0.0244109
0.0133628
0.0260003
0.0139764
0.0276875
0.0146155
0.0294793
0.0152811
0.0313806
0.0159739
0.0333936
0.0166948
0.0355297
0.0174455
0.0377922
0.0182236
0.0401893
0.0190335
0.0427264
0.0198674
0.0454153
0.0207398
0.0482587
0.0216334
0.0512713
0.0225633
0.0544529
0.023526
0.0578147
0.0245171
0.061373
0.0255419
0.0651276
0.0265988
0.069093
0.0276881
0.0732785
0.0288104
0.0776958
0.0299623
0.0823561
0.0311524
0.0872656
0.0323666
0.0924503
0.0336099
0.0979151
0.0348832
0.103664
0.0361843
0.109728
0.0375128
0.116104
0.0388724
0.122819
0.0402466
0.129877
0.0416478
0.137308
0.0430669
0.145118
0.0445041
0.153329
0.0459502
0.161952
0.0474126
0.171012
0.0488773
0.180519
0.0503508
0.190506
0.0518173
0.200988
0.053276
0.211983
0.0547191
0.22352
0.0561529
0.235614
0.0575551
0.248301
0.0589351
0.261596
0.0602624
0.275566
4.03455e-05
-0.000232301
3.57412e-05
-0.000222432
3.16346e-05
-0.00021292
2.78378e-05
-0.00020363
2.42702e-05
-0.00019469
2.11438e-05
-0.000186042
1.808e-05
-0.000177623
1.53952e-05
-0.000169359
1.27646e-05
-0.000161203
1.02941e-05
-0.000153117
7.99805e-06
-0.000144904
5.85601e-06
-0.000136257
3.80359e-06
-0.000126296
1.82319e-06
-0.000115039
0.0117109
0.0220045
0.0122514
0.0234358
0.0128149
0.0249589
0.0134023
0.0265744
0.0140157
0.0282873
0.0146546
0.0301058
0.0153212
0.0320333
0.0160119
0.0340765
0.0167318
0.0362435
0.0174774
0.0385383
0.0182535
0.0409693
0.0190554
0.0435384
0.0198934
0.0462617
0.0207505
0.0491416
0.0216517
0.0521829
0.0225727
0.0554061
0.0235287
0.0588032
0.0245146
0.0624003
0.0255277
0.0661987
0.0265794
0.0702017
0.0276557
0.0744332
0.0287614
0.0788967
0.0299054
0.0836031
0.0310712
0.088561
0.0322661
0.0937941
0.0334952
0.099303
0.0347471
0.105102
0.0360314
0.11121
0.0373357
0.117641
0.0386584
0.124407
0.0400058
0.131519
0.0413789
0.138996
0.0427627
0.14686
0.0441605
0.155118
0.0455723
0.163793
0.0469853
0.172904
0.0484071
0.182463
0.0498259
0.192498
0.0512395
0.203024
0.0526387
0.214064
0.0540236
0.225649
0.0553854
0.237784
0.0567144
0.250522
0.057999
0.263859
0.0592628
0.277866
4.4636e-05
-0.000246863
3.98386e-05
-0.000236399
3.54328e-05
-0.00022623
3.14025e-05
-0.000216485
2.77098e-05
-0.00020707
2.4337e-05
-0.000197883
2.1043e-05
-0.000189005
1.81397e-05
-0.000180368
1.53939e-05
-0.000171988
1.27732e-05
-0.000163682
1.03798e-05
-0.000155499
8.10381e-06
-0.000147152
5.8837e-06
-0.000138338
3.81827e-06
-0.000128292
1.93e-06
-0.000116967
0.0112327
0.0211341
0.011749
0.0225069
0.0122888
0.0239618
0.0128542
0.025507
0.0134424
0.0271477
0.0140551
0.0288867
0.014693
0.030734
0.0153554
0.0326897
0.0160475
0.0347608
0.0167644
0.0369565
0.0175095
0.0392822
0.0182816
0.0417432
0.0190806
0.0443512
0.0199111
0.047101
0.0207743
0.050019
0.0216572
0.0530983
0.0225744
0.0563604
0.0235201
0.0597977
0.0244993
0.0634287
0.0255072
0.067271
0.0265409
0.0713164
0.0276056
0.0755891
0.0287048
0.0800973
0.0298259
0.0848485
0.0309774
0.0898497
0.0321659
0.0951234
0.0333708
0.100679
0.0346007
0.106532
0.0358572
0.112688
0.0371347
0.119164
0.038437
0.125976
0.0397577
0.13314
0.0410954
0.140663
0.0424434
0.148577
0.0438045
0.156886
0.0451683
0.16561
0.0465407
0.17477
0.0479119
0.184377
0.0492765
0.194461
0.0506319
0.205031
0.0519741
0.216113
0.0532958
0.227739
0.0545782
0.23992
0.0558377
0.252683
0.0570508
0.266071
0.0582154
0.280094
4.92682e-05
-0.000262365
4.41762e-05
-0.0002512
3.95156e-05
-0.000240482
3.52871e-05
-0.000230115
3.12767e-05
-0.000220052
2.76943e-05
-0.000210427
2.42512e-05
-0.000201091
2.12104e-05
-0.000192075
1.82956e-05
-0.00018327
1.54713e-05
-0.000174687
1.29285e-05
-0.000166231
1.04685e-05
-0.000157864
8.16285e-06
-0.000149432
5.97071e-06
-0.00014049
3.9535e-06
-0.000130316
1.91911e-06
-0.000118885
0.0107722
0.0203033
0.0112675
0.0216156
0.0117857
0.02301
0.0123274
0.0244886
0.0128905
0.0260589
0.0134791
0.0277238
0.0140917
0.0294879
0.014729
0.0313604
0.0153923
0.0333449
0.0160794
0.0354458
0.0167937
0.0376724
0.0175358
0.040028
0.0183034
0.0425204
0.0191009
0.0451614
0.0199261
0.0479493
0.0207738
0.0509024
0.0216594
0.0540133
0.0225684
0.0573121
0.0235088
0.0607882
0.0244778
0.0644581
0.0254741
0.0683378
0.0264962
0.0724258
0.0275543
0.0767396
0.0286356
0.0812875
0.0297438
0.0860821
0.0308839
0.0911317
0.0320417
0.0964525
0.0332274
0.102053
0.0344396
0.10795
0.0356756
0.114147
0.0369263
0.120675
0.0381995
0.127534
0.0394884
0.134747
0.0407867
0.14232
0.0421044
0.150277
0.0434212
0.158633
0.0447506
0.1674
0.0460751
0.176607
0.0473944
0.186259
0.0487084
0.196384
0.0500069
0.206998
0.0512787
0.21813
0.0525323
0.229784
0.0537515
0.242007
0.0549265
0.254807
0.0560539
0.268233
0.0571045
0.282278
5.41242e-05
-0.000278828
4.87834e-05
-0.000266973
4.38502e-05
-0.000255535
3.93208e-05
-0.000244515
3.50757e-05
-0.000233914
3.132e-05
-0.000223678
2.76264e-05
-0.000213802
2.4394e-05
-0.000204275
2.1256e-05
-0.000195036
1.83581e-05
-0.000186156
1.56581e-05
-0.000177416
1.30955e-05
-0.000168858
1.06072e-05
-0.000160308
8.28422e-06
-0.000151745
6.13941e-06
-0.000142677
3.92981e-06
-0.000132327
1.91465e-06
-0.000120798
0.0103306
0.0195091
0.0108059
0.0207649
0.011303
0.0220983
0.0118221
0.0235153
0.0123631
0.0250159
0.012927
0.026611
0.0135155
0.0283
0.0141255
0.0300914
0.0147621
0.0319906
0.0154229
0.0340014
0.0161089
0.0361306
0.0168227
0.0383856
0.0175613
0.04077
0.0183279
0.0432934
0.01912
0.0459675
0.0199362
0.0487869
0.0207837
0.0517781
0.0216574
0.0549243
0.0225626
0.0582583
0.0234927
0.0617733
0.0244501
0.065482
0.0254347
0.0693993
0.0264503
0.0735298
0.0274918
0.0778834
0.0285602
0.0824711
0.0296569
0.0873091
0.0307677
0.0924058
0.0319127
0.0977672
0.0330842
0.103408
0.0342709
0.109355
0.035475
0.115599
0.0367017
0.122173
0.0379481
0.129074
0.0392003
0.136334
0.0404669
0.143957
0.0417416
0.151956
0.0430254
0.160358
0.0443056
0.169169
0.0455795
0.178422
0.0468509
0.188117
0.0481081
0.198283
0.0493411
0.208936
0.0505598
0.220103
0.0517402
0.231796
0.052885
0.244048
0.053982
0.256879
0.0550249
0.270312
0.0560093
0.28439
5.93109e-05
-0.00029638
5.36648e-05
-0.00028371
4.84506e-05
-0.000271573
4.36577e-05
-0.000259872
3.91683e-05
-0.000248608
3.51835e-05
-0.000237777
3.12767e-05
-0.000227328
2.78431e-05
-0.000217251
2.45667e-05
-0.000207585
2.14459e-05
-0.000198124
1.85345e-05
-0.000189033
1.58168e-05
-0.000180138
1.31842e-05
-0.000171435
1.07684e-05
-0.000162792
8.44723e-06
-0.000154053
6.15537e-06
-0.000144902
3.99674e-06
-0.000134409
1.99398e-06
-0.000122792
0.00991013
0.0187481
0.0103642
0.0199508
0.0108409
0.0212271
0.0113389
0.0225816
0.0118582
0.0240202
0.012399
0.025544
0.0129627
0.0271638
0.013548
0.0288774
0.0141605
0.0306931
0.0147939
0.0326196
0.0154531
0.0346572
0.0161371
0.0368162
0.0168448
0.0391021
0.017579
0.041519
0.0183381
0.0440753
0.0191278
0.0467759
0.0199436
0.0496269
0.0207872
0.0526483
0.0216521
0.0558348
0.022547
0.059204
0.023464
0.0627594
0.0244161
0.0665006
0.0253942
0.0704554
0.0263931
0.0746285
0.0274217
0.0790218
0.0284722
0.0836558
0.029546
0.0885308
0.0306526
0.0936659
0.0317734
0.099078
0.0329171
0.104762
0.0340797
0.11075
0.0352647
0.117036
0.036466
0.123655
0.0376743
0.1306
0.0388998
0.137901
0.0401311
0.145568
0.0413678
0.153614
0.0426023
0.162062
0.0438332
0.170916
0.0450693
0.180204
0.0462838
0.189941
0.0474819
0.200142
0.0486568
0.210839
0.0498037
0.222039
0.0509124
0.233768
0.0519791
0.246051
0.0529954
0.258909
0.0539526
0.272369
0.0548689
0.286452
6.47892e-05
-0.000314908
5.87828e-05
-0.000301498
5.32792e-05
-0.000288538
4.8215e-05
-0.00027613
4.3522e-05
-0.000264226
3.9214e-05
-0.000252638
3.51706e-05
-0.000241671
3.15268e-05
-0.000231012
2.80555e-05
-0.00022074
2.47033e-05
-0.000210843
2.16654e-05
-0.000201255
1.87846e-05
-0.000192001
1.59989e-05
-0.000182952
1.34372e-05
-0.000174104
1.09776e-05
-0.000165323
8.55511e-06
-0.000156453
6.27358e-06
-0.000147179
4.16322e-06
-0.000136578
2.04415e-06
-0.000124836
0.00950318
0.0180223
0.009941
0.0191714
0.0103969
0.0203947
0.0108749
0.021691
0.0113726
0.0230671
0.0118919
0.0245273
0.0124324
0.0260743
0.0129961
0.0277156
0.0135812
0.0294567
0.0141895
0.0312975
0.0148229
0.0332498
0.015479
0.0353152
0.0161599
0.0375011
0.0168667
0.0398144
0.0175948
0.0422623
0.018355
0.0448481
0.0191328
0.0475867
0.0199397
0.0504744
0.0207729
0.0535275
0.0216376
0.0567442
0.0225207
0.0601473
0.023439
0.0637365
0.0243695
0.0675254
0.0253373
0.0715112
0.0263248
0.0757255
0.0273354
0.0801586
0.0283744
0.0848273
0.0294389
0.0897445
0.030519
0.0949202
0.0316207
0.100374
0.0327375
0.106104
0.033886
0.112129
0.0350356
0.118466
0.0362064
0.125123
0.0373843
0.132116
0.0385745
0.139457
0.0397665
0.147169
0.0409652
0.155251
0.0421582
0.163737
0.0433499
0.172635
0.0445254
0.181962
0.0456845
0.191738
0.0468271
0.201972
0.0479416
0.212701
0.0490204
0.223931
0.0500574
0.23569
0.0510461
0.248
0.0519781
0.260883
0.0528224
0.274415
0.0536267
0.288475
7.05176e-05
-0.000334637
6.42449e-05
-0.00032037
5.84466e-05