/*--------------------------------*- C++ -*----------------------------------*\
  =========                 |
  \\      /  F ield         | OpenFOAM: The Open Source CFD Toolbox
   \\    /   O peration     | Website:  https://openfoam.org
    \\  /    A nd           | Version:  7
     \\/     M anipulation  |
\*---------------------------------------------------------------------------*/
FoamFile
{
    version     2.0;
    format      ascii;
    class       volVectorField;
    location    "1000";
    object      U;
}
// * * * * * * * * * * * * * * * * * * * * * * * * * * * * * * * * * * * * * //

dimensions      [0 1 -1 0 0 0 0];

internalField   nonuniform List<vector> 
23064
(
(49.7337 13.3361 7.39842e-17)
(49.7386 13.3601 8.16348e-18)
(49.7342 13.336 0)
(49.7426 13.3836 -8.84936e-17)
(49.7394 13.3597 3.0629e-18)
(49.7348 13.3358 9.6421e-18)
(49.7486 13.4075 -8.49279e-17)
(49.7436 13.3831 8.45217e-17)
(49.7402 13.3594 -9.33559e-17)
(49.7354 13.3356 -4.77486e-18)
(49.7552 13.4321 -3.01404e-18)
(49.7499 13.4067 4.25209e-17)
(49.7446 13.3825 -8.94976e-17)
(49.741 13.359 5.36893e-18)
(49.736 13.3354 -5.14925e-18)
(49.7622 13.4576 0)
(49.7569 13.4312 -4.79809e-17)
(49.7512 13.406 -9.04374e-17)
(49.7456 13.3819 8.81929e-17)
(49.7419 13.3586 5.48438e-18)
(49.7366 13.3352 0)
(49.7696 13.4839 -3.7112e-18)
(49.7642 13.4565 -3.47188e-18)
(49.7585 13.4302 5.03027e-17)
(49.7525 13.4052 1.87031e-16)
(49.7466 13.3813 9.27331e-17)
(49.7427 13.3581 -5.56794e-18)
(49.7373 13.3349 8.68148e-17)
(49.7775 13.5111 -1.27045e-16)
(49.772 13.4826 7.4184e-18)
(49.7662 13.4553 0)
(49.7602 13.4292 -1.0954e-16)
(49.7539 13.4043 -9.04538e-17)
(49.7476 13.3807 -1.7991e-16)
(49.7436 13.3577 0)
(49.738 13.3347 -1.79251e-16)
(49.7857 13.5394 -1.30529e-16)
(49.7802 13.5097 5.96611e-17)
(49.7744 13.4813 0)
(49.7682 13.4541 -5.4049e-17)
(49.7619 13.4282 9.8153e-17)
(49.7552 13.4034 6.37083e-18)
(49.7486 13.38 1.88782e-16)
(49.7445 13.3572 5.78315e-18)
(49.7387 13.3344 -8.09735e-18)
(49.7943 13.5688 -4.67148e-18)
(49.7889 13.5379 7.43856e-17)
(49.7831 13.5083 -6.72311e-17)
(49.7768 13.4799 -5.86821e-17)
(49.7703 13.4529 5.66968e-17)
(49.7636 13.427 -6.65673e-18)
(49.7566 13.4025 0)
(49.7497 13.3792 -1.85635e-16)
(49.7454 13.3567 1.00914e-16)
(49.7395 13.334 6.68346e-17)
(49.8032 13.5994 0)
(49.798 13.5671 -8.43227e-17)
(49.7922 13.5362 7.83833e-17)
(49.7859 13.5067 1.30594e-16)
(49.7792 13.4785 1.21445e-16)
(49.7723 13.4516 -1.19121e-16)
(49.7653 13.4259 0)
(49.758 13.4015 -6.36501e-18)
(49.7507 13.3785 -2.65839e-18)
(49.7463 13.3561 -8.18741e-17)
(49.7403 13.3337 9.22505e-17)
(49.8125 13.6312 -4.57909e-17)
(49.8074 13.5976 0)
(49.8017 13.5654 1.54543e-16)
(49.7954 13.5345 -7.26408e-17)
(49.7887 13.5051 -6.32888e-17)
(49.7816 13.477 -6.28364e-17)
(49.7744 13.4502 2.3091e-16)
(49.767 13.4246 1.20673e-16)
(49.7593 13.4004 0)
(49.7518 13.3777 9.73261e-17)
(49.7472 13.3555 0)
(49.7411 13.3333 -9.10533e-17)
(49.8219 13.6644 0)
(49.8171 13.6293 -4.83553e-17)
(49.8115 13.5957 0)
(49.8054 13.5635 -7.98502e-17)
(49.7987 13.5328 8.11946e-17)
(49.7916 13.5034 7.08403e-17)
(49.7841 13.4754 7.79611e-17)
(49.7764 13.4487 -3.9419e-18)
(49.7688 13.4233 -1.12043e-16)
(49.7607 13.3993 -1.07924e-16)
(49.7528 13.3768 6.35545e-18)
(49.7482 13.3549 9.88679e-17)
(49.742 13.3329 -1.0735e-17)
(49.8316 13.6989 -5.43014e-17)
(49.827 13.6623 3.38075e-18)
(49.8217 13.6272 1.4919e-16)
(49.8157 13.5937 8.50809e-17)
(49.8091 13.5616 -8.89396e-17)
(49.802 13.5309 -7.52837e-17)
(49.7944 13.5016 -6.96484e-17)
(49.7865 13.4737 7.72022e-17)
(49.7785 13.4472 -1.13422e-16)
(49.7705 13.422 -7.33929e-18)
(49.7622 13.3982 9.99125e-17)
(49.7539 13.3759 9.59454e-17)
(49.7492 13.3542 -1.09975e-16)
(49.7429 13.3324 1.08349e-17)
(49.8416 13.735 2.27197e-19)
(49.8373 13.6968 5.35427e-17)
(49.8322 13.6602 -5.76003e-17)
(49.8264 13.6251 -9.41563e-17)
(49.8199 13.5916 2.83688e-18)
(49.8128 13.5595 1.67963e-16)
(49.8053 13.5289 2.38019e-19)
(49.7973 13.4997 -1.34262e-17)
(49.789 13.472 -1.48705e-16)
(49.7806 13.4456 1.34102e-16)
(49.7723 13.4206 0)
(49.7636 13.397 -2.40042e-19)
(49.755 13.375 -8.82922e-17)
(49.7502 13.3535 1.24413e-17)
(49.7438 13.3319 0)
(49.8517 13.7727 -4.2412e-18)
(49.8477 13.7327 0)
(49.8429 13.6945 6.38452e-17)
(49.8373 13.6579 1.12109e-16)
(49.831 13.6229 -6.44689e-18)
(49.8241 13.5894 -9.10226e-17)
(49.8165 13.5574 -8.92705e-17)
(49.8085 13.5269 -2.40787e-19)
(49.8002 13.4978 8.30466e-17)
(49.7915 13.4702 -1.37552e-16)
(49.7827 13.4439 -1.2482e-16)
(49.774 13.4191 7.27447e-18)
(49.765 13.3957 1.19096e-16)
(49.7561 13.374 -1.17626e-16)
(49.7512 13.3527 2.04462e-16)
(49.7448 13.3314 2.07272e-16)
(49.862 13.812 0)
(49.8585 13.7703 0)
(49.854 13.7303 -3.9732e-18)
(49.8486 13.6921 -6.30125e-17)
(49.8425 13.6555 -4.77164e-17)
(49.8357 13.6205 0)
(49.8283 13.5871 -1.01265e-16)
(49.8203 13.5551 5.28609e-18)
(49.8119 13.5247 -5.13492e-18)
(49.803 13.4958 -7.31362e-17)
(49.794 13.4683 2.66342e-16)
(49.7848 13.4422 -1.29719e-16)
(49.7758 13.4175 -1.28688e-16)
(49.7665 13.3944 -1.1071e-16)
(49.7572 13.373 2.09096e-16)
(49.7522 13.3519 -2.02142e-16)
(49.7458 13.3308 -1.9397e-16)
(49.8726 13.853 -1.28772e-16)
(49.8694 13.8094 -7.47474e-17)
(49.8652 13.7677 0)
(49.8602 13.7278 8.31439e-18)
(49.8543 13.6896 0)
(49.8477 13.653 1.14007e-16)
(49.8404 13.618 6.30074e-18)
(49.8325 13.5846 1.00043e-16)
(49.824 13.5528 1.10052e-17)
(49.8152 13.5225 8.22586e-17)
(49.8059 13.4936 9.19317e-18)
(49.7964 13.4663 -1.37616e-16)
(49.7869 13.4404 1.2813e-16)
(49.7776 13.4159 1.19877e-16)
(49.7679 13.393 -1.14535e-16)
(49.7583 13.3719 -1.17936e-16)
(49.7533 13.3511 0)
(49.7469 13.3302 2.12727e-16)
(49.8833 13.8958 4.33928e-17)
(49.8805 13.8503 8.01595e-17)
(49.8767 13.8068 1.59674e-16)
(49.872 13.7651 -4.46445e-18)
(49.8664 13.7251 0)
(49.86 13.6869 -3.99022e-18)
(49.8529 13.6504 -1.12398e-16)
(49.8451 13.6154 -6.39404e-18)
(49.8367 13.5821 -5.89245e-18)
(49.8278 13.5504 5.71952e-18)
(49.8185 13.5201 -1.64529e-16)
(49.8088 13.4914 -9.75024e-18)
(49.7989 13.4642 -9.02622e-18)
(49.789 13.4385 -8.37859e-18)
(49.7794 13.4142 1.2404e-16)
(49.7694 13.3916 1.27286e-16)
(49.7595 13.3708 -9.40334e-17)
(49.7544 13.3502 -1.31573e-17)
(49.748 13.3295 -2.10593e-16)
(49.8942 13.9405 5.45132e-17)
(49.8918 13.8931 3.0909e-18)
(49.8884 13.8476 0)
(49.8841 13.804 -7.46556e-17)
(49.8788 13.7622 0)
(49.8727 13.7223 8.57418e-18)
(49.8658 13.6841 -1.27631e-16)
(49.8581 13.6476 -7.44016e-18)
(49.8498 13.6127 1.07838e-16)
(49.841 13.5795 9.9555e-17)
(49.8316 13.5478 9.14263e-17)
(49.8218 13.5177 9.24593e-17)
(49.8117 13.4891 9.42753e-18)
(49.8014 13.4621 -1.3569e-16)
(49.7912 13.4365 1.25722e-16)
(49.7811 13.4125 -2.55841e-16)
(49.7708 13.3901 -1.41917e-17)
(49.7606 13.3696 2.14964e-16)
(49.7554 13.3492 1.32864e-17)
(49.7491 13.3288 0)
(49.9052 13.9873 -5.86106e-17)
(49.9034 13.9377 5.06658e-17)
(49.9004 13.8902 -3.1399e-18)
(49.8964 13.8446 8.55368e-17)
(49.8915 13.801 5.30064e-18)
(49.8856 13.7593 -4.60238e-18)
(49.879 13.7194 7.04415e-17)
(49.8715 13.6812 1.33629e-16)
(49.8633 13.6447 7.54199e-18)
(49.8546 13.6099 -1.1298e-16)
(49.8452 13.5768 -9.79531e-17)
(49.8354 13.5452 -9.61344e-17)
(49.8251 13.5152 0)
(49.8146 13.4867 -1.6772e-16)
(49.8039 13.4599 1.5159e-16)
(49.7933 13.4345 -1.32984e-16)
(49.7829 13.4107 1.31893e-16)
(49.7723 13.3885 0)
(49.7618 13.3683 -1.21193e-16)
(49.7565 13.3482 -2.13627e-16)
(49.7503 13.328 -2.302e-16)
(49.9165 14.0361 0)
(49.9151 13.9843 -1.83645e-18)
(49.9126 13.9347 -4.97842e-17)
(49.909 13.8871 0)
(49.9044 13.8415 -1.87491e-16)
(49.8989 13.7979 0)
(49.8925 13.7562 0)
(49.8853 13.7163 -6.94646e-17)
(49.8773 13.6781 4.44346e-19)
(49.8686 13.6417 0)
(49.8593 13.607 -1.10599e-16)
(49.8494 13.5739 6.12774e-18)
(49.8391 13.5424 -9.3632e-17)
(49.8285 13.5126 1.04292e-17)
(49.8175 13.4842 -3.5812e-18)
(49.8064 13.4575 1.82805e-17)
(49.7954 13.4324 -1.45254e-16)
(49.7847 13.4088 0)
(49.7738 13.3869 -5.63977e-19)
(49.7629 13.367 1.39449e-17)
(49.7577 13.3472 -3.40522e-18)
(49.7515 13.3272 4.12201e-16)
(49.9279 14.087 0)
(49.927 14.033 -4.16449e-18)
(49.925 13.9811 1.22853e-16)
(49.9218 13.9315 1.11018e-16)
(49.9176 13.8839 1.0194e-16)
(49.9124 13.8383 9.09634e-17)
(49.9063 13.7947 0)
(49.8993 13.7529 0)
(49.8916 13.7131 -1.53297e-16)
(49.883 13.675 0)
(49.8738 13.6386 0)
(49.864 13.6039 1.16297e-16)
(49.8537 13.5709 0)
(49.8429 13.5396 9.24927e-17)
(49.8318 13.5098 1.85592e-16)
(49.8205 13.4817 -1.32528e-17)
(49.8089 13.4551 1.48999e-16)
(49.7975 13.4302 -2.78235e-18)
(49.7865 13.4068 1.56741e-17)
(49.7753 13.3852 -1.45629e-17)
(49.7641 13.3657 1.38348e-17)
(49.7588 13.3461 2.1305e-16)
(49.7528 13.3263 -2.18724e-16)
(49.9394 14.1403 -7.88227e-17)
(49.9391 14.0838 4.34756e-18)
(49.9376 14.0297 5.84613e-17)
(49.9349 13.9778 -6.33884e-17)
(49.9311 13.9281 -1.0937e-16)
(49.9263 13.8805 -1.0046e-16)
(49.9205 13.8349 0)
(49.9138 13.7913 -5.52297e-18)
(49.9062 13.7495 0)
(49.8979 13.7097 1.42676e-16)
(49.8888 13.6716 8.53072e-18)
(49.8791 13.6353 1.15845e-16)
(49.8688 13.6008 0)
(49.8579 13.5678 0)
(49.8467 13.5366 7.19989e-17)
(49.8351 13.507 -3.3765e-16)
(49.8234 13.479 1.59295e-16)
(49.8115 13.4526 1.25769e-17)
(49.7997 13.4279 1.36722e-16)
(49.7884 13.4047 1.46332e-16)
(49.7768 13.3834 -1.20841e-16)
(49.7653 13.3642 0)
(49.7599 13.3449 1.37492e-17)
(49.7541 13.3253 1.1482e-17)
(49.9512 14.1959 8.42274e-17)
(49.9514 14.1369 7.75859e-17)
(49.9504 14.0804 9.07538e-18)
(49.9482 14.0262 6.00062e-18)
(49.9448 13.9743 -6.60526e-17)
(49.9404 13.9245 -7.23728e-18)
(49.9349 13.8769 -1.04657e-16)
(49.9285 13.8313 -9.02417e-17)
(49.9212 13.7877 -8.80575e-17)
(49.9131 13.746 0)
(49.9042 13.7062 -1.47615e-16)
(49.8946 13.6682 0)
(49.8843 13.6319 -1.21724e-16)
(49.8735 13.5974 0)
(49.8622 13.5646 6.0072e-18)
(49.8505 13.5335 -2.99645e-16)
(49.8385 13.504 3.52408e-16)
(49.8263 13.4762 1.54322e-16)
(49.814 13.45 -1.58409e-16)
(49.8018 13.4255 -1.71181e-17)
(49.7902 13.4025 -1.28613e-16)
(49.7783 13.3815 2.25997e-16)
(49.7664 13.3628 1.4252e-17)
(49.7611 13.3437 0)
(49.7555 13.3242 0)
(49.9631 14.254 -3.03138e-18)
(49.964 14.1924 2.79257e-18)
(49.9635 14.1334 -1.00077e-17)
(49.9618 14.0768 0)
(49.9589 14.0225 -6.25035e-17)
(49.9548 13.9705 6.47676e-17)
(49.9497 13.9208 -1.15496e-16)
(49.9436 13.8731 1.03195e-16)
(49.9366 13.8275 9.46956e-17)
(49.9287 13.7839 1.75974e-16)
(49.92 13.7423 8.22438e-17)
(49.9105 13.7025 2.96e-16)
(49.9004 13.6646 0)
(49.8896 13.6284 0)
(49.8783 13.594 1.22611e-16)
(49.8665 13.5613 -1.19702e-16)
(49.8543 13.5303 1.91173e-16)
(49.8418 13.501 -1.76109e-16)
(49.8292 13.4733 -3.18214e-16)
(49.8165 13.4473 -1.53082e-16)
(49.8039 13.423 -1.79448e-17)
(49.792 13.4003 3.27252e-17)
(49.7799 13.3796 1.25224e-16)
(49.7676 13.3612 0)
(49.7623 13.3424 0)
(49.7569 13.3231 0)
(49.9752 14.3146 3.16388e-18)
(49.9767 14.2504 -2.91478e-18)
(49.9768 14.1887 5.36615e-18)
(49.9756 14.1296 0)
(49.9731 14.0729 0)
(49.9695 14.0186 -6.5234e-17)
(49.9648 13.9666 0)
(49.9591 13.9168 1.0645e-16)
(49.9523 13.8692 0)
(49.9447 13.8236 0)
(49.9362 13.7801 -9.30423e-17)
(49.9269 13.7384 -9.11335e-17)
(49.9169 13.6987 -2.9933e-16)
(49.9062 13.6608 0)
(49.8949 13.6248 -8.09253e-18)
(49.883 13.5904 -1.00193e-16)
(49.8707 13.5579 2.12243e-16)
(49.8581 13.527 0)
(49.8452 13.4978 -1.81417e-16)
(49.8321 13.4703 3.31218e-16)
(49.819 13.4445 1.80022e-16)
(49.8061 13.4204 6.93849e-19)
(49.7938 13.398 -1.49082e-16)
(49.7814 13.3775 -2.42868e-16)
(49.7688 13.3596 1.4429e-17)
(49.7635 13.341 0)
(49.7584 13.3219 0)
(49.9875 14.378 5.43848e-17)
(49.9896 14.3109 -3.3869e-18)
(49.9903 14.2465 0)
(49.9897 14.1848 -8.48649e-17)
(49.9877 14.1256 0)
(49.9845 14.0689 0)
(49.9802 14.0145 6.84065e-17)
(49.9748 13.9625 7.74853e-18)
(49.9684 13.9127 0)
(49.961 13.8651 0)
(49.9528 13.8195 -1.11695e-16)
(49.9437 13.776 1.09621e-17)
(49.9338 13.7344 1.66957e-16)
(49.9232 13.6948 6.27953e-18)
(49.9119 13.657 8.44909e-18)
(49.9001 13.621 0)
(49.8878 13.5867 1.17938e-16)
(49.875 13.5543 -1.06049e-16)
(49.8619 13.5235 0)
(49.8485 13.4945 1.79493e-16)
(49.835 13.4672 -1.86401e-16)
(49.8215 13.4416 -1.84296e-16)
(49.8082 13.4177 0)
(49.7956 13.3956 -1.90555e-17)
(49.7829 13.3754 -1.50656e-17)
(49.77 13.3578 0)
(49.7646 13.3396 2.36017e-16)
(49.7599 13.3206 0)
(50 14.4441 7.87499e-18)
(50.0028 14.3741 -1.12481e-16)
(50.0041 14.3069 -1.11872e-16)
(50.004 14.2424 9.37975e-17)
(50.0026 14.1806 8.92495e-17)
(49.9999 14.1214 0)
(49.996 14.0646 -4.91383e-18)
(49.9909 14.0103 0)
(49.9849 13.9582 0)
(49.9778 13.9084 7.59716e-18)
(49.9698 13.8608 1.35614e-17)
(49.9609 13.8153 -2.35066e-18)
(49.9512 13.7718 1.17053e-17)
(49.9407 13.7302 -1.75052e-16)
(49.9295 13.6906 1.5115e-16)
(49.9177 13.6529 1.32602e-16)
(49.9054 13.617 -1.29804e-16)
(49.8925 13.5829 -1.31757e-16)
(49.8792 13.5506 9.53445e-17)
(49.8656 13.52 1.27545e-17)
(49.8518 13.4911 2.28948e-17)
(49.8379 13.464 -1.59634e-16)
(49.824 13.4386 1.63971e-16)
(49.8103 13.415 -1.45571e-16)
(49.7974 13.393 2.50193e-16)
(49.7845 13.3732 0)
(49.7712 13.3561 -1.43155e-17)
(49.7659 13.338 -2.20457e-16)
(49.7615 13.3192 -2.19047e-16)
(50.0126 14.5132 -7.44488e-17)
(50.0161 14.4401 6.06612e-17)
(50.0181 14.3699 6.15426e-17)
(50.0186 14.3026 -3.05796e-18)
(50.0177 14.2381 -1.04694e-16)
(50.0155 14.1762 0)
(50.012 14.1169 9.04455e-17)
(50.0074 14.0601 4.9719e-18)
(50.0017 14.0058 0)
(49.9949 13.9537 -7.93101e-18)
(49.9872 13.9039 -1.4953e-17)
(49.9785 13.8563 1.10775e-16)
(49.969 13.8108 8.69687e-17)
(49.9587 13.7674 0)
(49.9476 13.7259 1.81169e-16)
(49.9359 13.6864 1.93286e-17)
(49.9235 13.6487 -1.39975e-16)
(49.9106 13.6129 1.44151e-16)
(49.8972 13.5789 1.19323e-16)
(49.8835 13.5467 8.49681e-17)
(49.8694 13.5163 -2.51039e-17)
(49.8551 13.4876 0)
(49.8408 13.4606 1.5789e-16)
(49.8265 13.4355 -8.65872e-19)
(49.8124 13.4121 1.61301e-16)
(49.7992 13.3904 2.00827e-18)
(49.786 13.3709 2.67007e-16)
(49.7724 13.3542 2.29822e-16)
(49.7671 13.3365 -1.38203e-17)
(49.7631 13.3177 2.43772e-16)
(50.0255 14.5853 -4.88151e-18)
(50.0297 14.509 1.40088e-16)
(50.0324 14.4357 -6.79072e-17)
(50.0335 14.3655 -1.20848e-16)
(50.0331 14.2981 2.19028e-16)
(50.0314 14.2335 6.48408e-18)
(50.0284 14.1716 0)
(50.0242 14.1122 -8.93002e-17)
(50.0189 14.0554 5.02845e-18)
(50.0124 14.001 0)
(50.005 13.949 -1.25215e-16)
(49.9965 13.8992 -7.76194e-18)
(49.9872 13.8516 -1.09362e-16)
(49.9771 13.8062 1.02501e-16)
(49.9662 13.7628 -1.13106e-17)
(49.9545 13.7214 -1.78679e-16)
(49.9422 13.682 0)
(49.9293 13.6444 1.53426e-16)
(49.9159 13.6087 1.59517e-17)
(49.902 13.5748 -2.25319e-16)
(49.8877 13.5428 -2.04641e-16)
(49.8732 13.5125 1.2972e-17)
(49.8584 13.4839 1.87431e-16)
(49.8437 13.4572 2.09186e-17)
(49.829 13.4322 1.38714e-16)
(49.8146 13.4091 1.46711e-16)
(49.801 13.3877 -1.33636e-16)
(49.7876 13.3685 -2.64993e-16)
(49.7736 13.3522 -2.13535e-16)
(49.7683 13.3348 -1.48608e-17)
(49.7648 13.3161 2.21647e-16)
(30.0991 -2.7588 0)
(50.0385 14.6605 8.46591e-17)
(50.0436 14.5809 4.70072e-18)
(50.0469 14.5045 -1.3788e-16)
(50.0487 14.4311 6.22355e-17)
(50.0489 14.3608 2.48712e-16)
(50.0477 14.2933 -1.16327e-16)
(50.0452 14.2286 -1.09988e-16)
(50.0414 14.1667 0)
(50.0364 14.1073 -1.07856e-17)
(50.0303 14.0505 -1.60066e-16)
(50.0232 13.9961 0)
(50.015 13.9441 1.39597e-16)
(50.0059 13.8943 -1.31169e-16)
(49.996 13.8468 1.05796e-16)
(49.9852 13.8014 1.53897e-17)
(49.9737 13.7581 1.20577e-17)
(49.9614 13.7167 1.73524e-16)
(49.9485 13.6774 -1.96945e-17)
(49.9351 13.6399 1.21162e-17)
(49.9211 13.6043 -1.50253e-16)
(49.9067 13.5706 2.42014e-16)
(49.8919 13.5387 -1.35416e-17)
(49.8769 13.5085 0)
(49.8617 13.4802 3.17751e-18)
(49.8466 13.4536 1.00296e-17)
(49.8314 13.4289 -1.57466e-16)
(49.8167 13.406 -3.10981e-16)
(49.8028 13.3849 -2.74501e-16)
(49.7891 13.366 -1.60699e-17)
(49.7749 13.3502 -1.44749e-17)
(49.7695 13.333 2.25071e-16)
(49.7665 13.3144 -1.96697e-16)
(32.5927 -2.9621 0)
(30.721 -2.74999 1.4166e-15)
(50.0517 14.7391 -9.32141e-17)
(50.0576 14.656 -5.43506e-18)
(50.0617 14.5762 0)
(50.0641 14.4997 7.54151e-17)
(50.065 14.4262 1.79962e-18)
(50.0644 14.3558 -2.44265e-16)
(50.0623 14.2883 1.27854e-16)
(50.059 14.2235 9.53239e-17)
(50.0544 14.1615 5.77919e-18)
(50.0487 14.1022 8.8129e-17)
(50.0418 14.0453 1.68202e-16)
(50.0339 13.991 0)
(50.0251 13.939 -1.27705e-16)
(50.0153 13.8892 2.53788e-16)
(50.0047 13.8418 -1.2534e-16)
(49.9933 13.7964 -2.19254e-16)
(49.9811 13.7531 -1.91212e-16)
(49.9683 13.7119 -1.60996e-16)
(49.9549 13.6726 5.34399e-19)
(49.9408 13.6353 2.05085e-17)
(49.9263 13.5998 1.31884e-16)
(49.9114 13.5662 -1.2089e-16)
(49.8962 13.5344 0)
(49.8807 13.5044 0)
(49.865 13.4763 -3.65648e-16)
(49.8494 13.4499 0)
(49.8339 13.4254 0)
(49.8188 13.4028 1.60271e-17)
(49.8046 13.382 1.31841e-17)
(49.7906 13.3634 -1.61473e-17)
(49.7761 13.3481 -2.31949e-16)
(49.7707 13.3312 -2.23419e-16)
(49.7683 13.3126 2.3199e-17)
(34.4117 -3.11097 0)
(33.2242 -2.95096 1.26381e-21)
(31.3317 -2.73589 -6.2022e-21)
(50.0652 14.8211 5.58424e-17)
(50.0719 14.7344 5.93623e-18)
(50.0768 14.6512 0)
(50.0799 14.5713 0)
(50.0814 14.4946 4.68138e-18)
(50.0813 14.4211 -6.62504e-17)
(50.0798 14.3505 -1.86406e-17)
(50.077 14.2829 -1.05247e-16)
(50.0728 14.2182 0)
(50.0674 14.1562 -9.08484e-17)
(50.0609 14.0968 -3.0058e-18)
(50.0533 14.04 0)
(50.0447 13.9856 1.59194e-16)
(50.0351 13.9336 -2.97536e-18)
(50.0247 13.884 -1.22978e-16)
(50.0134 13.8365 -1.15062e-16)
(50.0014 13.7912 1.03204e-16)
(49.9886 13.7481 1.89027e-16)
(49.9752 13.7069 1.54649e-16)
(49.9612 13.6677 -1.61592e-16)
(49.9466 13.6305 -1.4518e-16)
(49.9316 13.5952 -1.72507e-17)
(49.9161 13.5617 0)
(49.9004 13.5301 0)
(49.8844 13.5002 0)
(49.8683 13.4723 1.88401e-16)
(49.8523 13.4461 0)
(49.8364 13.4218 0)
(49.8209 13.3995 1.69581e-17)
(49.8064 13.3789 1.34067e-17)
(49.7922 13.3607 0)
(49.7773 13.3458 4.62733e-16)
(49.772 13.3292 2.79385e-17)
(49.7701 13.3107 2.31726e-17)
(35.7475 -3.2156 0)
(35.0627 -3.0982 -2.9191e-16)
(33.8467 -2.93409 4.17612e-16)
(31.9374 -2.71671 -1.52865e-15)
(50.0788 14.9066 5.26283e-17)
(50.0865 14.8162 -1.0658e-16)
(50.0921 14.7294 1.8834e-16)
(50.096 14.646 -8.80817e-17)
(50.0982 14.566 -8.60515e-17)
(50.0987 14.4892 0)
(50.0977 14.4156 8.27929e-18)
(50.0953 14.345 1.23354e-16)
(50.0916 14.2774 1.16212e-16)
(50.0866 14.2126 -6.42738e-18)
(50.0804 14.1505 8.98075e-17)
(50.0731 14.0912 -8.78451e-17)
(50.0648 14.0344 -9.92984e-18)
(50.0554 13.98 -2.89254e-16)
(50.0452 13.9281 1.35478e-16)
(50.0341 13.8785 0)
(50.0221 13.8311 1.28486e-16)
(50.0095 13.7859 -1.35253e-17)
(49.9961 13.7428 2.41131e-17)
(49.9821 13.7017 -3.52591e-16)
(49.9675 13.6627 1.59879e-16)
(49.9523 13.6256 1.80052e-17)
(49.9368 13.5904 1.73865e-17)
(49.9208 13.557 -2.49952e-16)
(49.9046 13.5255 1.4585e-17)
(49.8881 13.4959 2.23317e-16)
(49.8716 13.4681 -1.92651e-16)
(49.8551 13.4422 0)
(49.8388 13.4181 -1.82524e-16)
(49.8229 13.3961 2.97851e-16)
(49.8082 13.3758 -3.30225e-18)
(49.7937 13.3579 -1.62868e-17)
(49.7785 13.3435 -2.6e-16)
(49.7732 13.3272 -2.79844e-17)
(49.772 13.3086 -2.70143e-17)
(36.8605 -3.29771 0)
(36.4133 -3.20167 0)
(35.705 -3.07976 3.04875e-16)
(34.4646 -2.91183 7.90036e-21)
(32.5368 -2.69102 0)
(50.0927 14.9959 2.0722e-18)
(50.1013 14.9016 1.62384e-18)
(50.1078 14.811 1.0517e-16)
(50.1124 14.724 -9.40404e-17)
(50.1153 14.6405 8.11103e-17)
(50.1164 14.5603 7.99651e-17)
(50.116 14.4835 0)
(50.1141 14.4098 0)
(50.1108 14.3392 -1.35874e-16)
(50.1063 14.2715 -2.31978e-16)
(50.1004 14.2067 0)
(50.0934 14.1447 -1.05165e-16)
(50.0854 14.0853 1.15277e-17)
(50.0763 14.0285 1.56274e-16)
(50.0662 13.9742 1.49191e-16)
(50.0552 13.9223 0)
(50.0434 13.8728 1.12413e-16)
(50.0309 13.8255 1.41165e-17)
(50.0175 13.7804 -2.13512e-16)
(50.0035 13.7373 0)
(49.9889 13.6964 3.55475e-16)
(49.9737 13.6574 -1.04563e-17)
(49.9581 13.6205 -3.72848e-17)
(49.942 13.5854 -1.1996e-16)
(49.9255 13.5522 -3.3357e-18)
(49.9087 13.5209 -1.39532e-17)
(49.8918 13.4914 -2.08075e-16)
(49.8748 13.4638 2.03332e-16)
(49.858 13.4381 1.78006e-16)
(49.8412 13.4143 -2.29822e-17)
(49.825 13.3925 1.84724e-18)
(49.81 13.3725 2.92573e-16)
(49.7953 13.355 -1.63489e-17)
(49.7798 13.341 5.91523e-17)
(49.7744 13.3251 2.92933e-17)
(49.774 13.3064 2.2714e-16)
(37.8514 -3.36733 0)
(37.5397 -3.28318 0)
(37.0704 -3.18201 -4.59264e-16)
(36.3409 -3.05473 3.17705e-16)
(35.0735 -2.88342 0)
(33.132 -2.65996 -1.63773e-15)
(50.1068 15.089 -1.32323e-16)
(50.1163 14.9906 6.43378e-17)
(50.1237 14.8961 -1.74188e-16)
(50.1292 14.8054 0)
(50.1327 14.7182 -3.04848e-19)
(50.1346 14.6346 0)
(50.1347 14.5544 0)
(50.1334 14.4774 0)
(50.1306 14.4037 -1.31938e-16)
(50.1264 14.333 -3.00808e-18)
(50.1209 14.2654 1.08268e-16)
(50.1142 14.2005 6.55524e-18)
(50.1064 14.1385 8.55779e-17)
(50.0976 14.0792 -1.83003e-16)
(50.0877 14.0224 -1.64243e-16)
(50.0769 13.9682 -1.53681e-16)
(50.0653 13.9164 0)
(50.0528 13.8669 -1.18157e-16)
(50.0395 13.8197 -1.32205e-16)
(50.0256 13.7746 4.41536e-16)
(50.011 13.7317 1.97562e-16)
(49.9958 13.6909 1.41428e-17)
(49.98 13.6521 1.99748e-17)
(49.9638 13.6152 -1.82833e-17)
(49.9471 13.5803 1.19428e-16)
(49.9301 13.5472 5.02851e-16)
(49.9129 13.5161 -2.32098e-16)
(49.8955 13.4868 -1.28821e-17)
(49.8781 13.4594 0)
(49.8608 13.4339 4.69361e-17)
(49.8437 13.4104 1.62323e-16)
(49.8271 13.3888 -1.68684e-16)
(49.8117 13.3691 1.70624e-17)
(49.7968 13.3519 2.27095e-16)
(49.781 13.3385 -2.33599e-16)
(49.7757 13.3228 0)
(49.776 13.304 -5.03906e-16)
(38.7721 -3.4292 0)
(38.5436 -3.35234 0)
(38.2103 -3.26252 1.46011e-20)
(37.7208 -3.15554 -2.39558e-16)
(36.9705 -3.02418 0)
(35.6827 -2.84892 4.6671e-16)
(33.7253 -2.62363 0)
(50.1211 15.1861 -7.80814e-17)
(50.1316 15.0836 1.30213e-16)
(50.14 14.985 0)
(50.1462 14.8903 1.13123e-16)
(50.1506 14.7994 -3.31886e-19)
(50.1531 14.7121 0)
(50.1539 14.6284 9.10618e-17)
(50.1531 14.5481 0)
(50.1507 14.4711 0)
(50.147 14.3973 2.80197e-16)
(50.1419 14.3266 2.65362e-16)
(50.1356 14.2589 7.59366e-18)
(50.1281 14.1941 6.97139e-18)
(50.1195 14.1321 1.00654e-16)
(50.1098 14.0728 1.80734e-16)
(50.0992 14.0161 -1.58381e-16)
(50.0877 13.9619 1.5187e-16)
(50.0753 13.9102 -8.5604e-18)
(50.0621 13.8608 -1.13358e-16)
(50.0482 13.8136 1.17464e-16)
(50.0336 13.7687 -2.13598e-16)
(50.0184 13.7259 3.54107e-18)
(50.0026 13.6852 -1.78914e-16)
(49.9863 13.6465 -1.06145e-17)
(49.9695 13.6098 1.94225e-17)
(49.9523 13.575 -1.39395e-16)
(49.9348 13.5421 -2.51178e-16)
(49.917 13.5111 -3.49434e-18)
(49.8992 13.482 0)
(49.8813 13.4548 -2.37868e-17)
(49.8636 13.4296 -1.77577e-16)
(49.8461 13.4063 4.11222e-17)
(49.8291 13.385 1.32493e-16)
(49.8135 13.3656 2.98478e-16)
(49.7984 13.3487 -2.56619e-16)
(49.7822 13.3358 2.32124e-16)
(49.7769 13.3205 5.74939e-17)
(49.778 13.3015 2.53833e-16)
(39.6528 -3.48605 1.17703e-16)
(39.4773 -3.41396 0)
(39.2273 -3.33105 1.60557e-16)
(38.8742 -3.235 3.911e-16)
(38.3661 -3.12315 0)
(37.5979 -2.98694 -3.42979e-16)
(36.2886 -2.80853 4.82727e-16)
(34.3168 -2.58051 0)
(50.1356 15.2874 -1.58887e-16)
(50.1472 15.1805 -2.12038e-18)
(50.1565 15.0777 -6.7063e-17)
(50.1637 14.979 -4.03057e-18)
(50.1688 14.8841 1.2466e-16)
(50.1721 14.7931 0)
(50.1735 14.7057 -6.33026e-18)
(50.1732 14.6218 -1.87578e-16)
(50.1714 14.5415 0)
(50.1681 14.4644 -9.87684e-18)
(50.1634 14.3906 -1.39831e-16)
(50.1574 14.3199 -2.67829e-16)
(50.1502 14.2522 -1.20235e-16)
(50.1419 14.1875 -1.1067e-16)
(50.1325 14.1255 -3.15313e-16)
(50.122 14.0662 -2.30587e-17)
(50.1107 14.0096 -3.3673e-18)
(50.0984 13.9555 1.46226e-16)
(50.0853 13.9038 -1.60248e-16)
(50.0715 13.8545 1.12664e-16)
(50.0569 13.8074 0)
(50.0416 13.7626 0)
(50.0258 13.7199 -1.97011e-16)
(50.0094 13.6793 2.27637e-17)
(49.9925 13.6407 -1.87983e-16)
(49.9751 13.6042 0)
(49.9574 13.5695 1.38132e-16)
(49.9394 13.5368 -2.7313e-16)
(49.9212 13.506 2.31586e-16)
(49.9028 13.4771 0)
(49.8845 13.4501 0)
(49.8663 13.4251 -4.49983e-17)
(49.8485 13.402 2.01724e-17)
(49.8311 13.3811 -3.41149e-16)
(49.8152 13.362 -1.51668e-17)
(49.7999 13.3454 -2.43175e-16)
(49.7834 13.333 -2.63214e-16)
(49.7781 13.318 -2.95009e-17)
(49.7801 13.2988 2.02521e-16)
(40.5121 -3.53946 -9.70098e-21)
(40.3709 -3.4706 0)
(40.1741 -3.39216 0)
(39.9047 -3.30274 -1.68006e-16)
(39.5336 -3.20154 0)
(39.0086 -3.08378 2.59308e-16)
(38.2232 -2.94354 -7.11032e-16)
(36.8933 -2.76103 0)
(34.9114 -2.53193 0)
(50.1503 15.393 -2.09456e-19)
(50.163 15.2815 7.93455e-17)
(50.1734 15.1744 7.34407e-17)
(50.1815 15.0714 7.39854e-17)
(50.1875 14.9725 0)
(50.1914 14.8775 -1.15834e-16)
(50.1935 14.7863 6.60257e-18)
(50.1939 14.6988 6.08275e-18)
(50.1926 14.6149 9.06926e-17)
(50.1898 14.5345 1.0304e-17)
(50.1855 14.4574 -9.96947e-18)
(50.1799 14.3836 -9.16378e-18)
(50.173 14.3129 1.3012e-16)
(50.1649 14.2452 1.19086e-16)
(50.1557 14.1805 1.22756e-16)
(50.1454 14.1186 8.23919e-18)
(50.1342 14.0594 0)
(50.1221 14.0028 3.50708e-16)
(50.1091 13.9488 -1.54394e-16)
(50.0953 13.8972 1.41408e-16)
(50.0807 13.848 0)
(50.0655 13.801 -2.41276e-16)
(50.0496 13.7563 1.40642e-17)
(50.0332 13.7137 -2.50628e-17)
(50.0162 13.6733 0)
(49.9987 13.6348 3.34969e-16)
(49.9808 13.5984 -1.96912e-17)
(49.9625 13.5639 -1.2412e-16)
(49.944 13.5314 2.54569e-16)
(49.9253 13.5008 -2.21297e-16)
(49.9065 13.4721 0)
(49.8877 13.4453 -1.74121e-16)
(49.8691 13.4205 0)
(49.8508 13.3977 -9.82465e-19)
(49.8332 13.377 -1.16319e-16)
(49.8169 13.3582 -2.96909e-16)
(49.8014 13.3419 2.581e-16)
(49.7847 13.3301 4.66551e-16)
(49.7793 13.3154 5.75846e-17)
(49.7823 13.2959 2.01881e-18)
(41.3624 -3.59052 -9.93026e-21)
(41.2434 -3.52391 0)
(41.0811 -3.44849 0)
(40.865 -3.36329 1.49707e-16)
(40.5779 -3.26825 0)
(40.1905 -3.16063 0)
(39.6494 -3.0383 2.61067e-20)
(38.8478 -2.89306 1.09607e-20)
(37.5005 -2.70837 0)
(35.5036 -2.47531 2.6005e-20)
(50.1652 15.5031 4.97368e-17)
(50.1791 15.3869 -3.11413e-18)
(50.1906 15.2753 5.22581e-18)
(50.1996 15.1679 -4.83306e-18)
(50.2065 15.0647 -6.87291e-17)
(50.2113 14.9656 0)
(50.2141 14.8705 7.60713e-18)
(50.2151 14.7792 0)
(50.2143 14.6916 0)
(50.212 14.6077 5.94626e-18)
(50.2082 14.5272 1.82829e-16)
(50.2029 14.4501 -1.48911e-16)
(50.1963 14.3763 -1.5435e-16)
(50.1885 14.3056 0)
(50.1795 14.238 0)
(50.1695 14.1733 -1.26769e-16)
(50.1584 14.1114 2.15292e-16)
(50.1464 14.0523 1.20224e-17)
(50.1335 13.9958 3.23841e-18)
(50.1198 13.9418 1.58509e-16)
(50.1052 13.8903 0)
(50.09 13.8412 1.6916e-17)
(50.0741 13.7944 2.39606e-16)
(50.0576 13.7498 -2.08806e-16)
(50.0405 13.7074 0)
(50.0229 13.667 0)
(50.0049 13.6288 -1.68413e-16)
(49.9864 13.5925 0)
(49.9676 13.5582 1.39997e-16)
(49.9486 13.5258 -1.57309e-17)
(49.9294 13.4954 2.34488e-16)
(49.9101 13.4669 0)
(49.8908 13.4403 1.96703e-16)
(49.8718 13.4157 1.81365e-16)
(49.8532 13.3932 -4.16682e-17)
(49.8351 13.3728 3.23412e-16)
(49.8186 13.3543 0)
(49.8029 13.3383 -3.31706e-17)
(49.7859 13.3271 -2.61949e-16)
(49.7805 13.3127 0)
(49.7845 13.2929 -2.29229e-16)
(42.2124 -3.63991 -1.02915e-20)
(42.1071 -3.57491 0)
(41.9672 -3.50154 0)
(41.7859 -3.41907 -1.55243e-20)
(41.5524 -3.32796 0)
(41.249 -3.22631 0)
(40.8461 -3.11363 2.20645e-16)
(40.2901 -2.98558 0)
(39.474 -2.83634 3.80362e-16)
(38.106 -2.64844 1.06025e-15)
(36.1001 -2.41367 0)
(50.1803 15.6178 0)
(50.1955 15.4968 5.8843e-18)
(50.2081 15.3804 -1.83845e-16)
(50.2182 15.2685 5.03865e-18)
(50.226 15.1609 0)
(50.2316 15.0576 -7.1324e-17)
(50.2351 14.9583 -7.93297e-18)
(50.2368 14.8631 7.68492e-18)
(50.2366 14.7717 0)
(50.2348 14.6841 -1.27237e-17)
(50.2314 14.6001 0)
(50.2265 14.5196 -3.44053e-16)
(50.2203 14.4425 1.56408e-16)
(50.2127 14.3687 1.53018e-16)
(50.204 14.298 0)
(50.1942 14.2304 2.27762e-17)
(50.1832 14.1658 -1.58859e-17)
(50.1714 14.104 1.81994e-16)
(50.1585 14.0449 0)
(50.1449 13.9885 1.42721e-17)
(50.1304 13.9347 -1.46617e-16)
(50.1152 13.8833 9.60697e-19)
(50.0993 13.8343 -1.61533e-17)
(50.0827 13.7876 0)
(50.0655 13.7431 2.20069e-16)
(50.0478 13.7008 0)
(50.0296 13.6606 -1.88278e-16)
(50.011 13.6225 0)
(49.992 13.5864 -1.5632e-16)
(49.9727 13.5522 -2.85828e-16)
(49.9531 13.5201 0)
(49.9334 13.4898 -1.52515e-17)
(49.9136 13.4615 -2.18629e-16)
(49.894 13.4352 -1.75799e-16)
(49.8746 13.4108 -1.58972e-16)
(49.8555 13.3885 -2.04115e-17)
(49.8371 13.3684 -3.27326e-16)
(49.8203 13.3502 3.18118e-16)
(49.8045 13.3346 0)
(49.7871 13.3239 2.33842e-16)
(49.7817 13.3099 2.79756e-17)
(49.7867 13.2896 -2.25987e-17)
(43.0681 -3.6881 -1.06786e-20)
(42.9705 -3.62426 0)
(42.8447 -3.55232 0)
(42.6861 -3.47167 -2.56201e-16)
(42.4875 -3.38308 0)
(42.2379 -3.28507 0)
(41.9194 -3.17795 0)
(41.5021 -3.05894 0)
(40.9327 -2.92634 -3.20484e-20)
(40.102 -2.77278 -7.85471e-16)
(38.7197 -2.5817 0)
(36.7014 -2.34413 -1.95329e-15)
(50.1956 15.7374 5.5956e-17)
(50.2121 15.6114 3.37396e-18)
(50.2259 15.4901 0)
(50.2371 15.3734 1.80553e-16)
(50.2458 15.2612 8.991e-17)
(50.2523 15.1535 -4.94284e-18)
(50.2567 15.05 7.0281e-17)
(50.259 14.9506 1.33279e-16)
(50.2594 14.8553 7.76006e-18)
(50.2582 14.7638 1.26681e-16)
(50.2552 14.6761 1.03735e-16)
(50.2508 14.5921 0)
(50.2449 14.5116 3.47011e-16)
(50.2376 14.4345 -1.99554e-17)
(50.2291 14.3607 1.4791e-16)
(50.2195 14.2901 1.36158e-16)
(50.2087 14.2226 0)
(50.197 14.158 3.54087e-16)
(50.1843 14.0963 -2.05367e-16)
(50.1707 14.0373 -1.15789e-17)
(50.1562 13.981 -1.83044e-16)
(50.141 13.9273 -1.94201e-17)
(50.1251 13.876 0)
(50.1085 13.8271 -1.17424e-16)
(50.0912 13.7806 0)
(50.0734 13.7362 0)
(50.0551 13.6941 2.48914e-17)
(50.0363 13.654 2.1178e-17)
(50.0171 13.6161 2.19509e-17)
(49.9976 13.5801 1.55013e-16)
(49.9777 13.5461 -3.94206e-18)
(49.9576 13.5141 1.5913e-17)
(49.9374 13.4841 1.53358e-17)
(49.9172 13.456 4.36752e-16)
(49.8971 13.4299 2.2437e-16)
(49.8773 13.4057 0)
(49.8578 13.3837 2.04815e-17)
(49.8391 13.3639 3.05867e-16)
(49.822 13.346 -2.81905e-16)
(49.8059 13.3307 2.61427e-16)
(49.7883 13.3206 -2.61849e-16)
(49.7828 13.3069 2.51585e-16)
(49.789 13.2862 0)
(43.9342 -3.73544 -1.12821e-20)
(43.84 -3.67246 1.01966e-16)
(43.7222 -3.60146 0)
(43.5781 -3.52203 1.21645e-16)
(43.4024 -3.43507 0)
(43.188 -3.33936 -1.50124e-16)
(42.9235 -3.23553 0)
(42.5908 -3.12175 0)
(42.1604 -2.99773 -2.37403e-16)
(41.5784 -2.85981 3.48288e-20)
(40.7355 -2.70153 0)
(39.3357 -2.5074 5.04573e-20)
(37.3085 -2.2679 -1.00274e-15)
(50.2111 15.862 -3.97394e-18)
(50.229 15.7307 -3.51598e-18)
(50.2441 15.6044 0)
(50.2564 15.4828 0)
(50.2662 15.3659 -9.569e-17)
(50.2736 15.2535 -7.81491e-17)