# Force coefficients
# liftDir     : (0.000000e+00 1.000000e+00 0.000000e+00)
# dragDir     : (1.000000e+00 0.000000e+00 0.000000e+00)
# pitchAxis   : (0.000000e+00 0.000000e+00 1.000000e+00)
# magUInf     : 5.148150e+01
# lRef        : 1.000000e+00
# Aref        : 1.000000e-02
# CofR        : (2.500000e-01 0.000000e+00 0.000000e+00)
# Time        	Cm            	Cd            	Cl            	Cl(f)         	Cl(r)         
1             	1.037406e+05	3.408332e+07	-1.775028e+05	1.498922e+04	-1.924920e+05
2             	-1.576848e+15	-2.739474e+17	6.581344e+13	-1.543941e+15	1.609754e+15
3             	6.344472e+25	1.068713e+28	2.307608e+22	6.345626e+25	-6.343318e+25
