/*--------------------------------*- C++ -*----------------------------------*\
  =========                 |
  \\      /  F ield         | OpenFOAM: The Open Source CFD Toolbox
   \\    /   O peration     | Website:  https://openfoam.org
    \\  /    A nd           | Version:  7
     \\/     M anipulation  |
\*---------------------------------------------------------------------------*/
FoamFile
{
    version     2.0;
    format      ascii;
    class       volScalarField;
    location    "1000";
    object      nut;
}
// * * * * * * * * * * * * * * * * * * * * * * * * * * * * * * * * * * * * * //

dimensions      [0 2 -1 0 0 0 0];

internalField   nonuniform List<scalar> 
23117
(
5.21748e-06
5.21549e-06
5.22926e-06
5.21539e-06
5.22795e-06
5.2371e-06
5.21485e-06
5.22739e-06
5.23519e-06
5.23918e-06
5.21462e-06
5.22667e-06
5.23389e-06
5.23515e-06
5.23406e-06
5.2144e-06
5.22608e-06
5.23235e-06
5.23278e-06
5.22884e-06
5.22742e-06
5.21424e-06
5.22543e-06
5.23072e-06
5.23003e-06
5.22661e-06
5.22485e-06
5.22798e-06
5.21411e-06
5.22474e-06
5.22897e-06
5.22746e-06
5.2244e-06
5.22507e-06
5.2291e-06
5.23275e-06
5.21399e-06
5.22397e-06
5.22715e-06
5.22508e-06
5.22303e-06
5.22544e-06
5.23002e-06
5.23316e-06
5.23364e-06
5.21386e-06
5.22313e-06
5.22529e-06
5.22302e-06
5.22234e-06
5.22618e-06
5.23064e-06
5.23246e-06
5.23107e-06
5.22956e-06
5.21373e-06
5.22221e-06
5.22346e-06
5.22136e-06
5.22234e-06
5.22701e-06
5.23086e-06
5.23135e-06
5.2291e-06
5.22615e-06
5.22601e-06
5.21357e-06
5.22121e-06
5.22171e-06
5.22016e-06
5.22281e-06
5.22775e-06
5.2306e-06
5.22982e-06
5.22706e-06
5.22511e-06
5.22486e-06
5.22588e-06
5.2134e-06
5.22016e-06
5.22011e-06
5.21945e-06
5.22343e-06
5.22824e-06
5.22989e-06
5.22808e-06
5.22533e-06
5.2243e-06
5.22496e-06
5.22582e-06
5.2261e-06
5.21319e-06
5.21908e-06
5.2187e-06
5.21924e-06
5.22413e-06
5.22839e-06
5.22881e-06
5.22631e-06
5.22405e-06
5.22401e-06
5.22497e-06
5.22555e-06
5.22499e-06
5.2239e-06
5.21294e-06
5.21798e-06
5.21754e-06
5.21946e-06
5.2248e-06
5.2282e-06
5.22747e-06
5.2247e-06
5.2233e-06
5.22395e-06
5.22495e-06
5.225e-06
5.22364e-06
5.22116e-06
5.2194e-06
5.21266e-06
5.2169e-06
5.21665e-06
5.21994e-06
5.22533e-06
5.22767e-06
5.226e-06
5.22339e-06
5.22298e-06
5.224e-06
5.22473e-06
5.22411e-06
5.22208e-06
5.21918e-06
5.21607e-06
5.2148e-06
5.21235e-06
5.21586e-06
5.21607e-06
5.2205e-06
5.22564e-06
5.22686e-06
5.22453e-06
5.22246e-06
5.22285e-06
5.22401e-06
5.22426e-06
5.22294e-06
5.22032e-06
5.21721e-06
5.21444e-06
5.21249e-06
5.21238e-06
5.21201e-06
5.21489e-06
5.2158e-06
5.22109e-06
5.2257e-06
5.22583e-06
5.22319e-06
5.22194e-06
5.22286e-06
5.22388e-06
5.22354e-06
5.22155e-06
5.21852e-06
5.21539e-06
5.21301e-06
5.21189e-06
5.21167e-06
5.21249e-06
5.21163e-06
5.21402e-06
5.21583e-06
5.22166e-06
5.22551e-06
5.22467e-06
5.22206e-06
5.2217e-06
5.2229e-06
5.22358e-06
5.22259e-06
5.22004e-06
5.21679e-06
5.21385e-06
5.21201e-06
5.21148e-06
5.212e-06
5.21296e-06
5.21415e-06
5.21124e-06
5.21327e-06
5.21614e-06
5.22216e-06
5.22509e-06
5.22347e-06
5.22121e-06
5.22159e-06
5.22289e-06
5.22308e-06
5.22146e-06
5.2185e-06
5.21521e-06
5.21263e-06
5.21141e-06
5.21143e-06
5.21227e-06
5.21365e-06
5.21514e-06
5.21642e-06
5.21083e-06
5.21266e-06
5.2166e-06
5.22252e-06
5.22446e-06
5.2223e-06
5.22066e-06
5.22159e-06
5.22276e-06
5.2224e-06
5.22022e-06
5.21699e-06
5.21383e-06
5.21174e-06
5.21111e-06
5.21158e-06
5.21273e-06
5.21421e-06
5.21587e-06
5.2175e-06
5.21877e-06
5.21041e-06
5.21221e-06
5.21708e-06
5.22272e-06
5.22368e-06
5.22124e-06
5.22038e-06
5.22162e-06
5.2225e-06
5.22157e-06
5.21893e-06
5.21558e-06
5.2127e-06
5.21116e-06
5.21103e-06
5.21186e-06
5.21322e-06
5.21483e-06
5.21649e-06
5.21818e-06
5.21977e-06
5.22104e-06
5.20998e-06
5.21192e-06
5.21757e-06
5.22274e-06
5.22279e-06
5.22034e-06
5.22023e-06
5.22163e-06
5.2221e-06
5.22062e-06
5.21764e-06
5.21431e-06
5.21182e-06
5.21083e-06
5.21112e-06
5.21222e-06
5.21373e-06
5.2154e-06
5.21711e-06
5.21876e-06
5.2204e-06
5.22191e-06
5.22316e-06
5.20957e-06
5.21179e-06
5.21806e-06
5.2226e-06
5.22185e-06
5.21963e-06
5.22016e-06
5.22156e-06
5.22157e-06
5.2196e-06
5.2164e-06
5.21322e-06
5.21117e-06
5.21068e-06
5.21133e-06
5.21263e-06
5.21424e-06
5.21595e-06
5.21766e-06
5.21933e-06
5.22092e-06
5.22248e-06
5.2239e-06
5.22513e-06
5.20918e-06
5.21184e-06
5.2185e-06
5.2223e-06
5.22091e-06
5.21914e-06
5.22015e-06
5.2214e-06
5.22093e-06
5.21855e-06
5.21524e-06
5.2123e-06
5.21074e-06
5.21068e-06
5.2116e-06
5.21305e-06
5.21473e-06
5.21646e-06
5.21817e-06
5.21982e-06
5.22141e-06
5.22292e-06
5.2244e-06
5.22572e-06
5.22694e-06
5.20881e-06
5.21205e-06
5.21889e-06
5.22187e-06
5.22001e-06
5.21885e-06
5.22016e-06
5.22115e-06
5.2202e-06
5.2175e-06
5.21419e-06
5.21157e-06
5.21048e-06
5.21077e-06
5.21191e-06
5.21347e-06
5.21519e-06
5.21693e-06
5.21863e-06
5.22027e-06
5.22184e-06
5.22334e-06
5.22475e-06
5.22616e-06
5.22739e-06
5.22861e-06
5.20849e-06
5.21241e-06
5.21919e-06
5.22132e-06
5.2192e-06
5.21869e-06
5.22016e-06
5.22081e-06
5.21941e-06
5.21648e-06
5.21326e-06
5.211e-06
5.21035e-06
5.21094e-06
5.21224e-06
5.21388e-06
5.21563e-06
5.21737e-06
5.21905e-06
5.22067e-06
5.22221e-06
5.22368e-06
5.22509e-06
5.22643e-06
5.22777e-06
5.22892e-06
5.23014e-06
5.2082e-06
5.21289e-06
5.2194e-06
5.22069e-06
5.21848e-06
5.21858e-06
5.22011e-06
5.22038e-06
5.21859e-06
5.21552e-06
5.21246e-06
5.2106e-06
5.21032e-06
5.21115e-06
5.21258e-06
5.21427e-06
5.21603e-06
5.21776e-06
5.21943e-06
5.22102e-06
5.22253e-06
5.22398e-06
5.22536e-06
5.22669e-06
5.22795e-06
5.22924e-06
5.23032e-06
5.23154e-06
5.20796e-06
5.21332e-06
5.21949e-06
5.22001e-06
5.2179e-06
5.21853e-06
5.22e-06
5.21987e-06
5.21777e-06
5.21463e-06
5.21179e-06
5.21032e-06
5.21037e-06
5.21139e-06
5.21292e-06
5.21465e-06
5.2164e-06
5.21812e-06
5.21976e-06
5.22132e-06
5.2228e-06
5.22422e-06
5.22558e-06
5.22689e-06
5.22815e-06
5.22936e-06
5.2306e-06
5.23161e-06
5.23284e-06
5.20778e-06
5.21375e-06
5.21948e-06
5.2193e-06
5.21745e-06
5.2185e-06
5.21983e-06
5.21932e-06
5.21695e-06
5.21382e-06
5.21123e-06
5.21015e-06
5.21047e-06
5.21165e-06
5.21325e-06
5.215e-06
5.21674e-06
5.21844e-06
5.22005e-06
5.22158e-06
5.22304e-06
5.22443e-06
5.22576e-06
5.22705e-06
5.22829e-06
5.2295e-06
5.23065e-06
5.23185e-06
5.23281e-06
5.23405e-06
5.20765e-06
5.21416e-06
5.21936e-06
5.2186e-06
5.21715e-06
5.21849e-06
5.2196e-06
5.21872e-06
5.21616e-06
5.21309e-06
5.21079e-06
5.21005e-06
5.21061e-06
5.21192e-06
5.21357e-06
5.21532e-06
5.21706e-06
5.21872e-06
5.2203e-06
5.2218e-06
5.22323e-06
5.22459e-06
5.22591e-06
5.22717e-06
5.2284e-06
5.22959e-06
5.23075e-06
5.23186e-06
5.23302e-06
5.23392e-06
5.23518e-06
5.20758e-06
5.21455e-06
5.21915e-06
5.21792e-06
5.21697e-06
5.21847e-06
5.21931e-06
5.2181e-06
5.21541e-06
5.21245e-06
5.21044e-06
5.21002e-06
5.21078e-06
5.21219e-06
5.21387e-06
5.21562e-06
5.21734e-06
5.21897e-06
5.22052e-06
5.22199e-06
5.22339e-06
5.22473e-06
5.22602e-06
5.22727e-06
5.22848e-06
5.22965e-06
5.23079e-06
5.23191e-06
5.23298e-06
5.23412e-06
5.23497e-06
5.23624e-06
5.20757e-06
5.21491e-06
5.21886e-06
5.21728e-06
5.21684e-06
5.21843e-06
5.21897e-06
5.21748e-06
5.2147e-06
5.21189e-06
5.21019e-06
5.21004e-06
5.21096e-06
5.21245e-06
5.21416e-06
5.2159e-06
5.21759e-06
5.21919e-06
5.22071e-06
5.22214e-06
5.22352e-06
5.22483e-06
5.2261e-06
5.22733e-06
5.22853e-06
5.22969e-06
5.23082e-06
5.23192e-06
5.233e-06
5.23403e-06
5.23514e-06
5.23595e-06
5.23723e-06
5.20763e-06
5.21523e-06
5.21851e-06
5.2167e-06
5.21674e-06
5.21835e-06
5.21859e-06
5.21685e-06
5.21405e-06
5.21141e-06
5.21001e-06
5.2101e-06
5.21116e-06
5.21271e-06
5.21443e-06
5.21615e-06
5.21781e-06
5.21938e-06
5.22087e-06
5.22227e-06
5.22362e-06
5.22491e-06
5.22617e-06
5.22738e-06
5.22856e-06
5.22971e-06
5.23083e-06
5.23192e-06
5.23298e-06
5.23402e-06
5.23502e-06
5.2361e-06
5.23687e-06
5.23816e-06
5.20776e-06
5.21551e-06
5.2181e-06
5.21619e-06
5.21667e-06
5.21823e-06
5.21818e-06
5.21624e-06
5.21346e-06
5.21101e-06
5.20989e-06
5.21018e-06
5.21136e-06
5.21295e-06
5.21468e-06
5.21638e-06
5.21801e-06
5.21955e-06
5.221e-06
5.22238e-06
5.2237e-06
5.22497e-06
5.22621e-06
5.22741e-06
5.22857e-06
5.22971e-06
5.23081e-06
5.23189e-06
5.23294e-06
5.23397e-06
5.23498e-06
5.23594e-06
5.237e-06
5.23774e-06
5.23904e-06
5.20796e-06
5.21575e-06
5.21765e-06
5.21575e-06
5.21662e-06
5.21808e-06
5.21774e-06
5.21565e-06
5.21292e-06
5.21067e-06
5.20982e-06
5.21029e-06
5.21156e-06
5.21319e-06
5.21491e-06
5.21659e-06
5.21819e-06
5.21969e-06
5.22111e-06
5.22246e-06
5.22376e-06
5.22502e-06
5.22624e-06
5.22742e-06
5.22857e-06
5.22969e-06
5.23079e-06
5.23185e-06
5.23289e-06
5.2339e-06
5.23489e-06
5.23587e-06
5.2368e-06
5.23784e-06
5.23854e-06
5.23986e-06
5.20824e-06
5.21593e-06
5.21717e-06
5.2154e-06
5.21657e-06
5.2179e-06
5.21729e-06
5.21509e-06
5.21243e-06
5.21039e-06
5.20978e-06
5.21041e-06
5.21176e-06
5.21341e-06
5.21512e-06
5.21677e-06
5.21834e-06
5.21981e-06
5.2212e-06
5.22253e-06
5.22381e-06
5.22504e-06
5.22625e-06
5.22742e-06
5.22856e-06
5.22966e-06
5.23074e-06
5.2318e-06
5.23282e-06
5.23382e-06
5.2348e-06
5.23576e-06
5.23671e-06
5.23761e-06
5.23863e-06
5.2393e-06
5.24063e-06
5.20863e-06
5.21605e-06
5.21668e-06
5.21513e-06
5.21654e-06
5.21768e-06
5.21683e-06
5.21456e-06
5.212e-06
5.21016e-06
5.20977e-06
5.21055e-06
5.21196e-06
5.21362e-06
5.21531e-06
5.21694e-06
5.21847e-06
5.21991e-06
5.22127e-06
5.22258e-06
5.22384e-06
5.22506e-06
5.22625e-06
5.2274e-06
5.22853e-06
5.22962e-06
5.23069e-06
5.23173e-06
5.23274e-06
5.23373e-06
5.2347e-06
5.23564e-06
5.23657e-06
5.23749e-06
5.23837e-06
5.23937e-06
5.24002e-06
5.24136e-06
5.20914e-06
5.21612e-06
5.21618e-06
5.21495e-06
5.21649e-06
5.21743e-06
5.21638e-06
5.21407e-06
5.21162e-06
5.20999e-06
5.2098e-06
5.21069e-06
5.21215e-06
5.21382e-06
5.21549e-06
5.21709e-06
5.21858e-06
5.21999e-06
5.22133e-06
5.22262e-06
5.22386e-06
5.22506e-06
5.22624e-06
5.22738e-06
5.22849e-06
5.22957e-06
5.23063e-06
5.23165e-06
5.23265e-06
5.23363e-06
5.23458e-06
5.23551e-06
5.23643e-06
5.23733e-06
5.23823e-06
5.23908e-06
5.24007e-06
5.24069e-06
5.24205e-06
5.2096e-06
5.21611e-06
5.21569e-06
5.21483e-06
5.21644e-06
5.21716e-06
5.21592e-06
5.21361e-06
5.21128e-06
5.20985e-06
5.20984e-06
5.21084e-06
5.21234e-06
5.214e-06
5.21565e-06
5.21722e-06
5.21868e-06
5.22006e-06
5.22138e-06
5.22264e-06
5.22387e-06
5.22506e-06
5.22621e-06
5.22734e-06
5.22844e-06
5.22951e-06
5.23055e-06
5.23157e-06
5.23256e-06
5.23352e-06
5.23446e-06
5.23538e-06
5.23628e-06
5.23717e-06
5.23804e-06
5.23891e-06
5.23975e-06
5.24072e-06
5.24133e-06
5.2427e-06
5.20993e-06
5.21603e-06
5.21521e-06
5.21472e-06
5.21636e-06
5.21687e-06
5.21548e-06
5.21318e-06
5.21098e-06
5.20975e-06
5.2099e-06
5.21098e-06
5.21252e-06
5.21417e-06
5.2158e-06
5.21733e-06
5.21877e-06
5.22012e-06
5.22141e-06
5.22266e-06
5.22387e-06
5.22504e-06
5.22619e-06
5.2273e-06
5.22839e-06
5.22944e-06
5.23047e-06
5.23148e-06
5.23245e-06
5.2334e-06
5.23433e-06
5.23524e-06
5.23613e-06
5.237e-06
5.23786e-06
5.23871e-06
5.23956e-06
5.24038e-06
5.24134e-06
5.24193e-06
5.24332e-06
5.21024e-06
5.21589e-06
5.21476e-06
5.21462e-06
5.21626e-06
5.21656e-06
5.21506e-06
5.21279e-06
5.21072e-06
5.20968e-06
5.20997e-06
5.21113e-06
5.21269e-06
5.21433e-06
5.21593e-06
5.21743e-06
5.21884e-06
5.22017e-06
5.22144e-06
5.22267e-06
5.22386e-06
5.22502e-06
5.22615e-06
5.22725e-06
5.22833e-06
5.22937e-06
5.23039e-06
5.23138e-06
5.23234e-06
5.23328e-06
5.2342e-06
5.23509e-06
5.23597e-06
5.23683e-06
5.23767e-06
5.23851e-06
5.23933e-06
5.24017e-06
5.24097e-06
5.24193e-06
5.2425e-06
5.2439e-06
5.21052e-06
5.21571e-06
5.21435e-06
5.21454e-06
5.21615e-06
5.21625e-06
5.21465e-06
5.21243e-06
5.21049e-06
5.20963e-06
5.21005e-06
5.21128e-06
5.21285e-06
5.21448e-06
5.21605e-06
5.21752e-06
5.2189e-06
5.2202e-06
5.22146e-06
5.22267e-06
5.22384e-06
5.22499e-06
5.22611e-06
5.2272e-06
5.22826e-06
5.22929e-06
5.2303e-06
5.23127e-06
5.23223e-06
5.23316e-06
5.23406e-06
5.23495e-06
5.23581e-06
5.23666e-06
5.23749e-06
5.23831e-06
5.23912e-06
5.23992e-06
5.24074e-06
5.24153e-06
5.24248e-06
5.24304e-06
5.24446e-06
5.21077e-06
5.21549e-06
5.21397e-06
5.21446e-06
5.21601e-06
5.21593e-06
5.21426e-06
5.2121e-06
5.2103e-06
5.2096e-06
5.21014e-06
5.21142e-06
5.213e-06
5.21461e-06
5.21615e-06
5.21759e-06
5.21895e-06
5.22023e-06
5.22147e-06
5.22266e-06
5.22382e-06
5.22496e-06
5.22606e-06
5.22714e-06
5.22819e-06
5.22921e-06
5.2302e-06
5.23117e-06
5.23211e-06
5.23303e-06
5.23392e-06
5.23479e-06
5.23565e-06
5.23648e-06
5.2373e-06
5.23811e-06
5.2389e-06
5.23969e-06
5.24048e-06
5.24128e-06
5.24206e-06
5.243e-06
5.24355e-06
5.24498e-06
5.21099e-06
5.21523e-06
5.21363e-06
5.21439e-06
5.21586e-06
5.21561e-06
5.21389e-06
5.2118e-06
5.21013e-06
5.20959e-06
5.21023e-06
5.21156e-06
5.21314e-06
5.21474e-06
5.21625e-06
5.21766e-06
5.21899e-06
5.22025e-06
5.22147e-06
5.22265e-06
5.2238e-06
5.22492e-06
5.22601e-06
5.22707e-06
5.22811e-06
5.22912e-06
5.2301e-06
5.23106e-06
5.23199e-06
5.23289e-06
5.23378e-06
5.23464e-06
5.23548e-06
5.23631e-06
5.23712e-06
5.23791e-06
5.23869e-06
5.23946e-06
5.24023e-06
5.241e-06
5.24179e-06
5.24255e-06
5.2435e-06
5.24404e-06
5.24548e-06
5.21118e-06
5.21496e-06
5.21333e-06
5.21432e-06
5.21569e-06
5.21529e-06
5.21354e-06
5.21152e-06
5.20998e-06
5.20959e-06
5.21033e-06
5.2117e-06
5.21328e-06
5.21485e-06
5.21633e-06
5.21772e-06
5.21902e-06
5.22027e-06
5.22147e-06
5.22263e-06
5.22377e-06
5.22488e-06
5.22595e-06
5.22701e-06
5.22803e-06
5.22903e-06
5.23e-06
5.23094e-06
5.23186e-06
5.23276e-06
5.23363e-06
5.23449e-06
5.23532e-06
5.23613e-06
5.23693e-06
5.23771e-06
5.23848e-06
5.23924e-06
5.23999e-06
5.24074e-06
5.24149e-06
5.24227e-06
5.24302e-06
5.24397e-06
5.24451e-06
5.24596e-06
5.21134e-06
5.21466e-06
5.21308e-06
5.21426e-06
5.21551e-06
5.21498e-06
5.21321e-06
5.21128e-06
5.20986e-06
5.20961e-06
5.21043e-06
5.21183e-06
5.2134e-06
5.21495e-06
5.2164e-06
5.21777e-06
5.21905e-06
5.22028e-06
5.22146e-06
5.22261e-06
5.22373e-06
5.22483e-06
5.2259e-06
5.22694e-06
5.22795e-06
5.22893e-06
5.22989e-06
5.23083e-06
5.23174e-06
5.23262e-06
5.23349e-06
5.23433e-06
5.23515e-06
5.23596e-06
5.23674e-06
5.23751e-06
5.23827e-06
5.23901e-06
5.23975e-06
5.24048e-06
5.24121e-06
5.24195e-06
5.24272e-06
5.24347e-06
5.24442e-06
5.24496e-06
5.24641e-06
5.21147e-06
5.21436e-06
5.21286e-06
5.21419e-06
5.21532e-06
5.21467e-06
5.2129e-06
5.21105e-06
5.20976e-06
5.20963e-06
5.21053e-06
5.21195e-06
5.21352e-06
5.21504e-06
5.21647e-06
5.21781e-06
5.21907e-06
5.22028e-06
5.22145e-06
5.22259e-06
5.2237e-06
5.22478e-06
5.22584e-06
5.22686e-06
5.22787e-06
5.22884e-06
5.22979e-06
5.23071e-06
5.23161e-06
5.23249e-06
5.23334e-06
5.23417e-06
5.23499e-06
5.23578e-06
5.23656e-06
5.23732e-06
5.23806e-06
5.2388e-06
5.23952e-06
5.24023e-06
5.24094e-06
5.24166e-06
5.24238e-06
5.24314e-06
5.24389e-06
5.24485e-06
5.2454e-06
5.24685e-06
5.21158e-06
5.21404e-06
5.21269e-06
5.21412e-06
5.21512e-06
5.21437e-06
5.2126e-06
5.21084e-06
5.20967e-06
5.20967e-06
5.21064e-06
5.21208e-06
5.21363e-06
5.21513e-06
5.21653e-06
5.21784e-06
5.21909e-06
5.22028e-06
5.22144e-06
5.22256e-06
5.22366e-06
5.22473e-06
5.22577e-06
5.22679e-06
5.22778e-06
5.22875e-06
5.22968e-06
5.2306e-06
5.23149e-06
5.23235e-06
5.2332e-06
5.23402e-06
5.23482e-06
5.23561e-06
5.23637e-06
5.23712e-06
5.23786e-06
5.23858e-06
5.23929e-06
5.23999e-06
5.24068e-06
5.24138e-06
5.24208e-06
5.24279e-06
5.24354e-06
5.24429e-06
5.24525e-06
5.24582e-06
5.24726e-06
5.21166e-06
5.21372e-06
5.21256e-06
5.21404e-06
5.21492e-06
5.21407e-06
5.21233e-06
5.21066e-06
5.2096e-06
5.20971e-06
5.21074e-06
5.21219e-06
5.21373e-06
5.2152e-06
5.21658e-06
5.21787e-06
5.2191e-06
5.22028e-06
5.22142e-06
5.22253e-06
5.22362e-06
5.22468e-06
5.22571e-06
5.22672e-06
5.2277e-06
5.22865e-06
5.22958e-06
5.23048e-06
5.23136e-06
5.23222e-06
5.23305e-06
5.23386e-06
5.23466e-06
5.23543e-06
5.23619e-06
5.23693e-06
5.23765e-06
5.23836e-06
5.23906e-06
5.23975e-06
5.24043e-06
5.24111e-06
5.24178e-06
5.24247e-06
5.24317e-06
5.24392e-06
5.24467e-06
5.24564e-06
5.24622e-06
5.24766e-06
5.21172e-06
5.21341e-06
5.21246e-06
5.21396e-06
5.21471e-06
5.21379e-06
5.21207e-06
5.21049e-06
5.20955e-06
5.20976e-06
5.21084e-06
5.2123e-06
5.21382e-06
5.21527e-06
5.21663e-06
5.2179e-06
5.21911e-06
5.22027e-06
5.2214e-06
5.2225e-06
5.22358e-06
5.22463e-06
5.22565e-06
5.22664e-06
5.22761e-06
5.22855e-06
5.22947e-06
5.23037e-06
5.23124e-06
5.23208e-06
5.23291e-06
5.23371e-06
5.2345e-06
5.23526e-06
5.23601e-06
5.23674e-06
5.23745e-06
5.23815e-06
5.23884e-06
5.23952e-06
5.24019e-06
5.24085e-06
5.24151e-06
5.24217e-06
5.24284e-06
5.24353e-06
5.24428e-06
5.24503e-06
5.24602e-06
5.24662e-06
5.24805e-06
5.21175e-06
5.21309e-06
5.21235e-06
5.21387e-06
5.21449e-06
5.21352e-06
5.21184e-06
5.21034e-06
5.2095e-06
5.20981e-06
5.21094e-06
5.21241e-06
5.21391e-06
5.21534e-06
5.21667e-06
5.21792e-06
5.21911e-06
5.22026e-06
5.22138e-06
5.22247e-06
5.22353e-06
5.22457e-06
5.22558e-06
5.22657e-06
5.22753e-06
5.22846e-06
5.22937e-06
5.23025e-06
5.23111e-06
5.23195e-06
5.23277e-06
5.23356e-06
5.23433e-06
5.23509e-06
5.23583e-06
5.23655e-06
5.23725e-06
5.23795e-06
5.23862e-06
5.23929e-06
5.23995e-06
5.24059e-06
5.24124e-06
5.24188e-06
5.24252e-06
5.24319e-06
5.24387e-06
5.24462e-06
5.24537e-06
5.24638e-06
5.247e-06
5.24842e-06
5.21177e-06
5.21279e-06
5.21225e-06
5.21377e-06
5.21428e-06
5.21326e-06
5.21161e-06
5.2102e-06
5.20947e-06
5.20987e-06
5.21104e-06
5.21251e-06
5.21399e-06
5.21539e-06
5.2167e-06
5.21793e-06
5.21911e-06
5.22025e-06
5.22136e-06
5.22244e-06
5.22349e-06
5.22452e-06
5.22552e-06
5.22649e-06
5.22744e-06
5.22837e-06
5.22927e-06
5.23014e-06
5.23099e-06
5.23182e-06
5.23263e-06
5.23341e-06
5.23418e-06
5.23492e-06
5.23565e-06
5.23636e-06
5.23706e-06
5.23774e-06
5.23841e-06
5.23906e-06
5.23971e-06
5.24035e-06
5.24098e-06
5.2416e-06
5.24223e-06
5.24286e-06
5.24351e-06
5.24419e-06
5.24494e-06
5.2457e-06
5.24673e-06
5.24738e-06
5.24878e-06
5.21177e-06
5.21249e-06
5.21215e-06
5.21366e-06
5.21406e-06
5.21301e-06
5.2114e-06
5.21007e-06
5.20945e-06
5.20993e-06
5.21113e-06
5.2126e-06
5.21407e-06
5.21544e-06
5.21673e-06
5.21795e-06
5.21911e-06
5.22024e-06
5.22133e-06
5.2224e-06
5.22344e-06
5.22446e-06
5.22545e-06
5.22642e-06
5.22736e-06
5.22827e-06
5.22916e-06
5.23003e-06
5.23087e-06
5.23169e-06
5.23249e-06
5.23326e-06
5.23402e-06
5.23476e-06
5.23547e-06
5.23618e-06
5.23686e-06
5.23754e-06
5.2382e-06
5.23884e-06
5.23948e-06
5.24011e-06
5.24072e-06
5.24134e-06
5.24194e-06
5.24255e-06
5.24317e-06
5.24381e-06
5.24449e-06
5.24524e-06
5.24601e-06
5.24706e-06
5.24775e-06
5.24913e-06
5.21175e-06
5.2122e-06
5.21205e-06
5.21354e-06
5.21385e-06
5.21277e-06
5.2112e-06
5.20996e-06
5.20943e-06
5.20999e-06
5.21123e-06
5.21269e-06
5.21413e-06
5.21549e-06
5.21676e-06
5.21796e-06
5.21911e-06
5.22022e-06
5.22131e-06
5.22237e-06
5.2234e-06
5.22441e-06
5.22539e-06
5.22635e-06
5.22728e-06
5.22818e-06
5.22906e-06
5.22992e-06
5.23075e-06
5.23156e-06
5.23235e-06
5.23312e-06
5.23386e-06
5.23459e-06
5.2353e-06
5.236e-06
5.23667e-06
5.23734e-06
5.23799e-06
5.23863e-06
5.23925e-06
5.23987e-06
5.24048e-06
5.24108e-06
5.24167e-06
5.24226e-06
5.24286e-06
5.24346e-06
5.2441e-06
5.24477e-06
5.24552e-06
5.24631e-06
5.24739e-06
5.24812e-06
5.24947e-06
5.21171e-06
5.21192e-06
5.21195e-06
5.21342e-06
5.21364e-06
5.21254e-06
5.21102e-06
5.20986e-06
5.20943e-06
5.21005e-06
5.21132e-06
5.21277e-06
5.2142e-06
5.21553e-06
5.21678e-06
5.21797e-06
5.2191e-06
5.22021e-06
5.22128e-06
5.22233e-06
5.22336e-06
5.22435e-06
5.22533e-06
5.22628e-06
5.2272e-06
5.22809e-06
5.22897e-06
5.22981e-06
5.23064e-06
5.23144e-06
5.23222e-06
5.23297e-06
5.23371e-06
5.23443e-06
5.23513e-06
5.23582e-06
5.23649e-06
5.23714e-06
5.23778e-06
5.23841e-06
5.23903e-06
5.23964e-06
5.24024e-06
5.24083e-06
5.24141e-06
5.24199e-06
5.24256e-06
5.24314e-06
5.24374e-06
5.24436e-06
5.24503e-06
5.2458e-06
5.2466e-06
5.24771e-06
5.24849e-06
5.24981e-06
5.21166e-06
5.21166e-06
5.21186e-06
5.21329e-06
5.21344e-06
5.21232e-06
5.21084e-06
5.20976e-06
5.20942e-06
5.21012e-06
5.2114e-06
5.21285e-06
5.21426e-06
5.21557e-06
5.2168e-06
5.21797e-06
5.2191e-06
5.22019e-06
5.22125e-06
5.2223e-06
5.22331e-06
5.2243e-06
5.22527e-06
5.22621e-06
5.22712e-06
5.22801e-06
5.22887e-06
5.22971e-06
5.23052e-06
5.23132e-06
5.23209e-06
5.23283e-06
5.23356e-06
5.23427e-06
5.23497e-06
5.23564e-06
5.2363e-06
5.23695e-06
5.23758e-06
5.2382e-06
5.23881e-06
5.23941e-06
5.24e-06
5.24058e-06
5.24116e-06
5.24172e-06
5.24228e-06
5.24284e-06
5.24341e-06
5.24399e-06
5.24461e-06
5.24528e-06
5.24606e-06
5.24688e-06
5.24803e-06
5.24886e-06
5.25015e-06
5.21159e-06
5.21141e-06
5.21177e-06
5.21317e-06
5.21323e-06
5.21211e-06
5.21068e-06
5.20968e-06
5.20943e-06
5.21019e-06
5.21149e-06
5.21292e-06
5.21431e-06
5.2156e-06
5.21682e-06
5.21798e-06
5.21909e-06
5.22017e-06
5.22123e-06
5.22226e-06
5.22327e-06
5.22425e-06
5.22521e-06
5.22614e-06
5.22704e-06
5.22792e-06
5.22878e-06
5.22961e-06
5.23041e-06
5.2312e-06
5.23196e-06
5.2327e-06
5.23342e-06
5.23412e-06
5.2348e-06
5.23547e-06
5.23612e-06
5.23676e-06
5.23739e-06
5.238e-06
5.2386e-06
5.23919e-06
5.23977e-06
5.24034e-06
5.24091e-06
5.24146e-06
5.24201e-06
5.24256e-06
5.24311e-06
5.24366e-06
5.24423e-06
5.24484e-06
5.24552e-06
5.2463e-06
5.24716e-06
5.24834e-06
5.24923e-06
5.25048e-06
5.21151e-06
5.21118e-06
5.21168e-06
5.21303e-06
5.21303e-06
5.21191e-06
5.21053e-06
5.20961e-06
5.20944e-06
5.21025e-06
5.21157e-06
5.21299e-06
5.21436e-06
5.21563e-06
5.21683e-06
5.21798e-06
5.21908e-06
5.22015e-06
5.2212e-06
5.22222e-06
5.22322e-06
5.2242e-06
5.22515e-06
5.22607e-06
5.22697e-06
5.22784e-06
5.22869e-06
5.22951e-06
5.23031e-06
5.23108e-06
5.23183e-06
5.23256e-06
5.23327e-06
5.23396e-06
5.23464e-06
5.2353e-06
5.23594e-06
5.23657e-06
5.23719e-06
5.2378e-06
5.23839e-06
5.23897e-06
5.23955e-06
5.24011e-06
5.24067e-06
5.24121e-06
5.24175e-06
5.24229e-06
5.24282e-06
5.24335e-06
5.24389e-06
5.24445e-06
5.24506e-06
5.24574e-06
5.24654e-06
5.24742e-06
5.24865e-06
5.24961e-06
5.25082e-06
5.21143e-06
5.21096e-06
5.21159e-06
5.2129e-06
5.21284e-06
5.21171e-06
5.21038e-06
5.20954e-06
5.20946e-06
5.21032e-06
5.21164e-06
5.21306e-06
5.2144e-06
5.21566e-06
5.21685e-06
5.21798e-06
5.21907e-06
5.22014e-06
5.22117e-06
5.22219e-06
5.22318e-06
5.22415e-06
5.22509e-06
5.22601e-06
5.2269e-06
5.22776e-06
5.2286e-06
5.22941e-06
5.2302e-06
5.23096e-06
5.23171e-06
5.23243e-06
5.23313e-06
5.23382e-06
5.23448e-06
5.23513e-06
5.23577e-06
5.23639e-06
5.237e-06
5.2376e-06
5.23819e-06
5.23876e-06
5.23933e-06
5.23988e-06
5.24043e-06
5.24097e-06
5.2415e-06
5.24203e-06
5.24254e-06
5.24306e-06
5.24358e-06
5.24411e-06
5.24466e-06
5.24526e-06
5.24594e-06
5.24676e-06
5.24768e-06
5.24896e-06
5.24999e-06
5.25116e-06
5.21133e-06
5.21076e-06
5.2115e-06
5.21276e-06
5.21265e-06
5.21153e-06
5.21025e-06
5.20948e-06
5.20948e-06
5.21039e-06
5.21172e-06
5.21312e-06
5.21445e-06
5.21569e-06
5.21686e-06
5.21798e-06
5.21906e-06
5.22012e-06
5.22115e-06
5.22216e-06
5.22314e-06
5.2241e-06
5.22504e-06
5.22594e-06
5.22683e-06
5.22768e-06
5.22851e-06
5.22932e-06
5.2301e-06
5.23085e-06
5.23159e-06
5.2323e-06
5.23299e-06
5.23367e-06
5.23433e-06
5.23497e-06
5.2356e-06
5.23622e-06
5.23682e-06
5.23741e-06
5.23799e-06
5.23855e-06
5.23911e-06
5.23966e-06
5.2402e-06
5.24073e-06
5.24125e-06
5.24177e-06
5.24228e-06
5.24279e-06
5.24329e-06
5.24379e-06
5.2443e-06
5.24485e-06
5.24545e-06
5.24614e-06
5.24698e-06
5.24794e-06
5.24926e-06
5.25038e-06
5.2515e-06
5.21123e-06
5.21057e-06
5.21141e-06
5.21262e-06
5.21247e-06
5.21135e-06
5.21012e-06
5.20942e-06
5.2095e-06
5.21045e-06
5.21179e-06
5.21317e-06
5.21448e-06
5.21571e-06
5.21687e-06
5.21798e-06
5.21905e-06
5.2201e-06
5.22112e-06
5.22212e-06
5.2231e-06
5.22406e-06
5.22498e-06
5.22588e-06
5.22676e-06
5.22761e-06
5.22843e-06
5.22922e-06
5.22999e-06
5.23074e-06
5.23147e-06
5.23217e-06
5.23286e-06
5.23353e-06
5.23418e-06
5.23481e-06
5.23543e-06
5.23604e-06
5.23664e-06
5.23722e-06
5.23779e-06
5.23835e-06
5.2389e-06
5.23944e-06
5.23997e-06
5.2405e-06
5.24101e-06
5.24152e-06
5.24202e-06
5.24252e-06
5.24301e-06
5.2435e-06
5.24399e-06
5.24449e-06
5.24502e-06
5.24562e-06
5.24632e-06
5.24719e-06
5.24819e-06
5.24958e-06
5.25078e-06
5.25186e-06
5.21112e-06
5.2104e-06
5.21133e-06
5.21249e-06
5.21229e-06
5.21119e-06
5.21e-06
5.20938e-06
5.20953e-06
5.21051e-06
5.21185e-06
5.21323e-06
5.21452e-06
5.21573e-06
5.21687e-06
5.21797e-06
5.21904e-06
5.22008e-06
5.2211e-06
5.22209e-06
5.22306e-06
5.22401e-06
5.22493e-06
5.22582e-06
5.22669e-06
5.22753e-06
5.22835e-06
5.22913e-06
5.2299e-06
5.23064e-06
5.23135e-06
5.23205e-06
5.23273e-06
5.23339e-06
5.23403e-06
5.23466e-06
5.23527e-06
5.23587e-06
5.23646e-06
5.23703e-06
5.2376e-06
5.23815e-06
5.2387e-06
5.23923e-06
5.23975e-06
5.24027e-06
5.24078e-06
5.24128e-06
5.24177e-06
5.24226e-06
5.24274e-06
5.24322e-06
5.24369e-06
5.24417e-06
5.24466e-06
5.24518e-06
5.24578e-06
5.24649e-06
5.24739e-06
5.24844e-06
5.24989e-06
5.25119e-06
5.25222e-06
5.21101e-06
5.21024e-06
5.21124e-06
5.21235e-06
5.21212e-06
5.21102e-06
5.20988e-06
5.20933e-06
5.20956e-06
5.21058e-06
5.21192e-06
5.21328e-06
5.21455e-06
5.21575e-06
5.21688e-06
5.21797e-06
5.21903e-06
5.22006e-06
5.22107e-06
5.22206e-06
5.22303e-06
5.22397e-06
5.22488e-06
5.22577e-06
5.22663e-06
5.22746e-06
5.22827e-06
5.22905e-06
5.2298e-06
5.23053e-06
5.23124e-06
5.23193e-06
5.2326e-06
5.23325e-06
5.23388e-06
5.23451e-06
5.23511e-06
5.2357e-06
5.23629e-06
5.23685e-06
5.23741e-06
5.23796e-06
5.23849e-06
5.23902e-06
5.23954e-06
5.24005e-06
5.24055e-06
5.24104e-06
5.24153e-06
5.24201e-06
5.24248e-06
5.24295e-06
5.24341e-06
5.24387e-06
5.24433e-06
5.24481e-06
5.24533e-06
5.24593e-06
5.24666e-06
5.24759e-06
5.24869e-06
5.25021e-06
5.25162e-06
5.2526e-06
5.21089e-06
5.21009e-06
5.21116e-06
5.21221e-06
5.21195e-06
5.21087e-06
5.20978e-06
5.2093e-06
5.20959e-06
5.21064e-06
5.21198e-06
5.21332e-06
5.21458e-06
5.21576e-06
5.21688e-06
5.21797e-06
5.21902e-06
5.22004e-06
5.22105e-06
5.22203e-06
5.22299e-06
5.22393e-06
5.22483e-06
5.22571e-06
5.22657e-06
5.22739e-06
5.22819e-06
5.22896e-06
5.22971e-06
5.23043e-06
5.23113e-06
5.23181e-06
5.23247e-06
5.23312e-06
5.23374e-06
5.23436e-06
5.23496e-06
5.23554e-06
5.23612e-06
5.23668e-06
5.23723e-06
5.23777e-06
5.2383e-06
5.23882e-06
5.23933e-06
5.23983e-06
5.24033e-06
5.24081e-06
5.24129e-06
5.24176e-06
5.24223e-06
5.24269e-06
5.24314e-06
5.24359e-06
5.24404e-06
5.24448e-06
5.24495e-06
5.24546e-06
5.24607e-06
5.24681e-06
5.24778e-06
5.24895e-06
5.25055e-06
5.25206e-06
5.253e-06
5.21077e-06
5.20996e-06
5.21107e-06
5.21207e-06
5.21179e-06
5.21072e-06
5.20968e-06
5.20926e-06
5.20962e-06
5.2107e-06
5.21204e-06
5.21336e-06
5.21461e-06
5.21578e-06
5.21689e-06
5.21796e-06
5.21901e-06
5.22003e-06
5.22103e-06
5.22201e-06
5.22296e-06
5.22389e-06
5.22479e-06
5.22566e-06
5.22651e-06
5.22733e-06
5.22811e-06
5.22888e-06
5.22961e-06
5.23033e-06
5.23102e-06
5.23169e-06
5.23235e-06
5.23298e-06
5.23361e-06
5.23421e-06
5.2348e-06
5.23538e-06
5.23595e-06
5.2365e-06
5.23705e-06
5.23758e-06
5.2381e-06
5.23862e-06
5.23912e-06
5.23962e-06
5.24011e-06
5.24059e-06
5.24106e-06
5.24152e-06
5.24198e-06
5.24244e-06
5.24288e-06
5.24332e-06
5.24376e-06
5.24419e-06
5.24462e-06
5.24508e-06
5.24558e-06
5.24619e-06
5.24696e-06
5.24797e-06
5.2492e-06
5.25089e-06
5.25252e-06
5.25341e-06
5.21064e-06
5.20984e-06
5.21099e-06
5.21194e-06
5.21163e-06
5.21058e-06
5.20958e-06
5.20923e-06
5.20965e-06
5.21076e-06
5.21209e-06
5.2134e-06
5.21463e-06
5.21579e-06
5.21689e-06
5.21796e-06
5.219e-06
5.22001e-06
5.22101e-06
5.22198e-06
5.22293e-06
5.22385e-06
5.22475e-06
5.22561e-06
5.22645e-06
5.22726e-06
5.22804e-06
5.2288e-06
5.22953e-06
5.23023e-06
5.23092e-06
5.23158e-06
5.23223e-06
5.23286e-06
5.23347e-06
5.23407e-06
5.23466e-06
5.23523e-06
5.23579e-06
5.23634e-06
5.23687e-06
5.2374e-06
5.23792e-06
5.23842e-06
5.23892e-06
5.23941e-06
5.23989e-06
5.24037e-06
5.24083e-06
5.24129e-06
5.24174e-06
5.24219e-06
5.24263e-06
5.24306e-06
5.24349e-06
5.24391e-06
5.24433e-06
5.24475e-06
5.24519e-06
5.24569e-06
5.2463e-06
5.24709e-06
5.24816e-06
5.24946e-06
5.25124e-06
5.253e-06
5.25384e-06
5.21052e-06
5.20974e-06
5.21091e-06
5.2118e-06
5.21148e-06
5.21044e-06
5.20949e-06
5.20921e-06
5.20969e-06
5.21081e-06
5.21214e-06
5.21344e-06
5.21465e-06
5.2158e-06
5.21689e-06
5.21795e-06
5.21899e-06
5.22e-06
5.22099e-06
5.22196e-06
5.2229e-06
5.22382e-06
5.2247e-06
5.22556e-06
5.2264e-06
5.2272e-06
5.22797e-06
5.22872e-06
5.22944e-06
5.23014e-06
5.23081e-06
5.23147e-06
5.23211e-06
5.23273e-06
5.23334e-06
5.23393e-06
5.23451e-06
5.23508e-06
5.23563e-06
5.23617e-06
5.2367e-06
5.23722e-06
5.23773e-06
5.23823e-06
5.23873e-06
5.23921e-06
5.23968e-06
5.24015e-06
5.24061e-06
5.24106e-06
5.24151e-06
5.24195e-06
5.24238e-06
5.24281e-06
5.24323e-06
5.24365e-06
5.24405e-06
5.24445e-06
5.24486e-06
5.24529e-06
5.24578e-06
5.24641e-06
5.24723e-06
5.24835e-06
5.24973e-06
5.2516e-06
5.2535e-06
5.2543e-06
5.21039e-06
5.20964e-06
5.21082e-06
5.21167e-06
5.21133e-06
5.21031e-06
5.2094e-06
5.20919e-06
5.20972e-06
5.21087e-06
5.21219e-06
5.21347e-06
5.21468e-06
5.21581e-06
5.2169e-06
5.21795e-06
5.21898e-06
5.21998e-06
5.22097e-06
5.22193e-06
5.22287e-06
5.22378e-06
5.22467e-06
5.22552e-06
5.22634e-06
5.22714e-06
5.2279e-06
5.22864e-06
5.22935e-06
5.23005e-06
5.23071e-06
5.23136e-06
5.232e-06
5.23261e-06
5.23321e-06
5.2338e-06
5.23437e-06
5.23493e-06
5.23547e-06
5.23601e-06
5.23653e-06
5.23705e-06
5.23755e-06
5.23805e-06
5.23853e-06
5.23901e-06
5.23948e-06
5.23994e-06
5.2404e-06
5.24084e-06
5.24128e-06
5.24171e-06
5.24214e-06
5.24256e-06
5.24298e-06
5.24339e-06
5.24379e-06
5.24418e-06
5.24457e-06
5.24496e-06
5.24538e-06
5.24587e-06
5.2465e-06
5.24735e-06
5.24853e-06
5.25e-06
5.25199e-06
5.25402e-06
5.25478e-06
5.21026e-06
5.20955e-06
5.21074e-06
5.21154e-06
5.21119e-06
5.21018e-06
5.20932e-06
5.20917e-06
5.20975e-06
5.21092e-06
5.21223e-06
5.2135e-06
5.21469e-06
5.21582e-06
5.2169e-06
5.21794e-06
5.21897e-06
5.21997e-06
5.22095e-06
5.22191e-06
5.22285e-06
5.22375e-06
5.22463e-06
5.22547e-06
5.22629e-06
5.22708e-06
5.22784e-06
5.22857e-06
5.22927e-06
5.22996e-06
5.23062e-06
5.23126e-06
5.23188e-06
5.23249e-06
5.23309e-06
5.23366e-06
5.23423e-06
5.23478e-06
5.23532e-06
5.23585e-06
5.23637e-06
5.23688e-06
5.23738e-06
5.23786e-06
5.23834e-06
5.23882e-06
5.23928e-06
5.23974e-06
5.24018e-06
5.24063e-06
5.24106e-06