/*--------------------------------*- C++ -*----------------------------------*\
  =========                 |
  \\      /  F ield         | OpenFOAM: The Open Source CFD Toolbox
   \\    /   O peration     | Website:  https://openfoam.org
    \\  /    A nd           | Version:  7
     \\/     M anipulation  |
\*---------------------------------------------------------------------------*/
FoamFile
{
    version     2.0;
    format      ascii;
    class       volScalarField;
    location    "1000";
    object      p;
}
// * * * * * * * * * * * * * * * * * * * * * * * * * * * * * * * * * * * * * //

dimensions      [0 2 -2 0 0 0 0];

internalField   nonuniform List<scalar> 
23117
(
1.96942
5.58149
0.485075
8.51472
1.83939
0.555923
10.7416
3.68406
1.87071
0.654235
12.6036
5.24784
3.4919
2.05947
0.57112
14.2071
6.63993
4.93434
3.7284
1.75518
0.574914
15.6321
7.84189
6.29514
5.18567
3.33904
1.64734
0.597764
16.92
8.90126
7.53464
6.55735
4.73444
3.18753
1.59169
0.605105
18.0995
9.84137
8.67658
7.81362
6.0706
4.54122
3.11697
1.52653
0.603368
19.188
10.6842
9.72967
8.9779
7.30537
5.85984
4.44086
3.03234
1.48819
0.58974
20.1997
11.4455
10.7072
10.0563
8.4608
7.09038
5.74383
4.32912
2.96858
1.46845
0.567947
21.1441
12.1371
11.6192
11.0593
9.54026
8.254
6.96557
5.61761
4.24248
2.91861
1.45347
0.547172
22.0286
12.7684
12.4742
11.9946
10.5525
9.35074
8.12907
6.83081
5.51779
4.17351
2.87183
1.43725
0.53339
22.8596
13.3467
13.2793
12.8695
11.5037
10.3875
9.23236
7.99354
6.72415
5.43558
4.11066
2.82682
1.41605
0.527595
23.641
13.8778
14.0401
13.6898
12.4001
11.3688
10.2814
9.10239
7.88696
6.63526
5.35983
4.05105
2.78215
1.38898
0.527321
24.3784
14.3668
14.7612
14.4607
13.2467
12.2994
11.2795
10.1627
9.00172
7.7974
6.55318
5.28783
3.99167
2.73621
1.35751
0.528928
25.0744
14.817
15.4466
15.1864
14.0481
13.1832
12.2306
11.1771
10.0733
8.91693
7.71432
6.47494
5.21637
3.92983
2.68801
1.32344
0.52951
25.7324
15.2321
16.0993
15.8703
14.8078
14.0239
13.138
12.1487
11.1034
9.9982
8.83801
7.63466
6.39678
5.14238
3.86398
2.6367
1.28781
0.527647
26.3549
15.6149
16.722
16.5156
15.5294
14.8245
14.0045
13.08
12.0947
11.0424
9.92811
8.76185
7.55442
6.31533
5.06386
3.79317
2.58151
1.25085
0.523128
26.9443
15.9679
17.317
17.1247
16.2154
15.5876
14.8328
13.9735
13.0491
12.0516
10.9854
9.85992
8.68424
7.47012
6.22836
4.97936
3.71668
2.5218
1.21221
0.51634
27.5029
16.2934
17.8861
17.6998
16.8683
16.3155
15.6251
14.8312
13.9686
13.0273
12.0114
10.9293
9.7893
8.60169
7.37945
6.13427
4.88779
3.63392
2.45707
1.17133
0.507762
28.0325
16.5931
18.431
18.2429
17.4902
17.0101
16.3834
15.6551
14.8546
13.9708
13.0073
11.9711
10.8697
9.71285
8.51188
7.2807
6.03186
4.78831
3.54434
2.38691
1.12772
0.49771
28.535
16.8689
18.9532
18.7557
18.0828
17.673
17.1093
16.4465
15.7087
14.8835
13.974
12.9861
11.9263
10.8034
9.62826
8.41308
7.17261
5.92027
4.68027
3.44747
2.31102
1.08102
0.486319
29.0121
17.1224
19.454
19.2397
18.6479
18.3057
17.8042
17.2068
16.532
15.7663
14.9123
13.9748
12.9593
11.8738
10.7281
9.53384
8.30403
7.05427
5.7988
4.56316
3.34291
2.22917
1.03101
0.4736
29.4653
17.355
19.9345
19.6963
19.1868
18.9095
18.4695
17.9372
17.3255
16.6201
15.8231
14.9379
13.9692
12.924
11.8115
10.6421
9.42833
8.18383
6.925
5.66695
4.43657
3.23033
2.14116
0.977558
0.459512
29.8962
17.5679
20.396
20.1267
19.7009
19.4856
19.1064
18.6386
18.0899
17.4456
16.7067
15.8756
14.956
13.9541
12.878
11.7376
10.5442
9.31088
8.05186
6.78433
5.52435
4.30023
3.10949
2.04686
0.920598
0.444016
30.3061
17.7625
20.8392
20.5322
20.1913
20.0351
19.7158
19.312
18.8262
18.2433
17.5636
16.7884
15.92
14.9639
13.9275
12.8197
11.6511
10.4337
9.18094
7.90772
6.63198
5.37076
4.15391
2.98022
1.94617
0.860089
0.427096
30.6962
17.9399
21.2652
20.9138
20.6593
20.5588
20.2987
19.9582
19.5349
19.0137
18.3942
17.6761
16.8611
15.9533
14.9594
13.8877
12.7479
11.5512
10.31
9.03822
7.75123
6.46778
5.20602
3.99748
2.84243
1.83904
0.796017
0.408761
31.0679
18.1012
21.6747
21.2726
21.1058
21.0577
20.856
20.5778
20.2166
19.7574
19.1987
18.539
17.779
16.922
15.9734
14.9408
13.8335
12.6618
11.4374
10.1729
8.88266
7.58237
6.29172
5.03009
3.83089
2.69604
1.72545
0.728392
0.38905
31.4222
18.2473
22.0685
21.6096
21.5317
21.5326
21.3885
21.1715
20.8719
20.4746
19.9773
19.3772
18.6739
17.8696
16.969
15.9786
14.9071
13.7643
12.5613
11.3098
10.0226
8.71438
7.40126
6.10385
4.84297
3.65409
2.54104
1.60544
0.65725
0.368026
31.7603
18.3793
22.4474
21.9258
21.938
21.9843
21.8971
21.74
21.5014
21.1658
20.7302
20.1906
19.5454
18.7959
17.9455
17.0002
15.9677
14.8574
13.6798
12.4461
11.1683
9.85929
8.53366
7.20814
5.90435
4.64475
3.46714
2.37747
1.47907
0.582655
0.345783
32.0831
18.498
22.812
22.222
22.3256
22.4136
22.3824
22.2839
22.1053
21.8313
21.4576
20.9793
20.3935
19.7004
18.9026
18.0049
17.0144
15.9399
14.7915
13.58
12.3167
11.0136
9.68342
8.34093
7.00332
5.69341
4.43552
3.27008
2.20539
1.34645
0.504705
0.322447
32.3917
18.6043
23.1629
22.4991
22.6952
22.8212
22.8452
22.8037
22.6843
22.4713
22.1596
21.7431
21.2179
20.583
19.8397
18.992
18.0463
17.0108
15.8949
14.7093
13.4651
12.1735
10.8461
9.49557
8.13669
6.7872
5.4713
4.21545
3.06302
2.0249
1.20775
0.423525
0.298187
32.6869
18.699
23.5007
22.7581
23.0477
23.2079
23.2862
23.3
23.2388
23.0861
22.8364
22.4822
22.0185
21.4431
20.7563
19.961
19.0627
18.0689
16.9889
15.8327
14.6113
13.3358
12.0172
10.6666
9.29647
7.92153
6.56022
5.23831
3.98472
2.84609
1.83616
1.06319
0.339262
0.273217
32.9696
18.7829
23.8261
22.9998
23.3838
23.5744
23.7061
23.7734
23.7692
23.6762
23.4881
23.1963
22.7949
22.2804
21.6519
20.9112
20.0628
19.1136
18.0722
16.9486
15.7536
14.4981
13.1929
11.8486
10.476
9.08689
7.69612
6.32287
4.99476
3.74352
2.61947
1.63933
0.913002
0.252094
0.247812
33.2405
18.8567
24.1395
23.225
23.7042
23.9213
24.1056
24.2245
24.2761
24.2418
24.1149
23.8856
23.5471
23.0946
22.5259
21.8419
21.0458
20.1438
19.1439
18.0558
16.8903
15.6581
14.3703
13.0373
11.6689
10.2753
8.8677
7.46114
6.07567
4.74101
3.4921
2.38334
1.43461
0.757495
0.162219
0.222308
33.5004
18.9213
24.4415
23.4344
24.0095
24.2493
24.4854
24.6538
24.76
24.7834
24.7169
24.5501
24.2748
23.8852
23.378
22.7525
22.0111
21.1588
20.2032
19.1535
18.0202
16.8144
15.5472
14.2292
12.8701
11.4791
10.0654
8.63981
7.21734
5.81915
4.47742
3.23071
2.13792
1.22226
0.597019
0.0698565
0.197109
33.75
18.9772
24.7324
23.629
24.3005
24.5592
24.8462
25.062
25.2213
25.3011
25.2944
25.1897
24.9779
24.652
24.2075
23.6423
22.9577
22.1578
21.2492
20.2405
19.1423
17.9656
16.7219
15.4219
14.0758
12.6926
11.2804
9.8475
8.40415
6.96546
5.55386
4.20437
2.95961
1.88345
1.00253
0.431971
-0.0247696
0.172699
33.99
19.0251
25.0129
23.8095
24.5778
24.8516
25.1885
25.4496
25.6607
25.7956
25.8477
25.8046
25.6563
25.3947
25.0139
24.5108
23.8852
23.14
22.2809
21.3162
20.2557
19.1108
17.8929
16.6136
15.2833
13.9114
12.506
11.074
9.62272
8.1617
6.70626
5.28037
3.92223
2.67906
1.62022
0.775727
0.262782
-0.121421
0.149641
34.2208
19.0656
25.2831
23.9767
24.8418
25.1272
25.5132
25.8173
26.0786
26.2672
26.3771
26.3948
26.3098
26.1129
25.7968
25.3572
24.7925
24.1045
23.2977
22.3796
21.3597
20.2491
19.0595
17.803
16.4908
15.1327
13.7374
12.3117
10.8612
9.3922
7.91344
6.44053
4.99923
3.63141
2.38937
1.34851
0.542162
0.0899338
-0.219853
0.128578
34.4432
19.0995
25.5436
24.1312
25.0934
25.3867
25.8208
26.1656
26.4756
26.7163
26.8828
26.9606
26.9386
26.8064
26.5558
26.1809
25.679
25.0504
24.2986
23.4299
22.4534
21.3797
20.221
18.9894
17.6971
16.3547
14.9716
13.5552
12.111
10.6434
9.15711
7.66033
6.16901
4.71098
3.3323
2.09086
1.06865
0.302175
-0.0860503
-0.319824
0.110235
34.6578
19.1271
25.7947
24.2738
25.3329
25.6307
26.112
26.4952
26.8524
27.1436
27.3654
27.5022
27.5426
27.4751
27.2904
26.9814
26.544
25.977
25.2826
24.4662
23.5359
22.5021
21.3766
20.1723
18.9015
17.5763
16.2068
14.8013
13.3662
11.9054
10.4217
8.91859
7.40332
5.89245
4.41619
3.02531
1.78381
0.780975
0.0561305
-0.26462
-0.4211
0.0954098
34.8648
19.1491
26.0368
24.4053
25.5608
25.8599
26.3875
26.8067
27.2095
27.5494
27.8251
28.0199
28.1218
28.1188
28.0004
27.7582
27.3867
26.8833
26.2488
25.4875
24.6064
23.6153
22.5259
21.351
20.1039
18.797
17.442
16.0484
14.6234
13.1719
11.6963
10.1976
8.67775
7.14336
5.6116
4.11541
2.71081
1.46857
0.485859
-0.195599
-0.445197
-0.523446
0.0849695
35.0647
19.1661
26.2701
24.5262
25.7778
26.075
26.6479
27.1008
27.5475
27.9345
28.2624
28.5139
28.6766
28.7376
28.6854
28.5107
28.2064
27.7685
27.1963
26.4928
25.6639
24.7186
23.6681
22.5253
21.3038
20.0169
18.6773
17.2958
15.8811
14.4393
12.9737
11.4849
9.97213
8.4357
6.88137
5.32717
3.80915
2.38923
1.1455
0.183689
-0.452628
-0.627172
-0.626645
0.079838
35.2582
19.1785
26.4949
24.6373
25.9842
26.2765
26.8938
27.3781
27.8672
28.2992
28.6779
28.9846
29.2069
29.3313
29.3453
29.2385
29.0024
28.6317
28.1241
27.4811
26.7074
25.811
24.8025
23.6946
22.5011
21.2359
19.9127
18.5437
17.139
15.7064
14.2505
12.773
11.2727
9.74663
8.19351
6.61824
5.03986
3.49795
2.06099
0.814935
-0.125126
-0.714543
-0.809943
-0.730498
0.0809781
35.4455
19.1869
26.7114
24.7392
26.1805
26.4652
27.1258
27.6392
28.1691
28.6443
29.0721
29.4324
29.7132
29.9001
29.98
29.9412
29.7742
29.4721
29.0312
28.4513
27.7358
26.8915
25.9283
24.8583
23.6954
22.4541
21.1487
19.7926
18.3977
16.9732
15.5257
14.0584
12.5712
11.0609
9.52225
7.9522
6.35481
4.75033
3.18231
1.72649
0.477259
-0.440139
-0.980951
-0.992905
-0.834797
0.0893754
35.6271
19.1916
26.92
24.8324
26.3671
26.6417
27.3446
27.8849
28.4538
28.9704
29.4455
29.8579
30.1957
30.4441
30.5892
30.6186
30.5213
30.289
29.9167
29.4023
28.748
27.9591
27.0444
26.0157
24.8864
23.6713
22.3854
21.0433
19.6581
18.2407
16.7998
15.3405
13.8644
12.3696
10.8507
9.30008
7.71274
6.0919
4.45924
2.86276
1.38616
0.13288
-0.76092
-1.25145
-1.17544
-0.93935
0.10602
35.8034
19.1931
27.1208
24.9177
26.5443
26.8065
27.5507
28.1157
28.7221
29.278
29.7987
30.2615
30.6549
30.9635
31.1731
31.2703
31.243
31.0817
30.7795
30.3331
29.7427
29.0124
28.1499
27.1658
26.0733
24.8873
23.6232
22.2964
20.9213
19.5105
18.0744
16.6202
15.1521
13.6698
12.1694
10.6432
9.08116
7.47605
5.83029
4.16722
2.53977
1.04044
-0.217817
-1.08703
-1.52561
-1.35694
-1.04398
0.131882
35.9746
19.1918
27.3141
24.9956
26.7127
26.9602
27.7447
28.3323
28.9746
29.5679
30.1323
30.6437
31.0911
31.4586
31.7318
31.8963
31.9391
31.8495
31.6189
31.2425
30.7188
30.0504
29.2434
28.3076
27.2555
26.1017
24.8619
23.5523
22.1883
20.784
19.3515
17.9
16.436
14.9618
13.4758
11.9718
10.4396
8.86649
7.243
5.5707
3.87486
2.21386
0.689756
-0.574432
-1.41796
-1.803
-1.53686
-1.1485
0.16788
36.1411
19.1881
27.5001
25.0666
26.8725
27.1035
27.9272
28.5353
29.212
29.8407
30.4471
31.0052
31.5048
31.9298
32.2653
32.4964
32.6093
32.5917
32.434
32.1295
31.6751
31.0716
30.3237
29.4399
28.4319
27.3138
26.1014
24.8113
23.46
22.0627
20.6331
19.1824
17.7191
16.2482
14.7709
13.2835
11.7778
10.2408
8.65697
7.01441
5.31384
3.58274
1.88548
0.334526
-0.936499
-1.75322
-2.0832
-1.71465
-1.25271
0.21488
36.3032
19.1824
27.6788
25.1312
27.0241
27.2369
28.0986
28.7254
29.4348
30.0971
30.7436
31.3465
31.8966
32.3774
32.774
33.0708
33.2532
33.308
33.2241
32.9931
32.6103
32.0747
31.3894
30.5615
29.6014
28.5228
27.3412
26.0735
24.7369
23.3476
21.921
20.4699
19.0047
17.5329
16.0582
14.5804
13.094
11.5884
10.0477
8.45346
6.79102
5.06035
3.2914
1.55509
-0.02477
-1.30356
-2.09234
-2.36578
-1.88982
-1.35645
0.273656
36.4611
19.1751
27.8504
25.19
27.1677
27.3609
28.2596
28.9031
29.6438
30.3377
31.0224
31.6682
32.267
32.8019
33.2581
33.6195
33.8708
33.998
33.9884
33.8324
33.5233
33.0584
32.4391
31.6708
30.7628
29.7276
28.5806
27.3386
26.0192
24.6398
23.2168
21.7647
20.2959
18.8198
17.3427
15.8672
14.3915
12.9083
11.4045
9.86126
8.2567
6.57354
4.81081
3.00132
1.22318
-0.387668
-1.67516
-2.43481
-2.65029
-2.06192
-1.4595
0.344862
36.6152
19.1664
28.0152
25.2435
27.3037
27.4761
28.4106
29.0691
29.8396
30.5632
31.2844
31.9711
32.6166
33.2039
33.7179
34.1427
34.4621
34.6612
34.7264
34.6464
34.4129
34.0214
33.4713
32.7664
31.9145
30.9271
29.8187
28.606
27.307
25.9397
24.5217
23.069
21.5955
20.1127
18.629
17.1497
15.6761
14.205
12.7271
11.2268
9.68209
8.06742
6.36257
4.56577
2.71302
0.890191
-0.753727
-2.05082
-2.78009
-2.93633
-2.23057
-1.56165
0.429044
36.7658
19.1567
28.1732
25.2921
27.4325
27.5831
28.5521
29.2239
30.0228
30.7743
31.5301
32.2558
32.9461
33.5838
34.1541
34.6406
35.0271
35.2976
35.4376
35.4343
35.2781
34.9623
34.4846
33.8468
33.0551
32.1198
31.0543
29.875
28.5999
27.2476
25.8366
24.3842
22.9058
21.4147
19.9215
18.4335
16.9549
15.4859
14.0217
12.5512
11.0562
9.51092
7.88622
6.15868
4.32575
2.42696
0.556559
-1.12247
-2.43
-3.12773
-3.22344
-2.39541
-1.66268
0.526605
36.9131
19.1462
28.3246
25.3362
27.5541
27.6822
28.6845
29.3682
30.1939
30.9716
31.7603
32.5231
33.2562
33.9423
34.5669
35.1136
35.5658
35.907
36.1215
36.1956
36.1177
35.8798
35.4773
34.9102
34.1829
33.304
32.2861
31.1446
29.8974
28.5634
27.1619
25.7114
24.2287
22.7288
21.2239
19.7237
18.2344
16.7593
15.2974
13.8425
12.3814
10.8931
9.34829
7.71362
5.96237
4.0912
2.14356
0.222727
-1.49337
-2.81222
-3.47718
-3.51117
-2.55619
-1.76234
0.63781
37.0572
19.1351
28.4694
25.3763
27.669
27.774
28.8084
29.5024
30.3537
31.1558
31.9756
32.7735
33.5475
34.28
34.9571
35.5622
36.0786
36.4893
36.778
36.9296
36.9311
36.7727
36.448
35.955
35.2961
34.4782
33.5124
32.4134
31.1985
29.8867
28.4979
27.0515
25.5657
24.0571
22.5395
21.0245
19.5205
18.0329
16.5639
15.1114
13.6678
12.2181
10.7381
9.1947
7.55011
5.77409
3.86252
1.86321
-0.110842
-1.86601
-3.19694
-3.82793
-3.79908
-2.7127
-1.86039
0.762738
37.1984
19.1238
28.6078
25.4128
27.7773
27.8589
28.9242
29.6272
30.5026
31.3275
32.1767
33.0078
33.8207
34.5976
35.3251
35.9868
36.5658
37.0448
37.4068
37.6357
37.7173
37.6399
37.3954
36.9796
36.393
35.6405
34.7317
33.68
32.502
31.2167
29.8443
28.4048
26.9179
25.4013
23.8709
22.3395
20.8178
19.3131
17.8298
16.3693
14.9284
13.4983
12.0617
10.5916
9.05057
7.39609
5.5942
3.64008
1.58634
-0.443772
-2.23988
-3.58361
-4.17949
-4.08675
-2.86478
-1.95656
0.90135
37.3371
19.1125
28.7398
25.446
27.8793
27.9373
29.0322
29.743
30.6413
31.4873
32.3643
33.2267
34.0765
34.8958
35.6717
36.3879
37.0277
37.5735
38.0078
38.3137
38.4756
38.4804
38.318
37.9824
37.4717
36.789
35.942
34.9426
33.8067
32.5526
31.2006
29.7715
28.2859
26.7629
25.22
23.6717
22.1303
20.6051
19.1025
17.6261
16.1763
14.7491
13.3343
11.9128
10.454
8.91623
7.25187
5.42301
3.42423
1.31324
-0.775627
-2.61444
-3.97166
-4.53135
-4.37375
-3.01234
-2.05056
1.05345
37.4732
19.1012
28.8655
25.4762
27.9752
28.0098
29.133
29.8503
30.7702
31.6359
32.5389
33.4309
34.3157
35.1752
35.9975
36.7662
37.4648
38.0758
38.5812
38.9632
39.2054
39.2932
39.2147
38.9617
38.5304
37.9217
37.1412
36.1994
35.1107
33.8929
32.566
31.1512
29.6701
28.1429
26.5884
25.0233
23.4612
21.9132
20.3875
18.8897
17.4224
15.9853
14.5738
13.1762
11.7714
10.3255
8.79192
7.1177
5.26081
3.21519
1.04426
-1.10598
-2.98923
-4.36056
-4.88305
-4.65962
-3.15535
-2.14211
1.21867
37.6071
19.0902
28.9851
25.504
28.0652
28.0767
29.2267
29.9497
30.8899
31.7738
32.7014
33.6211
34.539
35.4367
36.3032
37.1222
37.8777
38.552
39.1269
39.5842
39.9064
40.0775
40.0841
39.9161
39.5673
39.0366
38.3274
37.4483
36.4123
35.2361
33.9393
32.5434
31.0703
29.5417
27.9776
26.3962
24.8131
23.2409
21.6896
20.1663
18.6756
17.2195
15.797
14.4028
13.0243
11.638
10.2064
8.67782
6.99377
5.10776
3.01322
0.779721
-1.43443
-3.36374
-4.74976
-5.23406
-4.94394
-3.29381
-2.23093
1.39652
37.7388
19.0797
29.0986
25.5294
28.1496
28.1383
29.314
30.0416
31.001
31.9016
32.8522
33.798
34.747
35.681
36.5895
37.4567
38.267
39.0026
39.6454
40.1767
40.5782
40.8327
40.9254
40.8441
40.5808
40.1318
39.4984
38.6872
37.7093
36.5804
35.3192
33.947
32.4864
30.9596
29.3882
27.792
26.1881
24.591
23.0123
21.4607
19.9423
18.461
17.0179
15.6117
14.2365
12.8787
11.5125
10.0966
8.57407
6.8802
4.96401
2.81853
0.519889
-1.7606
-3.73749
-5.13863
-5.58392
-5.22633
-3.4278
-2.31672
1.58639
37.8687
19.0699
29.206
25.5528
28.2285
28.1951
29.3949
30.1264
31.1038
32.02
32.9921
33.9621
34.9405
35.9088
36.8571
37.7704
38.6332
39.4281
40.1369
40.7407
41.2205
41.5583
41.7375
41.7446
41.5691
41.2053
40.6521
39.9138
38.9997
37.9237
36.7038
35.3608
33.9173
32.3965
30.8209
29.2117
27.5879
25.9658
24.3586
22.7767
21.2277
19.7167
18.2465
16.8181
15.4298
14.0751
12.7395
11.395
9.99631
8.48067
6.77705
4.82967
2.63126
0.265011
-2.08411
-4.10995
-5.52665
-5.9322
-5.50634
-3.5574
-2.39922
1.78754
37.9968
19.0607
29.3075
25.5745
28.3022
28.2473
29.4701
30.2046
31.1989
32.1293
33.1216
34.1143
35.1203
36.1207
37.107
38.064
38.9771
39.8291
40.6019
41.2765
41.8334
42.2537
42.5198
42.6162
42.5306
42.2551
41.7862
41.1257
40.2808
39.2639
38.0913
36.7833
35.3622
33.8518
32.2756
30.6562
29.0141
27.3674
25.7312
24.1176
22.5356
20.9917
19.4901
18.0328
16.6206
15.2514
13.9187
12.6068
11.2856
9.90546
8.39764
6.68431
4.70478
2.45152
0.0153072
-2.40455
-4.48064
-5.91326
-6.2784
-5.7836
-3.68274
-2.47815
1.9992
38.1231
19.0523
29.4032
25.5947
28.3708
28.2953
29.5396
30.2767
31.2867
32.2301
33.2412
34.2551
35.2869
36.3177
37.3397
38.3383
39.2994
40.2063
41.0409
41.7844
42.4169
42.9188
43.2715
43.4579
43.464
43.2795
42.8986
42.3206
41.5505
40.5984
39.4794
38.2124
36.8196
35.3248
33.7522
32.1258
30.4675
28.7973
27.1322
25.4859
23.8693
22.2901
20.7537
19.2633
17.8205
16.4256
15.0768
13.7672
12.4806
11.1841
9.82399
8.32489
6.60195
4.58931
2.27938
-0.228969
-2.72157
-4.84909
-6.29787
-6.6221
-6.05772
-3.804
-2.55327
2.2204
38.2482
19.045
29.493
25.6137
28.4345
28.3395
29.6039
30.3429
31.3677
32.323
33.3516
34.3851
35.4411
36.5003
37.556
38.5941
39.6009
40.5602
41.4545
42.2647
42.9711
43.5535
43.9921
44.269
44.368
44.2767
43.9872
43.4962
42.8061
41.9248
40.8656
39.6462
38.2877
36.8141
35.2501
33.6205
31.949
30.2571
28.5636
26.8842
25.2316
23.6152
22.0415
20.5146
19.037
17.61
16.2335
14.9061
13.6209
12.3607
11.0906
9.75175
8.2623
6.52984
4.48322
2.11493
-0.467658
-3.03484
-5.21479
-6.67995
-6.96287
-6.32836
-3.92135
-2.62437
2.45016
38.3725
19.0385
29.5771
25.6317
28.4935
28.38
29.6633
30.4036
31.4422
32.4084
33.4533
34.505
35.5836
36.6694
37.7568
38.832
39.8823
40.8917
41.8432
42.7181
43.4964
44.1577
44.6815
45.0485
45.2412
45.2452
45.05
44.65
44.045
43.2404
42.2474
41.082
39.7645
38.3183
36.7683
35.1402
33.4589
31.7476
30.0269
28.3147
26.6253
24.9699
23.3566
21.7907
20.2753
18.812
17.4016
16.0445
14.7393
13.4795
12.2471
11.0047
9.68859
8.20969
6.46784
4.38643
1.95816
-0.700598
-3.34398
-5.5773
-7.05896
-7.30029
-6.5952
-4.03498
-2.69122
2.68747
38.4952
19.0329
29.6556
25.6488
28.548
28.4172
29.718
30.4593
31.5107
32.4868
33.5467
34.6153
35.7149
36.8256
37.9427
39.053
40.1444
41.2016
42.2079
43.145
43.9932
44.7315
45.3393
45.7961
46.0829
46.1835
46.0852
45.7799
45.2646
44.5425
43.622
42.5174
41.2477
39.8353
38.3053
36.6839
34.997
33.2694
31.5236
29.7792
28.0527
26.3571
24.7023
23.0948
21.5388
20.0364
18.5885
17.1958
15.8588
14.5766
13.3431
12.1397
10.9264
9.63428
8.16684
6.41576
4.29881
1.80906
-0.927607
-3.64868
-5.93613
-7.43437
-7.63402
-6.85789
-4.14509
-2.75368
2.9313
38.6145
19.0284
29.7287
25.6653
28.5981
28.4513
29.7683
30.5102
31.5735
32.5586
33.6325
34.7166
35.8357
36.9695
38.1145
39.2578
40.388
41.4905
42.5492
43.5462
44.4618
45.2754
45.9656
46.5112
46.8921
47.0903
47.091
46.8836
46.4625
45.8281
44.9865
43.9496
42.7346
41.3631
39.8596
38.2507
36.563
34.8229
33.0544
31.2792
29.5159
27.7794
26.0813
24.43
22.8309
21.2867
19.7987
18.3673
16.9929
15.6764
14.4178
13.2115
12.0383
10.8553
9.58857
8.13349
6.37335
4.22018
1.6676
-1.14858
-3.94861
-6.29085
-7.80573
-7.96363
-7.11611
-4.25187
-2.8116
3.18056
38.7318
19.0262
29.7962
25.6812
28.6441
28.4826
29.8144
30.5567
31.631
32.6242
33.711
34.8094
35.9466
37.102
38.2729
39.4472
40.614
41.7595
42.868
43.9223
44.903
45.7895
46.5603
47.1936
47.6681
47.9644
48.0657
47.959
47.6362
47.0947
46.3379
45.3755
44.2225
42.899
41.429
39.8389
38.1561
36.4078
34.62
32.8162
31.0168
29.2391
27.4966
25.7995
24.1545
22.5659
21.0352
19.5628
18.1486
16.793
15.4975
14.2631
13.0846
11.9426
10.7914
9.55117
8.10936
6.34035
4.15036
1.53371
-1.36338
-4.24348
-6.64108
-8.1725
-8.28871
-7.36961
-4.35554
-2.86489
3.43417
38.8561
19.0256
29.8575
25.6968
28.6861
28.5112
29.8567
30.599
31.6835
32.684
33.7827
34.8942
36.0482
37.2236
38.4187
39.622
40.8232
42.0092
43.1651
44.2741
45.3174
46.2745
47.1238
47.8432
48.4106
48.8051
49.0081
49.0044
48.7833
48.3394
47.6734
46.792
45.7082
44.4403
43.0112
41.4468
39.775
38.0238
36.2207
34.3909
32.5571
30.7385
28.9508
27.2061
25.513
23.8769
22.3008
20.7851
19.3293
17.9328
16.5963
15.3221
14.1122
12.9623
11.8524
10.7341
9.52178
8.0941
6.31647
4.08912
1.40732
-1.57192
-4.53304
-6.98635
-8.53417
-8.60894
-7.61815
-4.4563
-2.91349
3.69105
38.9899
19.0225
29.9132
25.7124
28.7242
28.5374
29.8952
30.6375
31.7314
32.7384
33.8481
34.9716
36.1411
37.3349
38.5526
39.7828
41.0163
42.2405
43.4413
44.6024
45.7056
46.7308
47.6565
48.4601
49.1191
49.6114
49.9167
50.0179
49.9015
49.5596
48.9897
48.1959
47.1886
45.984
44.6034
43.0722
41.418
39.6698
37.8561
36.0039
34.1378
32.2794
30.4463
28.6528
26.9094
25.2232
23.5984
22.0364
20.5369
19.0985
17.7203
16.4031
15.1503
13.9651
12.8443
11.7675
10.6834
9.50006
8.08738
6.30137
4.03622
1.28832
-1.77415
-4.81697
-7.32622
-8.89034
-8.92401
-7.86149
-4.55434
-2.95738
3.95016
39.1035
19.0153
29.9667
25.7281
28.7585
28.5614
29.9304
30.6724
31.7748
32.7878
33.9075
35.042
36.2257
37.4366
38.6752
39.9306
41.1942
42.4543
43.6975
44.9081
46.0685
47.1591
48.1587
49.0445
49.7935
50.3828
50.7907
50.9979
50.9888
50.7526
50.2841
49.5841
48.6604
47.5267
46.2027
44.7124
43.0832
41.3445
39.5257
37.6554
35.7601
33.8634
31.9853
30.1423
28.3469
26.6081
24.9315
23.3199
21.7737
20.2914
18.8709
17.5112
16.2134
14.982
13.8217
12.7305
11.6877
10.6388
9.48565
8.08882
6.2947
3.99139
1.17656
-1.96997
-5.09498
-7.66035
-9.2406
-9.2336
-8.09943
-4.64983
-2.99657
4.21047
39.1604
19.0189
30.019
25.7429
28.7891
28.5834
29.9623
30.7039
31.8143
32.8325
33.9613
35.1059
36.3027
37.5292
38.7872
40.0659
41.3577
42.6514
43.9345
45.192
46.4069
47.5602
48.631
49.5967
50.4339
51.1189
51.629
51.943
52.0433
51.9162
51.5535
50.9532
50.12
49.065
47.8056
46.3645
44.7682
43.0461
41.2284
39.345
37.4242
35.4917
33.5698
31.6771
29.8285
28.0348
26.3035
24.6388
23.0423
21.5132
20.049
18.647
17.3058
16.0274
14.8172
13.6819
12.6207
11.6126
10.6001
9.47819
8.09803
6.29609
3.95434
1.07195
-2.15929
-5.36688
-7.9884
-9.58455
-9.53739
-8.3318
-4.74294
-3.0311
4.47101
39.2386
19.0527
30.0585
25.7564
28.8172
28.6036
29.9912
30.7324
31.8499
32.8728
34.01
35.1637
36.3724
37.6134
38.8891
40.1895
41.5076
42.8327
44.1533
45.455
46.7217
47.9349
49.0742
50.1172
51.0403
51.8196
52.431
52.8522
53.0632
53.0479
52.7953
52.3002
51.5641
50.5954
49.4088
48.0253
46.4702
44.7725
42.9627
41.072
39.1303
37.1652
35.2012
33.2594
31.3569
29.5066
27.718
25.9969
24.3463
22.7665
21.2555
19.8101
18.4269
17.1044
15.845
14.6559
13.5456
12.5147
11.5421
10.5669
9.4773
8.1146
6.30516
3.92478
0.974335
-2.34212
-5.63246
-8.31002
-9.92179
-9.83511
-8.55842
-4.83382
-3.06107
4.73083
39.4232
19.0767
30.0706
25.7726
28.8432
28.6217
30.0171
30.7581
31.882
32.9091
34.0538
35.2158
36.4354
37.6896
38.9817
40.3021
41.6445
42.999
44.3547
45.6981
47.0138
48.284
49.4889
50.6064
51.6132
52.4847
53.1963
53.7243
54.047
54.1457
54.0068
53.6218
52.9891
52.1141
51.0086
49.6912
48.186
46.5209
44.7268
42.8354
40.878
38.8843
36.8809
34.8912
32.9346
31.0266
29.1785
27.398
25.6896
24.055
22.4932
21.0014
19.5753
18.211
16.9069
15.6664
14.4981
13.4126
12.4124
11.4758
10.5389
9.48258
8.13811
6.32152
3.9024
0.883543
-2.51843
-5.89149
-8.62487
-10.252
-10.1265
-8.77918
-4.92263
-3.08658
4.98904
39.4861
19.0185
30.087
25.7967
28.8639
28.638
30.0405
30.781
31.9108
32.9416
34.0931
35.2625
36.4921
37.7583
39.0655
40.4043
41.7693
43.1511
44.5396
45.9221
47.2841
48.6084
49.876
51.0652
52.1529
53.1145
53.9247
54.5587
54.9933
55.2077
55.1854
54.9151
54.3918
53.6174
52.601
51.3586
49.9121
48.2885
46.5182
44.6334
42.6666
40.649
38.6096
36.574
34.564
32.5975
30.6882
28.8456
27.0761
25.3826
23.7656
22.2231
20.7512
19.3449
17.9995
16.7137
15.4915
14.3436
13.2829
12.3134
11.4135
10.5158
9.49365
8.16814
6.34475
3.88687
0.799394
-2.68821
-6.14378
-8.93267
-10.5748
-10.4113
-8.99396
-5.00947
-3.10778
5.24481
39.5507
19.0008
30.1515
25.8184
28.8757
28.6536
30.0618
30.8012
31.9365
32.9706
34.1283
35.3042
36.5429
37.8201
39.1411
40.4968
41.8826
43.2897
44.7088
46.128
47.5335
48.9091
50.2363
51.4943
52.66
53.7091
54.6159
55.3549
55.9012
56.2323
56.329
56.1772
55.7686
55.1016
54.1822
53.0234
51.6448
50.0719
48.3342
46.464
44.4947
42.4589
40.3877
38.309
36.247
34.2221
32.2502
30.3434
28.5096
26.7535
25.0768
23.4789
21.9567
20.5054
19.1191
17.7926
16.5246
15.3204
14.1925
13.1562
12.2177
11.355
10.4971
9.51011
8.20425
6.37444
3.87786
0.721719
-2.85143
-6.38916
-9.23313
-10.89
-10.6894
-9.20266
-5.09446
-3.12486
5.49736
39.6155
18.9821
30.1733
25.8119
28.8875
28.6698
30.0805
30.8192
31.9591
32.9962
34.1596
35.3415
36.5882
37.8753
39.209
40.5802
41.9851
43.4157
44.8632
46.3167
47.7631
49.1871
50.5709
51.8944
53.1353
54.2691
55.2702
56.1124
56.7697
57.2179
57.4355
57.4054
57.1163
56.5631
55.7482
54.6815
53.3801
51.8673
50.1715
48.3246
46.3605
44.3132
42.2152
40.0969
37.9851
35.9025
33.8676
31.8947
29.9939
28.1717
26.4313
24.7733
23.1956
21.6946
20.2643
18.8982
17.5905
16.34
15.1531
14.0447
13.0326
12.125
11.2999
10.4827
9.53156
8.24602
6.41017
3.87505
0.650334
-3.00811
-6.62747
-9.526
-11.1972
-10.9604
-9.40523
-5.1777
-3.13799
5.74598
39.6807
18.9639
30.1952
25.8101
28.9087
28.6838
30.0958
30.8357
31.9793
33.0184
34.187
35.3745
36.6286
37.9245
39.2696
40.6551
42.0776
43.5298
45.0037
46.4891
47.9738
49.4432
50.8807
52.2667
53.5794
54.795
55.8878
56.8312
57.5983
58.1634
58.503
58.5973
58.4318
57.9981
57.295
56.3288
55.1138
53.6708
52.0266
50.2123
48.2619
46.2103
44.0917
41.9383
39.7796
37.6407
35.5428
33.5027
31.5327
29.6413
27.8333
26.1106
24.4726
22.9163
21.4371
20.0283
18.6824
17.3932
16.1597
14.9896
13.9
12.9118
12.0352
11.248
10.4721
9.55762
8.29302
6.45154
3.8781
0.585049
-3.15827
-6.85858
-9.81103
-11.4963
-11.2243
-9.6016
-5.25927
-3.14741
5.99002
39.7461
18.9461
30.2168
25.8081
28.9155
28.6862
30.1094
30.8513
31.9975
33.0381
34.2109
35.4033
36.6642
37.9682
39.3236
40.7219
42.1606
43.6327
45.1309
46.646
48.1664
49.6786
51.1667
52.6119
53.9933
55.2875
56.4691
57.5112
58.3865
59.0678
59.5299
59.7506
59.7123
59.4032
58.8185
57.9611
56.8415
55.478
53.8954
52.1236
50.196
48.1483
46.0159
43.833
41.6312
39.4384
37.2784
35.1704
33.1294
31.166
29.2869
27.4955
25.7923
24.1755
22.6415
21.1847
19.7976
18.4718
17.2008
15.9838
14.8298
13.7585
12.7938
11.948
11.1992
10.4651
9.5879
8.34482
6.49812
3.88667
0.525668
-3.30193
-7.08235
-10.088
-11.7869
-11.4808
-9.79174
-5.33924
-3.15335
6.22887
39.8114
18.9285
30.2378
25.8062
28.9221
28.6868
30.119
30.8642
32.0139
33.056
34.2318
35.4281
36.6951
38.0067
39.3714
40.7813
42.2347
43.7251
45.2458
46.7883
48.342
49.8942
51.4298
52.9312
54.378
55.7475
57.0147
58.1529
59.1341
59.9305
60.515
60.8634
60.9551
60.7751
60.315
59.5738
58.5587
57.2846
55.7738
54.0546
52.1597
50.1248
47.9864
45.7803
43.5403
41.2967
39.0762
36.9006
34.7875
32.7497
30.7963
28.9322
27.1593
25.477
23.8826
22.3716
20.9376
19.5724
18.2667
17.0136
15.8123
14.6737
13.6201
12.6784
11.8635
11.1532
10.4614
9.62203
8.401
6.5495
3.90044
0.471999
-3.43912
-7.29869
-10.3568
-12.069
-11.7298
-9.97564
-5.41767
-3.15606
6.46199
39.8757
18.9111
30.2587
25.8044
28.9287
28.6871
30.1216
30.8674
32.0274
33.0725
34.2509
35.4497
36.7217
38.04
39.4134
40.8339
42.3006
43.8076
45.349
46.9169
48.5015
50.091
51.6713
53.2255
54.7344
56.1758
57.5253
58.7565
59.8413
60.7509
61.4572
61.9338
62.1577
62.1107
61.7807
61.1629
60.2608
59.0858
57.6571
56.0011
54.1493
52.1369
50.0011
47.7791
45.5066
43.2165
40.9379
38.6956
36.5098
34.396
32.3653
30.4249
28.5782
26.8257
25.1656
23.5945
22.107
20.6961
19.3529
18.0672
16.8314
15.6453
14.5214
13.4847
12.5656
11.7813
11.1097
10.4606
9.65963
8.46114
6.60528
3.91907
0.423844
-3.5699
-7.5075
-10.6172
-12.3424
-11.9713
-10.1533
-5.4946
-3.1558
6.68891
39.9413
18.8933
30.2794
25.8033
28.9352
28.6876
30.124
30.8678
32.0321
33.0856
34.2681
35.4693
36.7448
38.0684
39.4497
40.8801
42.3588
43.8809
45.4413
47.0326
48.6458
50.27
51.892
53.496
55.0635
56.5734
58.0019
59.3227
60.5081
61.5289
62.3557
62.9605
63.3181
63.4071
63.2119
62.7242
61.9432
60.8767
59.5407
57.9587
56.1607
54.1811
52.0574
49.8277
47.5294
45.1978
42.8646
40.5574
38.2992
36.1082
33.998
31.9779
30.0532
28.226
26.4954
24.8587
23.3115
21.848
20.4605
19.1392
17.8732
16.6543
15.4827
14.3727
13.3523
12.4553
11.7014
11.0685
10.4626
9.70035
8.52484
6.66507
3.94225
0.381007
-3.6943
-7.7087
-10.869
-12.6068
-12.205
-10.3247
-5.57008
-3.15285
6.9092
40.0074
18.8765
30.2996
25.8023
28.9416
28.6882
30.1265
30.8681
32.0327
33.088
34.2814
35.4871
36.7656
38.093
39.4806
40.9199
42.4099
43.9458
45.5233
47.1361
48.7757
50.4322
52.0931
53.7438
55.3666
56.9414
58.4452
59.8523
61.1351
62.2643
63.2099
63.9423
64.4342
64.6615
64.6055
64.2536
63.6014
62.6525
61.4194
59.9225
58.1895
56.2536
54.1521
51.9237
49.6074
47.2404
44.8571
42.4877
40.1582
37.8895
35.6981
33.5954
31.589
29.6825
27.8765
26.1692
24.5567
23.034
21.5949
20.2308
18.9314
17.6848
16.4823
15.3245
14.2276
13.2228
12.3473
11.6237
11.0296
10.4669
9.74383
8.5917
6.72848
3.96965
0.343292
-3.81238
-7.90224
-11.1122
-12.8622
-12.4309
-10.4899
-5.64414
-3.14748
7.12252
40.0734
18.8602
30.3195
25.8013
28.9479
28.6887
30.129
30.8683
32.0333
33.0878
34.284
35.5005
36.7842
38.1151
39.5073
40.9538
42.454
44.0027
45.596
47.2282
48.8922
50.5784
52.2756
53.9699
55.6447
57.2809
58.8563
60.3461
61.723
62.9576
64.0195
64.8783
65.5045
65.8718
65.9581
65.7473
65.2308
64.4083
63.2881
61.8873
60.2308
58.3501
56.2816
54.0645
51.7388
49.3435
46.9154
44.4876
42.0888
39.7428
37.469
35.2814
33.1898
31.1999
29.3138
27.5307
25.8477
24.2601
22.7624
21.3477
20.0073
18.7296
17.5021
16.3154
15.1708
14.0861
13.0961
12.2417
11.5479
10.9926
10.4734
9.78974
8.66135
6.79513
4.00097
0.310509
-3.9242
-8.08807
-11.3466
-13.1086
-12.649
-10.649
-5.7168
-3.13997
7.32853
40.1397
18.844
30.339
25.8006
28.9539