/*--------------------------------*- C++ -*----------------------------------*\
  =========                 |
  \\      /  F ield         | OpenFOAM: The Open Source CFD Toolbox
   \\    /   O peration     | Website:  https://openfoam.org
    \\  /    A nd           | Version:  7
     \\/     M anipulation  |
\*---------------------------------------------------------------------------*/
FoamFile
{
    version     2.0;
    format      ascii;
    class       surfaceScalarField;
    location    "1000";
    object      phi;
}
// * * * * * * * * * * * * * * * * * * * * * * * * * * * * * * * * * * * * * //

dimensions      [0 3 -1 0 0 0 0];

internalField   nonuniform List<scalar> 
45906
(
-0.301533
0.067993
-0.301334
0.0658278
-0.289892
0.067857
-0.301226
0.0637252
-0.289765
0.0657004
-0.278526
0.0677414
-0.301157
0.0616743
-0.289649
0.0636097
-0.278421
0.0655956
-0.267627
0.0676156
-0.30111
0.0596852
-0.289557
0.061582
-0.278323
0.063512
-0.267516
0.0654846
-0.257114
0.0674969
-0.301075
0.0577595
-0.289483
0.0596111
-0.278237
0.0614955
-0.267414
0.0634102
-0.256998
0.065369
-0.246844
0.0673676
-0.301047
0.0559232
-0.289422
0.0576985
-0.27816
0.0595346
-0.26732
0.0614016
-0.256884
0.0632961
-0.246714
0.0652389
-0.236931
0.0672237
-0.301026
0.054149
-0.28937
0.0558716
-0.278092
0.0576304
-0.267231
0.0594462
-0.256773
0.0612908
-0.246584
0.0631664
-0.236787
0.0650953
-0.22736
0.067075
-0.301007
0.0524224
-0.289325
0.054104
-0.27803
0.0558098
-0.267147
0.0575464
-0.256665
0.0593381
-0.246456
0.0611629
-0.236647
0.0630264
-0.227215
0.0649511
-0.218182
0.0669343
-0.300992
0.0507685
-0.289285
0.0523822
-0.277973
0.0540466
-0.267066
0.0557286
-0.256559
0.0574403
-0.246331
0.0592125
-0.236511
0.0610268
-0.227078
0.0628893
-0.218051
0.0648201
-0.209348
0.0668109
-0.300978
0.0491601
-0.289248
0.0507316
-0.277918
0.0523277
-0.266987
0.0539672
-0.256455
0.0556242
-0.246208
0.0573175
-0.23638
0.0590812
-0.226948
0.0608966
-0.217929
0.0627675
-0.209238
0.0647097
-0.200954
0.0667072
-0.300966
0.0476093
-0.289214
0.0491254
-0.277866
0.0506789
-0.266908
0.0522492
-0.256351
0.053864
-0.246088
0.0555044
-0.236254
0.0571918
-0.226826
0.0589589
-0.217816
0.0607834
-0.209136
0.0626653
-0.200863
0.0646185
-0.192907
0.0666193
-0.300955
0.0461153
-0.28918
0.047576
-0.277814
0.0490735
-0.26683
0.0506005
-0.256249
0.0521472
-0.245972
0.0537478
-0.236134
0.0553848
-0.226712
0.0570775
-0.217711
0.0588544
-0.209041
0.0606891
-0.200777
0.0625794
-0.192828
0.0645401
-0.185197
0.0665406
-0.300945
0.0446644
-0.289148
0.0460829
-0.277762
0.0475243
-0.266751
0.048995
-0.256149
0.0504998
-0.245859
0.0520348
-0.236021
0.0536345
-0.226605
0.0552784
-0.217615
0.0569811
-0.208954
0.0587672
-0.200697
0.0606088
-0.192752
0.0625031
-0.185124
0.0644673
-0.17779
0.066466
-0.300935
0.043277
-0.289116
0.0446324
-0.27771
0.0460308
-0.266672
0.0474454
-0.256049
0.0488957
-0.245751
0.0503916
-0.235914
0.0519281
-0.226507
0.0535358
-0.217525
0.0551893
-0.208873
0.0568999
-0.200621
0.0586912
-0.192679
0.0605355
-0.185051
0.0624305
-0.177718
0.0643958
-0.17067
0.0663927
-0.300926
0.0419173
-0.289084
0.0432448
-0.277657
0.0445795
-0.266593
0.0459515
-0.255952
0.0473479
-0.245647
0.048792
-0.235814
0.0502915
-0.226415
0.0518368
-0.217443
0.0534533
-0.208797
0.0551132
-0.200548
0.0568272
-0.192607
0.0586196
-0.18498
0.0604641
-0.177647
0.0623588
-0.170599
0.0643245
-0.163817
0.0663206
-0.300918
0.0406109
-0.289051
0.0418847
-0.277603
0.0431911
-0.266514
0.0445
-0.255857
0.0458561
-0.245549
0.047249
-0.235721
0.0486985
-0.226331
0.0502069
-0.217366
0.05176
-0.208725
0.0533812
-0.200478
0.0550429
-0.192537
0.0567569
-0.184909
0.0585487
-0.177576
0.0603929
-0.170527
0.0622876
-0.163747
0.0642542
-0.157241
0.0662504
-0.300909
0.0393432
-0.289018
0.0405777
-0.277549
0.04183
-0.266434
0.0431115
-0.255764
0.0444072
-0.245455
0.0457623
-0.235634
0.0471619
-0.226252
0.0486201
-0.217294
0.050135
-0.208656
0.0516911
-0.200409
0.0533127
-0.192467
0.0549734
-0.184839
0.0566863
-0.177504
0.0584776
-0.170457
0.0603224
-0.163677
0.062218
-0.157173
0.0641862
-0.150914
0.0661832
-0.300901
0.0381189
-0.288984
0.0393091
-0.277493
0.040522
-0.266355
0.0417506
-0.255674
0.0430216
-0.245366
0.0443185
-0.235553
0.0456812
-0.226179
0.047089
-0.217226
0.0485523
-0.20859
0.0500686
-0.200342
0.0516239
-0.192398
0.0532437
-0.184768
0.054903
-0.177434
0.0566155
-0.170386
0.0584073
-0.163609
0.0602536
-0.157106
0.0621512
-0.15085
0.0641217
-0.144846
0.0661197
-0.300892
0.0369326
-0.288949
0.0380839
-0.277436
0.0392525
-0.266276
0.0404432
-0.255587
0.041664
-0.245283
0.0429381
-0.235477
0.0442432
-0.226111
0.0456132
-0.217162
0.0470245
-0.208525
0.0484878
-0.200276
0.0500022
-0.192329
0.0515551
-0.184698
0.0531734
-0.177363
0.0548323
-0.170317
0.0565455
-0.16354
0.0583391
-0.15704
0.0601877
-0.150787
0.062088
-0.144785
0.0640611
-0.139021
0.0660602
-0.300884
0.0357841
-0.288913
0.0368965
-0.277379
0.0380265
-0.266198
0.0391746
-0.255504
0.0403601
-0.245204
0.0415858
-0.235407
0.0428681
-0.226047
0.0441794
-0.2171
0.0455514
-0.208462
0.0469614
-0.20021
0.048422
-0.192261
0.0499337
-0.184628
0.051485
-0.177292
0.0531029
-0.170247
0.0547627
-0.163473
0.0564778
-0.156975
0.0582738
-0.150724
0.0601253
-0.144726
0.0620285
-0.138965
0.0640046
-0.133421
0.0660049
-0.300875
0.0346744
-0.288875
0.0357468
-0.277321
0.0368385
-0.266122
0.03795
-0.255425
0.0390955
-0.245131
0.0402871
-0.235342
0.0415207
-0.225987
0.0428079
-0.21704
0.0441198
-0.2084
0.0454894
-0.200144
0.0468961
-0.192193
0.0483538
-0.184558
0.0498639
-0.177222
0.0514149
-0.170178
0.0530337
-0.163405
0.0546952
-0.15691
0.0564129
-0.150662
0.0582118
-0.144667
0.0600665
-0.138909
0.0619729
-0.133368
0.063952
-0.128051
0.0659535
-0.300866
0.033598
-0.288837
0.034636
-0.277263
0.0356885
-0.266047
0.0367637
-0.25535
0.0378748
-0.245063
0.0390274
-0.235282
0.0402264
-0.22593
0.0414636
-0.216983
0.04275
-0.208339
0.0440586
-0.200079
0.0454244
-0.192125
0.0468282
-0.184488
0.0482843
-0.177153
0.0497942
-0.170109
0.0513461
-0.163338
0.0529665
-0.156845
0.0546305
-0.1506
0.056351
-0.144608
0.0581532
-0.138854
0.0600113
-0.133317
0.0619211
-0.128002
0.0639034
-0.122901
0.0659061
-0.300856
0.0325562
-0.288798
0.0335585
-0.277204
0.0345775
-0.265974
0.0356157
-0.255279
0.0366928
-0.245
0.0378115
-0.235225
0.0389707
-0.225875
0.0401719
-0.216926
0.0414071
-0.208279
0.0426895
-0.200015
0.0439941
-0.192058
0.045357
-0.18442
0.0467593
-0.177083
0.0482151
-0.17004
0.0497257
-0.163271
0.0512792
-0.156781
0.0529019
-0.150539
0.0545686
-0.14455
0.0562923
-0.138798
0.058098
-0.133265
0.0599597
-0.127954
0.0618729
-0.122856
0.0638586
-0.117946
0.0658626
-0.300845
0.0315462
-0.288757
0.0325157
-0.277146
0.0335003
-0.265904
0.0345071
-0.255212
0.0355491
-0.244941
0.0366339
-0.235172
0.0377583
-0.225823
0.0389184
-0.216871
0.0401166
-0.208219
0.0413473
-0.199951
0.0426256
-0.191991
0.0439273
-0.184351
0.0452887
-0.177015
0.0466907
-0.169972
0.0481471
-0.163205
0.0496591
-0.156716
0.0512146
-0.150476
0.0528398
-0.14449
0.0545095
-0.138743
0.0562366
-0.133213
0.058046
-0.127906
0.0599115
-0.122811
0.0618284
-0.117905
0.0638175
-0.113196
0.0658229
-0.300834
0.0305705
-0.288715
0.0315047
-0.277088
0.0324579
-0.265836
0.0334325
-0.25515
0.0344447
-0.244886
0.0354944
-0.235122
0.0365839
-0.225773
0.0377079
-0.216816
0.038864
-0.20816
0.0400574
-0.199888
0.0412839
-0.191925
0.0425594
-0.184284
0.0438597
-0.176947
0.0452207
-0.169905
0.0466232
-0.163138
0.0480808
-0.156651
0.0495945
-0.150414
0.0511523
-0.144431
0.0527802
-0.138686
0.0544531
-0.13316
0.0561838
-0.127857
0.0579972
-0.122767
0.0598668
-0.117864
0.0617875
-0.113159
0.0637801
-0.108638
0.0657868
-0.300822
0.0296223
-0.288673
0.030528
-0.277031
0.0314476
-0.265771
0.0323929
-0.255091
0.0333742
-0.244836
0.0343939
-0.235074
0.0354471
-0.225724
0.036535
-0.216763
0.0376544
-0.208101
0.0388055
-0.199825
0.0399948
-0.191859
0.0412186
-0.184217
0.0424926
-0.176879
0.0437924
-0.169838
0.0451537
-0.163072
0.0465571
-0.156587
0.0480162
-0.150351
0.0495319
-0.144371
0.0510922
-0.138629
0.0527231
-0.133107
0.0543995
-0.127807
0.0561341
-0.122721
0.0579515
-0.117823
0.0598254
-0.113122
0.0617502
-0.108604
0.0637463
-0.104259
0.0657545
-0.30081
0.028707
-0.28863
0.0295792
-0.276975
0.030472
-0.265709
0.0313856
-0.255037
0.0323387
-0.244788
0.033327
-0.235029
0.034349
-0.225676
0.0353996
-0.21671
0.0364825
-0.208043
0.0375967
-0.199763
0.0387438
-0.191795
0.0399303
-0.184151
0.0411526
-0.176813
0.042426
-0.169772
0.0437259
-0.163006
0.045088
-0.156522
0.0464926
-0.150289
0.0479535
-0.14431
0.0494714
-0.138571
0.0510344
-0.133052
0.0526684
-0.127756
0.0543485
-0.122674
0.0560872
-0.11778
0.0579091
-0.113084
0.0597874
-0.10857
0.0617163
-0.104229
0.0637161
-0.100062
0.0657256
-0.300797
0.0278178
-0.288586
0.0286633
-0.27692
0.0295243
-0.26565
0.0304131
-0.254987
0.0313354
-0.244744
0.0322947
-0.234987
0.0332842
-0.22563
0.0343027
-0.216659
0.0353479
-0.207987
0.0364256
-0.199702
0.0375359
-0.191731
0.0386803
-0.184086
0.0398653
-0.176747
0.0410869
-0.169706
0.0423601
-0.162941
0.0436606
-0.156458
0.0450236
-0.150226
0.0464297
-0.144249
0.0478926
-0.138513
0.0494129
-0.132996
0.0509788
-0.127704
0.0526163
-0.122626
0.0543002
-0.117736
0.0560432
-0.113044
0.0578697
-0.108535
0.0597527
-0.104199
0.0616859
-0.100035
0.0636894
-0.0960299
0.0657002
-0.300782
0.0269573
-0.288542
0.0277737
-0.276867
0.0286098
-0.265594
0.0294687
-0.254941
0.0303667
-0.244703
0.0312943
-0.234946
0.0322538
-0.225585
0.0332391
-0.216608
0.034252
-0.207931
0.0352921
-0.199643
0.0363659
-0.191669
0.0374736
-0.184022
0.0386163
-0.176682
0.0398004
-0.16964
0.0410216
-0.162876
0.0422952
-0.156394
0.0435964
-0.150163
0.0449607
-0.144188
0.0463685
-0.138454
0.0478335
-0.13294
0.0493565
-0.127651
0.0509255
-0.122576
0.0525665
-0.11769
0.0542545
-0.113003
0.056002
-0.108499
0.0578333
-0.104167
0.0597211
-0.100008
0.0616588
-0.0960066
0.063666
-0.092164
0.0656781
-0.300767
0.0261242
-0.288498
0.0269129
-0.276815
0.0277219
-0.265542
0.0285575
-0.254898
0.0294258
-0.244665
0.0303282
-0.234906
0.0312551
-0.225541
0.0322098
-0.216558
0.0331893
-0.207876
0.0341971
-0.199584
0.0352335
-0.191608
0.0363047
-0.183959
0.0374106
-0.176618
0.0385523
-0.169576
0.0397358
-0.162812
0.0409571
-0.15633
0.0422312
-0.1501
0.0435334
-0.144127
0.0448992
-0.138394
0.046309
-0.132883
0.0477764
-0.127597
0.0493021
-0.122525
0.0508744
-0.117643
0.0525191
-0.11296
0.0542114
-0.10846
0.0559636
-0.104134
0.0577999
-0.0999795
0.0596927
-0.0959827
0.0616349
-0.0921439
0.0636459
-0.0884438
0.0656592
-0.300751
0.0253158
-0.288453
0.0260797
-0.276765
0.026863
-0.265493
0.0276727
-0.254858
0.0285179
-0.244629
0.0293897
-0.234869
0.0302904
-0.225498
0.0312121
-0.216509
0.032161
-0.207822
0.0331356
-0.199527
0.0341398
-0.191548
0.0351735
-0.183897
0.0362428
-0.176555
0.0373475
-0.169512
0.0384884
-0.162748
0.0396718
-0.156266
0.0408934
-0.150037
0.0421683
-0.144065
0.0434719
-0.138335
0.0448394
-0.132825
0.0462513
-0.127541
0.0477211
-0.122473
0.0492498
-0.117594
0.0508254
-0.112915
0.0524741
-0.10842
0.0541707
-0.104098
0.0559278
-0.0999489
0.0577693
-0.0959574
0.0596674
-0.0921232
0.0616142
-0.0884268
0.0636289
-0.0848845
0.0656433
-0.300734
0.0245334
-0.288409
0.0252714
-0.276717
0.0260318
-0.265447
0.026817
-0.254822
0.0276363
-0.244595
0.0284839
-0.234832
0.0293533
-0.225456
0.0302485
-0.216462
0.0311644
-0.20777
0.0321085
-0.199471
0.0330796
-0.191489
0.0340811
-0.183836
0.0351128
-0.176493
0.0361807
-0.169449
0.0372844
-0.162684
0.038425
-0.156203
0.0396085
-0.149974
0.0408308
-0.144003
0.0421067
-0.138274
0.0434118
-0.132767
0.0447812
-0.127485
0.0461953
-0.122419
0.0476678
-0.117544
0.0491995
-0.112868
0.0507786
-0.108377
0.0524312
-0.10406
0.0541324
-0.0999157
0.0558947
-0.0959296
0.0577415
-0.0921008
0.059645
-0.0884092
0.0615966
-0.0848706
0.063615
-0.0814609
0.0656303
-0.300717
0.0237743
-0.288365
0.0244893
-0.276671
0.0252255
-0.265404
0.0259889
-0.254788
0.0267835
-0.244563
0.0276042
-0.234797
0.0284487
-0.225415
0.0293124
-0.216415
0.0302019
-0.207719
0.0311132
-0.199416
0.0320539
-0.191432
0.0330222
-0.183777
0.0340216
-0.176432
0.0350516
-0.169387
0.0361184
-0.162621
0.0372216
-0.15614
0.0383621
-0.149912
0.039546
-0.143942
0.0407692
-0.138214
0.0420465
-0.132708
0.0433533
-0.127429
0.0447247
-0.122365
0.0461412
-0.117492
0.0476164
-0.11282
0.0491511
-0.108332
0.0507338
-0.104019
0.0523905
-0.0998797
0.0540964
-0.0958989
0.055864
-0.0920757
0.0577165
-0.0883897
0.0596255
-0.0848559
0.0615819
-0.08145
0.0636041
-0.0781832
0.06562
-0.300698
0.0230385
-0.288321
0.0237307
-0.276627
0.0244455
-0.265364
0.0251858
-0.254757
0.025958
-0.244532
0.0267531
-0.234763
0.0275702
-0.225375
0.0284089
-0.21637
0.029267
-0.207669
0.0301522
-0.199363
0.03106
-0.191376
0.0319978
-0.183718
0.0329639
-0.176372
0.0339615
-0.169325
0.0349902
-0.162559
0.0360562
-0.156077
0.0371592
-0.14985
0.0382999
-0.14388
0.0394846
-0.138154
0.0407089
-0.13265
0.0419877
-0.127372
0.0432963
-0.12231
0.0446698
-0.11744
0.0460888
-0.11277
0.0475667
-0.108286
0.0491046
-0.103976
0.0506909
-0.0998411
0.0523518
-0.0958651
0.0540627
-0.0920474
0.0558357
-0.0883672
0.057694
-0.0848392
0.0596088
-0.0814381
0.0615701
-0.0781751
0.063596
-0.0750262
0.0656123
-0.300678
0.0223273
-0.288278
0.0229955
-0.276586
0.0236891
-0.265327
0.0244087
-0.254729
0.0251572
-0.244503
0.0259291
-0.23473
0.0267202
-0.225336
0.0275314
-0.216326
0.0283648
-0.207621
0.0292187
-0.199311
0.0301004
-0.191321
0.0310054
-0.183661
0.0319408
-0.176313
0.0329049
-0.169265
0.033901
-0.162498
0.0349288
-0.156016
0.0359944
-0.149788
0.0370974
-0.143819
0.0382387
-0.138094
0.0394243
-0.132591
0.04065
-0.127315
0.0419304
-0.122255
0.043241
-0.117387
0.0446167
-0.112719
0.0460381
-0.108238
0.0475188
-0.103931
0.0490599
-0.0998
0.0506498
-0.0958284
0.0523151
-0.0920157
0.054031
-0.0883412
0.0558097
-0.0848192
0.057674
-0.0814241
0.0595947
-0.078166
0.061561
-0.0750208
0.0635906
-0.072005
0.0656071
-0.300657
0.0216369
-0.288236
0.0222852
-0.276546
0.0229563
-0.265293
0.0236551
-0.254702
0.0243823
-0.244476
0.0251297
-0.234698
0.0258973
-0.225299
0.0266825
-0.216283
0.0274887
-0.207574
0.028318
-0.199261
0.0291684
-0.191268
0.0300472
-0.183606
0.0309497
-0.176255
0.031883
-0.169205
0.0328454
-0.162437
0.0338404
-0.155954
0.0348676
-0.149727
0.035933
-0.143758
0.0370364
-0.138033
0.0381785
-0.132532
0.0393653
-0.127257
0.0405925
-0.122199
0.0418747
-0.117333
0.0431873
-0.112668
0.0445653
-0.108189
0.0459892
-0.103885
0.0474726
-0.099757
0.0490169
-0.0957891
0.0506106
-0.0919808
0.0522802
-0.0883115
0.0540013
-0.0847954
0.0557859
-0.0814066
0.0576565
-0.0781546
0.0595833
-0.0750143
0.0615545
-0.0720022
0.0635878
-0.0691045
0.065604
-0.300636
0.0209671
-0.288195
0.0215957
-0.276509
0.0222481
-0.265262
0.0229248
-0.254678
0.0236307
-0.24445
0.0243561
-0.234667
0.0250989
-0.225262
0.0258608
-0.216242
0.0266411
-0.207528
0.0274433
-0.199212
0.0282692
-0.191216
0.0291167
-0.183551
0.0299928
-0.176198
0.0308931
-0.169147
0.0318246
-0.162377
0.0327857
-0.155894
0.0337799
-0.149666
0.0348068
-0.143698
0.0358724
-0.137973
0.0369763
-0.132473
0.0381195
-0.127199
0.0393076
-0.122143
0.0405365
-0.117279
0.0418205
-0.112616
0.0431353
-0.108139
0.0445155
-0.103838
0.0459418
-0.0997124
0.0474281
-0.0957477
0.0489754
-0.0919432
0.0505729
-0.0882784
0.0522471
-0.0847676
0.0539735
-0.0813849
0.0557642
-0.0781394
0.0576413
-0.0750054
0.0595744
-0.0719982
0.0615506
-0.0691041
0.0635874
-0.0663196
0.065603
-0.300614
0.0203193
-0.288155
0.020927
-0.276475
0.0215609
-0.265233
0.0222192
-0.254655
0.0229022
-0.244425
0.0236056
-0.234638
0.0243263
-0.225227
0.0250636
-0.216202
0.0258208
-0.207484
0.0265973
-0.199165
0.0273961
-0.191166
0.0282189
-0.183498
0.0290637
-0.176143
0.0299375
-0.16909
0.0308358
-0.162319
0.0317658
-0.155834
0.0327259
-0.149605
0.0337196
-0.143637
0.0347464
-0.137914
0.0358125
-0.132414
0.0369173
-0.127142
0.0380617
-0.122087
0.0392514
-0.117224
0.040482
-0.112563
0.041768
-0.108088
0.0430849
-0.10379
0.0444673
-0.0996667
0.0458961
-0.0957046
0.047385
-0.0919033
0.0489356
-0.0882423
0.0505368
-0.0847361
0.0522155
-0.0813589
0.0539475
-0.0781197
0.0557445
-0.0749925
0.0576284
-0.0719918
0.0595679
-0.0691026
0.0615491
-0.0663217
0.0635894
-0.0636455
0.0656038
-0.30059
0.0196909
-0.288116
0.0202805
-0.276442
0.0208944
-0.265206
0.0215343
-0.254634
0.0221982
-0.244401
0.0228782
-0.234609
0.0235768
-0.225193
0.0242922
-0.216163
0.025025
-0.207442
0.0257785
-0.199119
0.0265516
-0.191117
0.0273474
-0.183447
0.0281674
-0.176089
0.0290097
-0.169034
0.0298813
-0.162261
0.030778
-0.155775
0.0317068
-0.149546
0.0326662
-0.143577
0.0336597
-0.137854
0.0346868
-0.132355
0.0357536
-0.127084
0.0368595
-0.122031
0.0380053
-0.11717
0.0391966
-0.11251
0.0404291
-0.108038
0.0417171
-0.103741
0.043036
-0.09962
0.0444207
-0.0956604
0.0458518
-0.0918617
0.0473434
-0.0882038
0.0488971
-0.0847014
0.0505021
-0.0813289
0.0521855
-0.0780954
0.0539232
-0.0749748
0.0557268
-0.071981
0.0576176
-0.0690985
0.0595638
-0.0663225
0.0615499
-0.0636497
0.0635937
-0.0610819
0.0656063
-0.300566
0.0190819
-0.288079
0.0196535
-0.276411
0.0202499
-0.265182
0.02087
-0.254615
0.0215147
-0.244378
0.0221752
-0.234581
0.0228505
-0.22516
0.0235439
-0.216126
0.024255
-0.207401
0.0249842
-0.199075
0.0257343
-0.19107
0.0265044
-0.183397
0.0272973
-0.176036
0.0281147
-0.168979
0.0289548
-0.162204
0.0298246
-0.155717
0.0307199
-0.149487
0.0316478
-0.143518
0.0326069
-0.137795
0.0336004
-0.132296
0.0346281
-0.127026
0.0356958
-0.121974
0.036803
-0.117115
0.0379503
-0.112457
0.0391434
-0.107986
0.0403778
-0.103691
0.0416677
-0.0995728
0.0429888
-0.0956153
0.0443756
-0.0918189
0.045809
-0.0881636
0.0473032
-0.0846643
0.0488599
-0.0812956
0.0504687
-0.0780668
0.052157
-0.074952
0.0539005
-0.0719651
0.0557109
-0.0690898
0.0576089
-0.0663206
0.0595619
-0.0636527
0.0615529
-0.0610883
0.0636001
-0.058619
0.0656101
-0.300542
0.018491
-0.288043
0.0190459
-0.276383
0.0196249
-0.26516
0.0202276
-0.254597
0.0208517
-0.244355
0.0214926
-0.234554
0.0221484
-0.225128
0.0228187
-0.21609
0.0235082
-0.207362
0.0242157
-0.199032
0.0249416
-0.191024
0.0256887
-0.183348
0.0264558
-0.175985
0.0272459
-0.168925
0.028061
-0.162148
0.0288991
-0.15566
0.0297674
-0.149429
0.0306616
-0.143459
0.031589
-0.137736
0.032548
-0.132237
0.0335419
-0.126968
0.0345704
-0.121918
0.0356392
-0.11706
0.0367479
-0.112404
0.0378969
-0.107935
0.0390918
-0.103642
0.0403281
-0.0995251
0.04162
-0.0955695
0.0429431
-0.0917752
0.0443319
-0.0881221
0.0457676
-0.0846253
0.0472642
-0.0812596
0.048824
-0.0780347
0.0504366
-0.0749248
0.0521297
-0.0719439
0.0538793
-0.0690756
0.0556967
-0.0663139
0.0576022
-0.063653
0.0595622
-0.0610934
0.061558
-0.0586274
0.0636085
-0.0562516
0.0656152
-0.300516
0.0179195
-0.288008
0.0184565
-0.276356
0.0190194
-0.265139
0.0196045
-0.254579
0.0202105
-0.244334
0.0208305
-0.234529
0.0214669
-0.225098
0.022118
-0.216056
0.0227844
-0.207324
0.0234704
-0.198991
0.0241747
-0.19098
0.0248975
-0.183301
0.0256415
-0.175935
0.0264059
-0.168873
0.0271936
-0.162094
0.0280066
-0.155604
0.028843
-0.149371
0.02971
-0.143401
0.0306034
-0.137677
0.0315305
-0.132179
0.0324897
-0.126911
0.0334842
-0.121861
0.0345137
-0.117004
0.035584
-0.11235
0.0366942
-0.107883
0.037845
-0.103592
0.0390418
-0.099477
0.04028
-0.0955234
0.0415739
-0.091731
0.0428989
-0.0880799
0.0442897
-0.0845851
0.0457274
-0.0812218
0.0472265
-0.0779999
0.0487891
-0.0748938
0.0504056
-0.0719178
0.0521037
-0.0690558
0.0538595
-0.0663014
0.0556843
-0.0636482
0.0575974
-0.0610958
0.0595646
-0.0586345
0.0615651
-0.0562619
0.0636188
-0.0539898
0.0656213
-0.30049
0.017366
-0.287975
0.0178866
-0.276332
0.0184318
-0.26512
0.0190006
-0.254563
0.0195884
-0.244314
0.0201901
-0.234504
0.0208058
-0.225068
0.0214376
-0.216023
0.022085
-0.207288
0.0227482
-0.198952
0.0234309
-0.190937
0.0241321
-0.183255
0.0248519
-0.175887
0.0255931
-0.168822
0.0263549
-0.162041
0.0271403
-0.155548
0.0279515
-0.149315
0.0287864
-0.143344
0.0296525
-0.137619
0.0305455
-0.132121
0.0314726
-0.126853
0.0324322
-0.121804
0.0334276
-0.116949
0.0344584
-0.112296
0.0355301
-0.10783
0.036642
-0.103541
0.0377947
-0.0994285
0.0389934
-0.0954769
0.0402335
-0.0916864
0.0415292
-0.0880371
0.0428561
-0.0845442
0.0442487
-0.0811829
0.0456885
-0.0779632
0.0471898
-0.07486
0.0487553
-0.0718879
0.0503756
-0.0690309
0.0520788
-0.0662829
0.053841
-0.0636373
0.0556734
-0.0610928
0.0575944
-0.0586388
0.0595689
-0.0562708
0.061574
-0.0540019
0.063631
-0.0518134
0.0656283
-0.300464
0.0168281
-0.287944
0.0173349
-0.276309
0.0178637
-0.265103
0.0184147
-0.254548
0.0189855
-0.244294
0.0195689
-0.23448
0.0201664
-0.22504
0.0207777
-0.215991
0.0214061
-0.207253
0.0220503
-0.198914
0.0227102
-0.190896
0.0233899
-0.183211
0.024088
-0.17584
0.0248049
-0.168772
0.0255435
-0.161989
0.0263029
-0.155494
0.0270864
-0.149259
0.0278959
-0.143287
0.0287297
-0.137562
0.0295951
-0.132064
0.0304879
-0.126796
0.0314153
-0.121748
0.0323756
-0.116894
0.0333721
-0.112242
0.0344043
-0.107778
0.0354776
-0.103491
0.0365914
-0.0993798
0.0377459
-0.0954301
0.0389466
-0.0916415
0.0401886
-0.087994
0.0414861
-0.0845029
0.0428147
-0.0811432
0.0442091
-0.0779254
0.0456506
-0.0748243
0.0471541
-0.071855
0.0487224
-0.0690019
0.0503466
-0.066259
0.0520549
-0.0636201
0.0538238
-0.0610834
0.0556641
-0.0586376
0.0575932
-0.0562771
0.0595753
-0.0540126
0.0615846
-0.0518273
0.0636448
-0.0497226
0.0656358
-0.300437
0.016307
-0.287915
0.0167987
-0.276287
0.0173136
-0.265088
0.0178481
-0.254534
0.0184005
-0.244276
0.0189668
-0.234457
0.0195461
-0.225013
0.0201395
-0.215961
0.0207475
-0.20722
0.0213728
-0.198878
0.0220138
-0.190857
0.0226707
-0.183169
0.0233473
-0.175794
0.0240425
-0.168724
0.0247567
-0.161938
0.0254928
-0.155442
0.0262501
-0.149204
0.0270318
-0.143231
0.02784
-0.137505
0.028673
-0.132007
0.029538
-0.126739
0.0304309
-0.121691
0.0313588
-0.116838
0.0323201
-0.112188
0.0333179
-0.107725
0.0343516
-0.10344
0.0354268
-0.0993308
0.0365424
-0.095383
0.0376989
-0.0915963
0.0389014
-0.0879507
0.0401453
-0.0844612
0.0414445
-0.0811033
0.0427748
-0.0778869
0.0441707
-0.0747875
0.0456139
-0.0718202
0.0471193
-0.0689698
0.0486904
-0.0662308
0.0503183
-0.0635972
0.052032
-0.0610674
0.0538077
-0.0586297
0.0556561
-0.0562776
0.0575936
-0.0540207
0.0595834
-0.0518396
0.061597
-0.0497381
0.0636603
-0.0477172
0.0656437
-0.300409
0.0158027
-0.287887
0.0162794
-0.276268
0.0167789
-0.265074
0.0172994
-0.25452
0.0178346
-0.244258
0.0183825
-0.234436
0.0189449
-0.224988
0.0195204
-0.215933
0.0201107
-0.207188
0.0207156
-0.198843
0.0213378
-0.190819
0.0219758
-0.183128
0.0226297
-0.17575
0.0233033
-0.168677
0.0239958
-0.161889
0.0247074
-0.15539
0.0254412
-0.149151
0.0261966
-0.143176
0.0269768
-0.137449
0.027784
-0.13195
0.0286164
-0.126682
0.0294813
-0.121635
0.0303746
-0.116782
0.0313033
-0.112134
0.0322657
-0.107673
0.033265
-0.103389
0.0343005
-0.0992815
0.0353774
-0.0953357
0.036495
-0.0915509
0.0376534
-0.0879071
0.0388579
-0.0844195
0.0401035
-0.0810631
0.0414044
-0.0778482
0.0427361
-0.0747503
0.0441334
-0.0717844
0.0455781
-0.0689359
0.0470854
-0.0661995
0.0486591
-0.0635697
0.0502908
-0.0610453
0.0520099
-0.0586147
0.0537927
-0.0562711
0.0556496
-0.0540228
0.0575957
-0.0518496
0.0595934
-0.0497519
0.0616108
-0.0477342
0.0636774
-0.0457972
0.0656518
-0.300381
0.0153126
-0.287861
0.0157769
-0.276249
0.016261
-0.265061
0.016766
-0.254508
0.0172865
-0.24424
0.0178173
-0.234415
0.0183616
-0.224963
0.0189204
-0.215905
0.0194929
-0.207157
0.0200802
-0.198809
0.0206822
-0.190782
0.0213013
-0.183088
0.0219363
-0.175708
0.0225872
-0.168632
0.0232581
-0.161841
0.0239479
-0.15534
0.0246571
-0.149099
0.0253889
-0.143122
0.0261426
-0.137394
0.0269216
-0.131894
0.0277279
-0.126626
0.0285601
-0.121579
0.0294252
-0.116727
0.0303191
-0.112079
0.0312488
-0.107619
0.0322126
-0.103337
0.0332136
-0.0992319
0.0342508
-0.095288
0.0353298
-0.0915051
0.0364493
-0.0878633
0.0376097
-0.0843775
0.0388159
-0.0810228
0.0400632
-0.0778095
0.0413656
-0.0747129
0.0426987
-0.0717483
0.0440972
-0.068901
0.0455433
-0.0661664
0.0470523
-0.063539
0.0486284
-0.0610185
0.050264
-0.0585934
0.0519886
-0.0562571
0.0537788
-0.0540176
0.0556444
-0.0518532
0.0575993
-0.0497636
0.059605
-0.0477495
0.0616261
-0.0458157
0.0636958
-0.0439476
0.0656599
-0.300352
0.0148394
-0.287837
0.0152886
-0.276232
0.0157598
-0.265049
0.0162492
-0.254495
0.0167537
-0.244224
0.01727
-0.234395
0.0177974
-0.22494
0.0183382
-0.215879
0.0188942
-0.207128
0.0194638
-0.198777
0.0200481
-0.190747
0.0206471
-0.18305
0.0212633
-0.175667
0.0218954
-0.168588
0.0225434
-0.161794
0.0232116
-0.155291
0.0238989
-0.149048
0.024606
-0.143069
0.0253359
-0.137339
0.0260882
-0.131839
0.0268662
-0.12657
0.0276721
-0.121523
0.0285042
-0.116672
0.0293697
-0.112025
0.0302645
-0.107566
0.0311955
-0.103285
0.0321609
-0.0991819
0.0331636
-0.0952399
0.0342028
-0.0914591
0.0352837
-0.0878193
0.0364053
-0.0843354
0.0375675
-0.0809825
0.0387755
-0.0777707
0.0400244
-0.0746755
0.0413282
-0.0717121
0.0426625
-0.0688659
0.0440621
-0.0661323
0.0455093
-0.0635066
0.0470198
-0.0609884
0.0485984
-0.0585672
0.0502378
-0.0562365
0.051968
-0.0540046
0.0537657
-0.0518492
0.0556404
-0.0497686
0.0576044
-0.0477628
0.0596183
-0.0458323
0.0616428
-0.0439674
0.0637156
-0.0421734
0.0656679
-0.300323
0.0143804
-0.287815
0.0148172
-0.276216
0.0152727
-0.265038
0.0157491
-0.254484
0.0162376
-0.244208
0.016738
-0.234376
0.017251
-0.224918
0.0177751
-0.215854
0.0183132
-0.2071
0.0188664
-0.198746
0.0194331
-0.190714
0.0200146
-0.183014
0.0206107
-0.175627
0.0212239
-0.168546
0.0218531
-0.161749
0.0224984
-0.155243
0.023164
-0.148998
0.023849
-0.143017
0.0245541
-0.137286
0.0252824
-0.131784
0.0260335
-0.126515
0.0268108
-0.121467
0.0276165
-0.116616
0.0284489
-0.11197
0.0293152
-0.107513
0.0302111
-0.103233
0.0311435
-0.0991316
0.0321106
-0.0951915
0.0331152
-0.0914127
0.0341564
-0.0877749
0.0352393
-0.084293
0.0363629
-0.0809419
0.037527
-0.0777319
0.0387367
-0.0746382
0.0399871
-0.071676
0.0412921
-0.0688309
0.0426274
-0.0660982
0.0440279
-0.0634734
0.045476
-0.0609566
0.0469879
-0.0585377
0.0485688
-0.0562108
0.0502121
-0.0539846
0.0519481
-0.051837
0.0537536
-0.0497658
0.0556375
-0.0477692
0.0576108
-0.0458471
0.0596331
-0.0439853
0.0616607
-0.0421945
0.0637367
-0.0404797
0.0656755
-0.300294
0.0139343
-0.287795
0.01436
-0.276201
0.0148024
-0.265028
0.015263
-0.254473
0.015738
-0.244193
0.0162225
-0.234358
0.0167199
-0.224896
0.0172298
-0.21583
0.0177513
-0.207074
0.0182867
-0.198717
0.0188371
-0.190682
0.019401
-0.182979
0.0199796
-0.175589
0.0205727
-0.168505
0.0211831
-0.161706
0.0218095
-0.155197
0.0224522
-0.148949
0.0231154
-0.142966
0.0237983
-0.137233
0.0245016
-0.13173
0.0252286
-0.12646
0.0259788
-0.121412
0.0267557
-0.116561
0.0275614
-0.111915
0.0283943
-0.107459
0.0292616
-0.103181
0.0301588
-0.099081
0.0310929
-0.0951427
0.0320618
-0.0913659
0.0330684
-0.0877302
0.0341116
-0.0842503
0.0351966
-0.0809012
0.0363221
-0.077693
0.0374881
-0.0746009
0.0386995
-0.0716401
0.0399513
-0.0687961
0.0412574
-0.0660643
0.0425935
-0.0634401
0.0439947
-0.0609241
0.0454436
-0.0585064
0.0469567
-0.0561817
0.0485397
-0.0539594
0.0501868
-0.0518177
0.0519288
-0.0497545
0.0537423
-0.0477675
0.0556358
-0.0458549
0.0576186
-0.0440017
0.0596495
-0.0422136
0.0616797
-0.0405019
0.063759
-0.0388412
0.0656827
-0.300265
0.0135038
-0.287776
0.0139157
-0.276188
0.0143462
-0.265019
0.0147935
-0.254462
0.0152524
-0.244179
0.0157236
-0.23434
0.0162052
-0.224876
0.0166997
-0.215807
0.0172071
-0.207049
0.017726
-0.198689
0.0182588
-0.190651
0.0188064
-0.182945
0.0193675
-0.175553
0.0199432
-0.168466
0.0205335
-0.161664
0.021141
-0.155152
0.0217647
-0.148902
0.0224049
-0.142917
0.0230659
-0.137182
0.0237469
-0.131677
0.0244486
-0.126406
0.0251745
-0.121358
0.0259241
-0.116506
0.0267009
-0.111861
0.0275069
-0.107405
0.0283406
-0.103129
0.029209
-0.09903
0.0301078
-0.0950935
0.0310437
-0.0913186
0.0320145
-0.087685
0.0330232
-0.0842072
0.0340686
-0.0808602
0.0351556
-0.0776539
0.036283
-0.0745636
0.0374508
-0.0716044
0.0386637
-0.0687616
0.0399168
-0.0660308
0.0412239
-0.0634073
0.0425607
-0.0608918
0.0439624
-0.0584746
0.0454118
-0.0561509
0.0469259
-0.0539307
0.048511
-0.0517928
0.050162
-0.0497357
0.05191
-0.047757
0.0537317
-0.0458543
0.0556352
-0.0440107
0.0576276
-0.0422313
0.0596672
-0.0405221
0.0616999
-0.0388645
0.0637823
-0.0372781
0.0656893
-0.300235
0.013085
-0.287759
0.013487
-0.276175
0.0139028
-0.265011
0.0143382
-0.254452
0.0147834
-0.244165
0.0152387
-0.234324
0.0157072
-0.224857
0.0161861
-0.215786
0.0166781
-0.207025
0.0171831
-0.198663
0.0176994
-0.190622
0.0182294
-0.182913
0.0187743
-0.175518
0.0193325
-0.168428
0.0199054
-0.161623
0.0204929
-0.155109
0.0210977
-0.148856
0.0217188
-0.142869
0.0223567
-0.137132
0.0230155
-0.131625
0.0236948
-0.126352
0.0243953
-0.121303
0.0251203
-0.116452
0.0258696
-0.111807
0.0266465
-0.107352
0.0274532
-0.103076
0.0282879
-0.0989787
0.0291577
-0.0950439
0.0300582
-0.0912709
0.030996
-0.0876393
0.0319689
-0.0841637
0.0329797
-0.0808188
0.0340272
-0.0776145
0.0351162
-0.0745261
0.0362456
-0.0715686
0.037415
-0.0687274
0.0386294
-0.0659977
0.0398837
-0.063375
0.0411916
-0.06086
0.0425289
-0.0584431
0.0439309
-0.0561198
0.0453806
-0.0539003
0.0468955
-0.0517644
0.0484827
-0.0497111
0.0501374
-0.0477386
0.0518916
-0.0458445
0.0537219
-0.0440111
0.0556356
-0.0422416
0.0576379
-0.0405412
0.0596863
-0.0388857
0.0617211
-0.0373025
0.0638067
-0.0357703
0.0656952
-0.300205
0.0126791
-0.287744
0.0130699
-0.276163
0.0134748
-0.265004
0.0138955
-0.254442
0.0143284
-0.244152
0.0147704
-0.234308
0.0152231
-0.224839
0.015689
-0.215765
0.0161656
-0.207002
0.0166552
-0.198637
0.0171577
-0.190594
0.0176714
-0.182882
0.0181987
-0.175485
0.0187408
-0.168392
0.0192963
-0.161584
0.0198663
-0.155067
0.0204511
-0.148811
0.0210532
-0.142822
0.0216719
-0.137083
0.0223075
-0.131574
0.0229645
-0.1263
0.0236423
-0.12125
0.0243418
-0.116398
0.0250663
-0.111752
0.0258155
-0.107298
0.0265928
-0.103023
0.0274003
-0.0989271
0.0282363
-0.0949939
0.0291077
-0.0912228
0.03001
-0.0875932
0.0309498
-0.0841197
0.0319249