/*--------------------------------*- C++ -*----------------------------------*\
  =========                 |
  \\      /  F ield         | OpenFOAM: The Open Source CFD Toolbox
   \\    /   O peration     | Website:  https://openfoam.org
    \\  /    A nd           | Version:  7
     \\/     M anipulation  |
\*---------------------------------------------------------------------------*/
FoamFile
{
    version     2.0;
    format      ascii;
    class       volVectorField;
    location    "1000";
    object      U;
}
// * * * * * * * * * * * * * * * * * * * * * * * * * * * * * * * * * * * * * //

dimensions      [0 1 -1 0 0 0 0];

internalField   nonuniform List<vector> 
23117
(
(49.9364 13.1756 0)
(49.8908 13.1252 0)
(50.016 13.1723 0)
(49.8719 13.0938 0)
(49.9824 13.1674 0)
(50.0726 13.152 0)
(49.8569 13.0634 0)
(49.9666 13.1563 0)
(50.0453 13.146 0)
(50.1331 13.1215 0)
(49.8479 13.0372 0)
(49.9476 13.1431 0)
(50.0313 13.1374 0)
(50.1028 13.1122 0)
(50.1767 13.1004 0)
(49.8411 13.0142 0)
(49.934 13.1306 0)
(50.0135 13.1274 0)
(50.0876 13.1026 0)
(50.1432 13.0941 0)
(50.2032 13.0772 0)
(49.8361 12.9939 0)
(49.9224 13.1194 0)
(49.9994 13.117 0)
(50.0681 13.0926 0)
(50.126 13.0851 0)
(50.1636 13.0704 0)
(50.212 13.0502 0)
(49.8321 12.9759 0)
(49.9129 13.1097 0)
(49.9864 13.1066 0)
(50.0515 13.0825 0)
(50.1027 13.0759 0)
(50.1434 13.0608 0)
(50.1656 13.0418 0)
(50.2063 13.0213 0)
(49.8288 12.96 0)
(49.9046 13.1014 0)
(49.9748 13.0968 0)
(50.0353 13.0725 0)
(50.0819 13.0662 0)
(50.1154 13.0511 0)
(50.1427 13.0315 0)
(50.1564 13.0124 0)
(50.1954 12.9926 0)
(49.826 12.9459 0)
(49.8973 13.0945 0)
(49.9642 13.0876 0)
(50.02 13.0629 0)
(50.0608 13.0565 0)
(50.0903 13.0408 0)
(50.1114 13.0213 0)
(50.1332 13.0022 0)
(50.1466 12.9843 0)
(50.1883 12.9666 0)
(49.8236 12.9333 0)
(49.8907 13.0889 0)
(49.9542 13.079 0)
(50.005 13.0538 0)
(50.0404 13.047 0)
(50.0648 13.0305 0)
(50.0837 13.0108 0)
(50.1013 12.9923 0)
(50.1255 12.975 0)
(50.1442 12.9599 0)
(50.1898 12.9446 0)
(49.8215 12.9222 0)
(49.8846 13.0844 0)
(49.9446 13.0711 0)
(49.9902 13.0453 0)
(50.0201 13.0377 0)
(50.0402 13.0203 0)
(50.0562 13.0005 0)
(50.0742 12.9823 0)
(50.096 12.966 0)
(50.1263 12.9518 0)
(50.1513 12.94 0)
(50.199 12.9263 0)
(49.8196 12.9125 0)
(49.8787 13.0809 0)
(49.9353 13.0638 0)
(49.9756 13.0374 0)
(50.0001 13.0289 0)
(50.0162 13.0105 0)
(50.0303 12.9904 0)
(50.0479 12.9727 0)
(50.0718 12.9572 0)
(50.1005 12.944 0)
(50.136 12.9327 0)
(50.1647 12.9234 0)
(50.2124 12.9105 0)
(49.8178 12.9039 0)
(49.8731 13.0783 0)
(49.926 13.0572 0)
(49.9609 13.03 0)
(49.9803 13.0205 0)
(49.9929 13.0011 0)
(50.0056 12.9809 0)
(50.0236 12.9636 0)
(50.0485 12.9487 0)
(50.0796 12.9363 0)
(50.1132 12.9257 0)
(50.1508 12.9163 0)
(50.1798 12.9085 0)
(50.2259 12.8958 0)
(49.8162 12.8964 0)
(49.8675 13.0765 0)
(49.9167 13.0511 0)
(49.9462 13.0233 0)
(49.9608 13.0126 0)
(49.9705 12.9922 0)
(49.9823 12.9719 0)
(50.0009 12.955 0)
(50.0273 12.9408 0)
(50.0592 12.9288 0)
(50.0945 12.9187 0)
(50.1295 12.9097 0)
(50.1659 12.9012 0)
(50.1929 12.8942 0)
(50.2368 12.8815 0)
(49.8147 12.8899 0)
(49.862 13.0754 0)
(49.9073 13.0455 0)
(49.9314 13.0172 0)
(49.9416 13.0053 0)
(49.9489 12.984 0)
(49.9604 12.9637 0)
(49.98 12.9472 0)
(50.0076 12.9333 0)
(50.0405 12.9218 0)
(50.0758 12.9118 0)
(50.1113 12.9028 0)
(50.1447 12.8944 0)
(50.1785 12.8863 0)
(50.2025 12.8799 0)
(50.2443 12.8674 0)
(49.8133 12.8843 0)
(49.8564 13.075 0)
(49.8977 13.0404 0)
(49.9165 13.0116 0)
(49.9228 12.9986 0)
(49.9283 12.9765 0)
(49.9399 12.9563 0)
(49.9606 12.9401 0)
(49.9893 12.9266 0)
(50.0228 12.9151 0)
(50.058 12.905 0)
(50.0927 12.8958 0)
(50.126 12.8872 0)
(50.1565 12.8793 0)
(50.1875 12.8715 0)
(50.2087 12.8657 0)
(50.249 12.8535 0)
(49.8119 12.8796 0)
(49.8508 13.0751 0)
(49.888 13.0357 0)
(49.9016 13.0066 0)
(49.9044 12.9925 0)
(49.9087 12.9697 0)
(49.9208 12.9497 0)
(49.9427 12.9338 0)
(49.9723 12.9204 0)
(50.006 12.9088 0)
(50.0407 12.8984 0)
(50.0746 12.8888 0)
(50.1067 12.8799 0)
(50.1371 12.8716 0)
(50.1649 12.8641 0)
(50.1936 12.8569 0)
(50.2127 12.8518 0)
(50.2516 12.8402 0)
(49.8105 12.8756 0)
(49.845 13.0758 0)
(49.878 13.0313 0)
(49.8867 13.0022 0)
(49.8866 12.987 0)
(49.8901 12.9637 0)
(49.903 12.944 0)
(49.926 12.9283 0)
(49.9562 12.9149 0)
(49.9898 12.903 0)
(50.0238 12.8922 0)
(50.0566 12.882 0)
(50.0877 12.8725 0)
(50.1168 12.8638 0)
(50.1448 12.856 0)
(50.1705 12.8492 0)
(50.1976 12.8428 0)
(50.2152 12.8385 0)
(50.2529 12.8274 0)
(49.8091 12.8724 0)
(49.8391 13.0769 0)
(49.8679 13.0273 0)
(49.8718 12.9983 0)
(49.8693 12.9821 0)
(49.8726 12.9585 0)
(49.8864 12.9391 0)
(49.9105 12.9235 0)
(49.9411 12.91 0)
(49.9742 12.8977 0)
(50.0072 12.8862 0)
(50.0387 12.8753 0)
(50.0686 12.8651 0)
(50.0969 12.8558 0)
(50.1239 12.8477 0)
(50.1502 12.8407 0)
(50.1745 12.8348 0)
(50.2005 12.8293 0)
(50.2168 12.8259 0)
(50.2534 12.8155 0)
(49.8077 12.8698 0)
(49.8329 13.0784 0)
(49.8577 13.0237 0)
(49.8572 12.9949 0)
(49.8528 12.9778 0)
(49.8562 12.9541 0)
(49.8711 12.9349 0)
(49.896 12.9195 0)
(49.9266 12.9057 0)
(49.9589 12.8928 0)
(49.9907 12.8806 0)
(50.0209 12.8688 0)
(50.0496 12.8579 0)
(50.077 12.848 0)
(50.1035 12.8393 0)
(50.1291 12.832 0)
(50.1542 12.826 0)
(50.1776 12.8211 0)
(50.2026 12.8166 0)
(50.218 12.8142 0)
(50.2534 12.8044 0)
(49.8063 12.8679 0)
(49.8266 13.0802 0)
(49.8473 13.0203 0)
(49.8427 12.992 0)
(49.8369 12.9741 0)
(49.8408 12.9504 0)
(49.8568 12.9316 0)
(49.8823 12.9161 0)
(49.9126 12.902 0)
(49.944 12.8885 0)
(49.9743 12.8754 0)
(50.0031 12.8627 0)
(50.0306 12.8509 0)
(50.0571 12.8403 0)
(50.083 12.831 0)
(50.1085 12.8232 0)
(50.1332 12.8169 0)
(50.1576 12.8119 0)
(50.1801 12.8082 0)
(50.2043 12.8048 0)
(50.2187 12.8033 0)
(50.2529 12.794 0)
(49.8047 12.8665 0)
(49.8201 13.0822 0)
(49.8368 13.0172 0)
(49.8285 12.9896 0)
(49.8219 12.9711 0)
(49.8265 12.9475 0)
(49.8435 12.929 0)
(49.8694 12.9135 0)
(49.8991 12.8988 0)
(49.9292 12.8846 0)
(49.9581 12.8706 0)
(49.9854 12.857 0)
(50.0117 12.8443 0)
(50.0374 12.8329 0)
(50.0627 12.8229 0)
(50.0878 12.8145 0)
(50.1126 12.8077 0)
(50.1368 12.8025 0)
(50.1605 12.7987 0)
(50.1823 12.796 0)
(50.2056 12.7937 0)
(50.2191 12.7932 0)
(50.252 12.7844 0)
(49.8032 12.8656 0)
(49.8134 13.0845 0)
(49.8263 13.0144 0)
(49.8147 12.9878 0)
(49.8076 12.9686 0)
(49.8132 12.9453 0)
(49.8311 12.9271 0)
(49.8571 12.9114 0)
(49.886 12.8962 0)
(49.9147 12.8812 0)
(49.9419 12.8662 0)
(49.9678 12.8517 0)
(49.993 12.8381 0)
(50.0178 12.8258 0)
(50.0426 12.815 0)
(50.0673 12.8059 0)
(50.092 12.7986 0)
(50.1163 12.7929 0)
(50.14 12.7888 0)
(50.1631 12.7862 0)
(50.1842 12.7846 0)
(50.2066 12.7833 0)
(50.2191 12.7838 0)
(50.2507 12.7756 0)
(49.8015 12.8651 0)
(49.8065 13.087 0)
(49.8158 13.0118 0)
(49.8012 12.9864 0)
(49.7942 12.9667 0)
(49.8007 12.9437 0)
(49.8195 12.9259 0)
(49.8453 12.91 0)
(49.8732 12.8942 0)
(49.9003 12.8783 0)
(49.9259 12.8624 0)
(49.9504 12.8469 0)
(49.9744 12.8324 0)
(49.9983 12.8192 0)
(50.0225 12.8076 0)
(50.0469 12.7976 0)
(50.0713 12.7895 0)
(50.0957 12.7832 0)
(50.1196 12.7787 0)
(50.1429 12.7758 0)
(50.1654 12.7744 0)
(50.1857 12.774 0)
(50.2072 12.7737 0)
(50.2188 12.7752 0)
(50.249 12.7675 0)
(49.7997 12.8651 0)
(49.7994 13.0897 0)
(49.8054 13.0095 0)
(49.7883 12.9855 0)
(49.7816 12.9654 0)
(49.7892 12.9428 0)
(49.8086 12.9252 0)
(49.834 12.909 0)
(49.8606 12.8926 0)
(49.886 12.8759 0)
(49.91 12.859 0)
(49.9331 12.8427 0)
(49.956 12.8272 0)
(49.9791 12.8131 0)
(50.0026 12.8005 0)
(50.0265 12.7897 0)
(50.0507 12.7807 0)
(50.075 12.7737 0)
(50.0991 12.7685 0)
(50.1227 12.7652 0)
(50.1455 12.7635 0)
(50.1674 12.7633 0)
(50.187 12.7641 0)
(50.2076 12.7649 0)
(50.2182 12.7673 0)
(50.247 12.7602 0)
(49.7978 12.8654 0)
(49.7921 13.0925 0)
(49.7951 13.0073 0)
(49.7758 12.985 0)
(49.7698 12.9646 0)
(49.7785 12.9425 0)
(49.7983 12.9251 0)
(49.823 12.9086 0)
(49.8482 12.8915 0)
(49.8719 12.8739 0)
(49.8943 12.8562 0)
(49.916 12.8389 0)
(49.9377 12.8225 0)
(49.96 12.8074 0)
(49.9828 12.7939 0)
(50.0062 12.7822 0)
(50.0301 12.7723 0)
(50.0542 12.7644 0)
(50.0783 12.7584 0)
(50.1022 12.7544 0)
(50.1256 12.7523 0)
(50.1479 12.7519 0)
(50.1693 12.7529 0)
(50.1882 12.7549 0)
(50.2079 12.7568 0)
(50.2175 12.7602 0)
(50.2448 12.7536 0)
(49.7958 12.8661 0)
(49.7848 13.0954 0)
(49.7849 13.0054 0)
(49.7639 12.985 0)
(49.7588 12.9643 0)
(49.7686 12.9428 0)
(49.7885 12.9255 0)
(49.8124 12.9086 0)
(49.836 12.8909 0)
(49.858 12.8725 0)
(49.8787 12.8539 0)
(49.8991 12.8357 0)
(49.9197 12.8184 0)
(49.9411 12.8024 0)
(49.9632 12.7879 0)
(49.986 12.7751 0)
(50.0095 12.7643 0)
(50.0334 12.7554 0)
(50.0574 12.7485 0)
(50.0815 12.7437 0)
(50.1052 12.7409 0)
(50.1283 12.7401 0)
(50.1502 12.7409 0)
(50.1711 12.7432 0)
(50.1892 12.7464 0)
(50.2079 12.7495 0)
(50.2165 12.7538 0)
(50.2423 12.7476 0)
(49.7937 12.867 0)
(49.7773 13.0983 0)
(49.7749 13.0038 0)
(49.7526 12.9854 0)
(49.7487 12.9644 0)
(49.7593 12.9436 0)
(49.7793 12.9264 0)
(49.8021 12.9091 0)
(49.824 12.8906 0)
(49.8443 12.8715 0)
(49.8634 12.8521 0)
(49.8825 12.833 0)
(49.902 12.8148 0)
(49.9224 12.7979 0)
(49.9437 12.7824 0)
(49.9659 12.7686 0)
(49.9889 12.7567 0)
(50.0125 12.7468 0)
(50.0364 12.7389 0)
(50.0605 12.7332 0)
(50.0845 12.7296 0)
(50.108 12.728 0)
(50.1309 12.7284 0)
(50.1525 12.7306 0)
(50.1728 12.7342 0)
(50.1902 12.7387 0)
(50.2079 12.7428 0)
(50.2155 12.7481 0)
(50.2396 12.7423 0)
(49.7914 12.8683 0)
(49.7697 13.1014 0)
(49.7652 13.0023 0)
(49.7419 12.9862 0)
(49.7392 12.965 0)
(49.7507 12.9448 0)
(49.7704 12.9276 0)
(49.792 12.9099 0)
(49.8122 12.8908 0)
(49.8308 12.8709 0)
(49.8484 12.8508 0)
(49.8661 12.8309 0)
(49.8845 12.8118 0)
(49.9039 12.7939 0)
(49.9244 12.7775 0)
(49.946 12.7627 0)
(49.9684 12.7497 0)
(49.9915 12.7387 0)
(50.0152 12.7298 0)
(50.0393 12.723 0)
(50.0634 12.7184 0)
(50.0874 12.716 0)
(50.1108 12.7157 0)
(50.1335 12.7174 0)
(50.1547 12.7209 0)
(50.1745 12.7258 0)
(50.1911 12.7316 0)
(50.2078 12.7369 0)
(50.2144 12.7431 0)
(50.2368 12.7377 0)
(49.789 12.8697 0)
(49.762 13.1044 0)
(49.7557 13.001 0)
(49.7318 12.9875 0)
(49.7305 12.9659 0)
(49.7426 12.9464 0)
(49.7619 12.9292 0)
(49.7822 12.9111 0)
(49.8007 12.8914 0)
(49.8175 12.8709 0)
(49.8336 12.85 0)
(49.85 12.8293 0)
(49.8673 12.8094 0)
(49.8857 12.7906 0)
(49.9054 12.7731 0)
(49.9261 12.7573 0)
(49.9479 12.7432 0)
(49.9706 12.7311 0)
(49.994 12.7211 0)
(50.0179 12.7132 0)
(50.042 12.7076 0)
(50.0663 12.7042 0)
(50.0903 12.703 0)
(50.1137 12.704 0)
(50.1361 12.707 0)
(50.157 12.7119 0)
(50.1762 12.7181 0)
(50.1921 12.7252 0)
(50.2077 12.7316 0)
(50.2131 12.7387 0)
(50.2338 12.7337 0)
(49.7864 12.8713 0)
(49.7544 13.1074 0)
(49.7466 12.9999 0)
(49.7223 12.989 0)
(49.7225 12.9672 0)
(49.735 12.9484 0)
(49.7538 12.9312 0)
(49.7726 12.9126 0)
(49.7893 12.8924 0)
(49.8045 12.8712 0)
(49.8191 12.8497 0)
(49.8342 12.8283 0)
(49.8504 12.8076 0)
(49.8678 12.7878 0)
(49.8865 12.7694 0)
(49.9064 12.7525 0)
(49.9275 12.7373 0)
(49.9497 12.7241 0)
(49.9727 12.7129 0)
(49.9963 12.7039 0)
(50.0204 12.6971 0)
(50.0448 12.6926 0)
(50.0691 12.6904 0)
(50.0932 12.6905 0)
(50.1165 12.6928 0)
(50.1388 12.6972 0)
(50.1594 12.7035 0)
(50.178 12.7111 0)
(50.1931 12.7195 0)
(50.2076 12.727 0)
(50.2119 12.735 0)
(50.2307 12.7304 0)
(49.7837 12.8731 0)
(49.7467 13.1105 0)
(49.7377 12.999 0)
(49.7134 12.9909 0)
(49.7151 12.9689 0)
(49.7279 12.9507 0)
(49.7459 12.9334 0)
(49.7632 12.9144 0)
(49.7782 12.8937 0)
(49.7918 12.872 0)
(49.805 12.8498 0)
(49.8188 12.8278 0)
(49.8338 12.8063 0)
(49.8501 12.7856 0)
(49.8678 12.7662 0)
(49.8869 12.7483 0)
(49.9073 12.732 0)
(49.9288 12.7176 0)
(49.9513 12.7053 0)
(49.9746 12.6951 0)
(49.9986 12.6872 0)
(50.023 12.6816 0)
(50.0476 12.6782 0)
(50.072 12.6772 0)
(50.0962 12.6786 0)
(50.1195 12.6822 0)
(50.1416 12.688 0)
(50.1618 12.6957 0)
(50.1799 12.7047 0)
(50.1941 12.7144 0)
(50.2074 12.723 0)
(50.2105 12.7319 0)
(50.2275 12.7275 0)
(49.7808 12.875 0)
(49.7391 13.1135 0)
(49.7293 12.9984 0)
(49.7051 12.9932 0)
(49.7083 12.9708 0)
(49.7212 12.9533 0)
(49.7383 12.9358 0)
(49.754 12.9166 0)
(49.7674 12.8954 0)
(49.7794 12.8732 0)
(49.7912 12.8505 0)
(49.8037 12.8278 0)
(49.8175 12.8055 0)
(49.8327 12.784 0)
(49.8494 12.7637 0)
(49.8675 12.7447 0)
(49.8871 12.7273 0)
(49.908 12.7118 0)
(49.93 12.6983 0)
(49.9529 12.6869 0)
(49.9766 12.6778 0)
(50.0009 12.671 0)
(50.0256 12.6665 0)
(50.0504 12.6643 0)
(50.0751 12.6645 0)
(50.0993 12.6671 0)
(50.1226 12.6721 0)
(50.1446 12.6793 0)
(50.1644 12.6884 0)
(50.1819 12.6989 0)
(50.1952 12.7099 0)
(50.2073 12.7196 0)
(50.2092 12.7294 0)
(50.2242 12.7253 0)
(49.7778 12.877 0)
(49.7315 13.1165 0)
(49.7212 12.9979 0)
(49.6973 12.9957 0)
(49.702 12.973 0)
(49.7149 12.9562 0)
(49.731 12.9385 0)
(49.7451 12.9189 0)
(49.7568 12.8974 0)
(49.7673 12.8747 0)
(49.7777 12.8515 0)
(49.789 12.8282 0)
(49.8015 12.8053 0)
(49.8155 12.783 0)
(49.8312 12.7617 0)
(49.8484 12.7417 0)
(49.8671 12.7232 0)
(49.8872 12.7066 0)
(49.9086 12.6919 0)
(49.9311 12.6793 0)
(49.9546 12.669 0)
(49.9787 12.6609 0)
(50.0033 12.6552 0)
(50.0283 12.6519 0)
(50.0533 12.6509 0)
(50.0782 12.6523 0)
(50.1025 12.6562 0)
(50.1258 12.6625 0)
(50.1476 12.6711 0)
(50.1671 12.6817 0)
(50.184 12.6936 0)
(50.1964 12.706 0)
(50.2072 12.7168 0)
(50.2078 12.7274 0)
(50.2208 12.7235 0)
(49.7746 12.8791 0)
(49.724 13.1195 0)
(49.7136 12.9976 0)
(49.6901 12.9984 0)
(49.6962 12.9753 0)
(49.7088 12.9592 0)
(49.7239 12.9414 0)
(49.7364 12.9215 0)
(49.7466 12.8997 0)
(49.7555 12.8767 0)
(49.7646 12.853 0)
(49.7746 12.8292 0)
(49.7859 12.8056 0)
(49.7987 12.7825 0)
(49.8132 12.7603 0)
(49.8294 12.7393 0)
(49.8472 12.7198 0)
(49.8666 12.702 0)
(49.8874 12.6861 0)
(49.9094 12.6723 0)
(49.9324 12.6608 0)
(49.9563 12.6515 0)
(49.9808 12.6445 0)
(50.0058 12.6399 0)
(50.0311 12.6377 0)
(50.0563 12.6379 0)
(50.0814 12.6406 0)
(50.1058 12.6458 0)
(50.1292 12.6534 0)
(50.1509 12.6635 0)
(50.17 12.6755 0)
(50.1862 12.6889 0)
(50.1976 12.7027 0)
(50.2071 12.7147 0)
(50.2063 12.7261 0)
(50.2173 12.7223 0)
(49.7713 12.8813 0)
(49.7167 13.1225 0)
(49.7063 12.9974 0)
(49.6835 13.0014 0)
(49.6909 12.9779 0)
(49.7031 12.9625 0)
(49.7171 12.9444 0)
(49.728 12.9244 0)
(49.7366 12.9022 0)
(49.7441 12.8789 0)
(49.7518 12.8549 0)
(49.7605 12.8306 0)
(49.7706 12.8064 0)
(49.7822 12.7826 0)
(49.7956 12.7595 0)
(49.8107 12.7376 0)
(49.8276 12.717 0)
(49.8461 12.698 0)
(49.8662 12.681 0)
(49.8876 12.666 0)
(49.9102 12.6532 0)
(49.9338 12.6427 0)
(49.9582 12.6345 0)
(49.9831 12.6286 0)
(50.0084 12.6252 0)
(50.034 12.6241 0)
(50.0595 12.6254 0)
(50.0847 12.6293 0)
(50.1093 12.6357 0)
(50.1327 12.6448 0)
(50.1543 12.6563 0)
(50.1731 12.6699 0)
(50.1886 12.6848 0)
(50.199 12.7 0)
(50.2071 12.713 0)
(50.2049 12.7252 0)
(50.2137 12.7214 0)
(49.7678 12.8835 0)
(49.7095 13.1254 0)
(49.6994 12.9975 0)
(49.6774 13.0046 0)
(49.6859 12.9806 0)
(49.6977 12.9659 0)
(49.7104 12.9476 0)
(49.7198 12.9274 0)
(49.7269 12.905 0)
(49.7331 12.8815 0)
(49.7395 12.8571 0)
(49.7469 12.8324 0)
(49.7557 12.8076 0)
(49.7661 12.7831 0)
(49.7783 12.7593 0)
(49.7923 12.7364 0)
(49.8081 12.7148 0)
(49.8258 12.6947 0)
(49.8451 12.6765 0)
(49.8659 12.6603 0)
(49.888 12.6462 0)
(49.9112 12.6344 0)
(49.9353 12.625 0)
(49.9602 12.6179 0)
(49.9855 12.6132 0)
(50.0112 12.6108 0)
(50.037 12.6109 0)
(50.0628 12.6134 0)
(50.0882 12.6185 0)
(50.113 12.6262 0)
(50.1364 12.6366 0)
(50.1579 12.6495 0)
(50.1763 12.6647 0)
(50.1912 12.6812 0)
(50.2005 12.6978 0)
(50.2071 12.7119 0)
(50.2034 12.7249 0)
(50.2101 12.721 0)
(49.7642 12.8857 0)
(49.7025 13.1283 0)
(49.693 12.9977 0)
(49.6717 13.008 0)
(49.6813 12.9835 0)
(49.6925 12.9695 0)
(49.704 12.951 0)
(49.7119 12.9306 0)
(49.7176 12.9081 0)
(49.7224 12.8843 0)
(49.7275 12.8597 0)
(49.7336 12.8346 0)
(49.7411 12.8093 0)
(49.7503 12.7842 0)
(49.7612 12.7596 0)
(49.7741 12.7358 0)
(49.7889 12.7132 0)
(49.8056 12.692 0)
(49.8241 12.6726 0)
(49.8442 12.6552 0)
(49.8658 12.6399 0)
(49.8886 12.6268 0)
(49.9124 12.6161 0)
(49.937 12.6078 0)
(49.9623 12.6018 0)
(49.988 12.5982 0)
(50.014 12.597 0)
(50.0401 12.5981 0)
(50.0661 12.6018 0)
(50.0918 12.608 0)
(50.1168 12.617 0)
(50.1403 12.6288 0)
(50.1617 12.6433 0)
(50.1798 12.66 0)
(50.1939 12.6781 0)
(50.202 12.6961 0)
(50.2071 12.7113 0)
(50.2019 12.725 0)
(50.2064 12.721 0)
(49.7604 12.888 0)
(49.6957 13.1311 0)
(49.6869 12.998 0)
(49.6665 13.0116 0)
(49.6771 12.9864 0)
(49.6875 12.9731 0)
(49.6978 12.9544 0)
(49.7042 12.934 0)
(49.7085 12.9114 0)
(49.712 12.8875 0)
(49.7159 12.8626 0)
(49.7207 12.8372 0)
(49.727 12.8115 0)
(49.7348 12.7858 0)
(49.7445 12.7604 0)
(49.7562 12.7358 0)
(49.7699 12.7122 0)
(49.7856 12.69 0)
(49.8032 12.6694 0)
(49.8226 12.6508 0)
(49.8436 12.6342 0)
(49.8659 12.6199 0)
(49.8894 12.6079 0)
(49.9138 12.5983 0)
(49.9389 12.5911 0)
(49.9646 12.5862 0)
(49.9906 12.5837 0)
(50.0169 12.5836 0)
(50.0433 12.5858 0)
(50.0696 12.5906 0)
(50.0956 12.598 0)
(50.1208 12.6082 0)
(50.1444 12.6214 0)
(50.1657 12.6374 0)
(50.1834 12.6558 0)
(50.1967 12.6754 0)
(50.2037 12.6949 0)
(50.2072 12.7112 0)
(50.2004 12.7256 0)
(50.2027 12.7213 0)
(49.7565 12.8903 0)
(49.6891 13.1338 0)
(49.6812 12.9986 0)
(49.6618 13.0152 0)
(49.6731 12.9894 0)
(49.6827 12.9768 0)
(49.6918 12.9579 0)
(49.6968 12.9375 0)
(49.6998 12.9148 0)
(49.7021 12.8908 0)
(49.7047 12.8658 0)
(49.7083 12.8401 0)
(49.7132 12.814 0)
(49.7197 12.7878 0)
(49.7282 12.7618 0)
(49.7387 12.7363 0)
(49.7512 12.7118 0)
(49.7659 12.6885 0)
(49.7826 12.6668 0)
(49.8012 12.647 0)
(49.8215 12.6292 0)
(49.8433 12.6136 0)
(49.8663 12.6003 0)
(49.8904 12.5895 0)
(49.9154 12.581 0)
(49.941 12.5749 0)
(49.967 12.5711 0)
(49.9934 12.5697 0)
(50.02 12.5706 0)
(50.0467 12.5739 0)
(50.0733 12.5797 0)
(50.0995 12.5882 0)
(50.1249 12.5997 0)
(50.1487 12.6143 0)
(50.17 12.6319 0)
(50.1872 12.652 0)
(50.1997 12.6733 0)
(50.2055 12.6943 0)
(50.2072 12.7115 0)
(50.1988 12.7266 0)
(50.1989 12.7219 0)
(49.7525 12.8925 0)
(49.6827 13.1366 0)
(49.6759 12.9992 0)
(49.6574 13.019 0)
(49.6695 12.9925 0)
(49.6781 12.9806 0)
(49.686 12.9615 0)
(49.6897 12.9412 0)
(49.6914 12.9184 0)
(49.6925 12.8944 0)
(49.6939 12.8693 0)
(49.6962 12.8434 0)
(49.6998 12.8169 0)
(49.7051 12.7902 0)
(49.7122 12.7636 0)
(49.7214 12.7374 0)
(49.7328 12.712 0)
(49.7464 12.6877 0)
(49.7621 12.6649 0)
(49.7798 12.6439 0)
(49.7994 12.6248 0)
(49.8206 12.608 0)
(49.8432 12.5934 0)
(49.867 12.5812 0)
(49.8917 12.5715 0)
(49.9172 12.5641 0)
(49.9432 12.5592 0)
(49.9696 12.5565 0)
(49.9962 12.5561 0)
(50.0231 12.558 0)
(50.0501 12.5624 0)
(50.077 12.5692 0)
(50.1035 12.5789 0)
(50.1292 12.5916 0)
(50.1532 12.6076 0)
(50.1744 12.6267 0)
(50.1912 12.6485 0)
(50.2029 12.6716 0)
(50.2073 12.694 0)
(50.2073 12.7123 0)
(50.1972 12.7281 0)
(50.1951 12.7227 0)
(49.7483 12.8948 0)
(49.6767 13.1392 0)
(49.671 13.0001 0)
(49.6534 13.0229 0)
(49.666 12.9957 0)
(49.6737 12.9845 0)
(49.6805 12.9651 0)
(49.6828 12.9449 0)
(49.6834 12.9222 0)
(49.6832 12.8982 0)
(49.6834 12.8731 0)
(49.6845 12.847 0)
(49.6868 12.8202 0)
(49.6908 12.7931 0)
(49.6966 12.7659 0)
(49.7045 12.739 0)
(49.7147 12.7128 0)
(49.7271 12.6875 0)
(49.7418 12.6637 0)
(49.7586 12.6414 0)
(49.7774 12.6211 0)
(49.798 12.603 0)
(49.8201 12.5871 0)
(49.8435 12.5736 0)
(49.868 12.5626 0)
(49.8933 12.554 0)
(49.9192 12.5478 0)
(49.9455 12.5439 0)
(49.9722 12.5423 0)
(49.9992 12.543 0)
(50.0263 12.5459 0)
(50.0536 12.5512 0)
(50.0808 12.559 0)
(50.1077 12.5698 0)
(50.1337 12.5837 0)
(50.1578 12.6012 0)
(50.179 12.622 0)
(50.1955 12.6455 0)
(50.2062 12.6703 0)
(50.2092 12.6943 0)
(50.2075 12.7135 0)
(50.1955 12.7299 0)
(50.1912 12.7238 0)
(49.7441 12.897 0)
(49.6709 13.1418 0)
(49.6664 13.001 0)
(49.6497 13.0268 0)
(49.6628 12.9988 0)
(49.6695 12.9883 0)
(49.6751 12.9688 0)
(49.6762 12.9488 0)
(49.6757 12.9261 0)
(49.6744 12.9022 0)
(49.6734 12.877 0)
(49.6732 12.8508 0)
(49.6742 12.8238 0)
(49.6769 12.7963 0)
(49.6814 12.7687 0)
(49.688 12.7411 0)
(49.6969 12.7141 0)
(49.7081 12.688 0)
(49.7217 12.663 0)
(49.7376 12.6396 0)
(49.7555 12.6181 0)
(49.7754 12.5987 0)
(49.7969 12.5815 0)
(49.8199 12.5667 0)
(49.8441 12.5544 0)
(49.8692 12.5445 0)
(49.895 12.5371 0)
(49.9213 12.532 0)
(49.948 12.5292 0)
(49.975 12.5287 0)
(50.0022 12.5303 0)
(50.0296 12.5341 0)
(50.0571 12.5403 0)
(50.0847 12.5492 0)
(50.1119 12.561 0)
(50.1383 12.5761 0)
(50.1627 12.595 0)
(50.1838 12.6175 0)
(50.1999 12.6429 0)
(50.2097 12.6694 0)
(50.2113 12.695 0)
(50.2076 12.7151 0)
(50.1937 12.7321 0)
(50.1873 12.725 0)
(49.7397 12.8991 0)
(49.6653 13.1444 0)
(49.6621 13.0021 0)
(49.6464 13.0307 0)
(49.6597 13.002 0)
(49.6654 12.9922 0)
(49.67 12.9725 0)
(49.6699 12.9527 0)
(49.6682 12.9301 0)
(49.6659 12.9064 0)
(49.6637 12.8812 0)
(49.6623 12.8549 0)
(49.6621 12.8277 0)
(49.6634 12.8 0)
(49.6666 12.7718 0)
(49.6719 12.7437 0)
(49.6795 12.716 0)
(49.6895 12.6889 0)
(49.7019 12.663 0)
(49.7167 12.6385 0)
(49.7338 12.6157 0)
(49.7529 12.595 0)
(49.7738 12.5765 0)
(49.7963 12.5604 0)
(49.8202 12.5467 0)
(49.845 12.5356 0)
(49.8707 12.5269 0)
(49.897 12.5206 0)
(49.9236 12.5167 0)
(49.9506 12.515 0)
(49.9779 12.5155 0)
(50.0053 12.518 0)
(50.0329 12.5228 0)
(50.0608 12.5298 0)
(50.0887 12.5396 0)
(50.1163 12.5524 0)
(50.143 12.5688 0)
(50.1677 12.5892 0)
(50.1889 12.6133 0)
(50.2045 12.6406 0)
(50.2134 12.6689 0)
(50.2133 12.6961 0)
(50.2077 12.7171 0)
(50.1918 12.7347 0)
(50.1834 12.7264 0)
(49.7353 12.9013 0)
(49.6601 13.1469 0)
(49.6581 13.0032 0)
(49.6433 13.0347 0)
(49.6569 13.0052 0)
(49.6615 12.9961 0)
(49.6651 12.9763 0)
(49.6638 12.9567 0)
(49.6612 12.9343 0)
(49.6577 12.9106 0)
(49.6544 12.8855 0)
(49.6518 12.8592 0)
(49.6503 12.8319 0)
(49.6503 12.8039 0)
(49.6522 12.7754 0)
(49.6561 12.7468 0)
(49.6624 12.7184 0)
(49.6711 12.6905 0)
(49.6824 12.6636 0)
(49.6961 12.638 0)
(49.7122 12.6141 0)
(49.7304 12.592 0)
(49.7507 12.5722 0)
(49.7727 12.5547 0)
(49.7961 12.5397 0)
(49.8207 12.5273 0)
(49.8463 12.5173 0)
(49.8724 12.5099 0)
(49.8991 12.5048 0)
(49.9261 12.5019 0)
(49.9533 12.5013 0)
(49.9808 12.5027 0)
(50.0084 12.5061 0)
(50.0363 12.5117 0)
(50.0644 12.5196 0)
(50.0927 12.5302 0)
(50.1208 12.5441 0)
(50.1479 12.5617 0)
(50.1729 12.5835 0)
(50.1941 12.6094 0)
(50.2093 12.6386 0)
(50.2172 12.6688 0)
(50.2155 12.6976 0)
(50.2079 12.7194 0)
(50.1899 12.7376 0)
(50.1794 12.7278 0)
(49.7307 12.9034 0)
(49.6552 13.1494 0)
(49.6544 13.0045 0)
(49.6405 13.0386 0)
(49.6542 13.0083 0)
(49.6578 13 0)
(49.6603 12.98 0)
(49.658 12.9608 0)
(49.6544 12.9385 0)
(49.6499 12.915 0)
(49.6455 12.89 0)
(49.6417 12.8637 0)
(49.639 12.8364 0)
(49.6377 12.8082 0)
(49.6382 12.7794 0)
(49.6408 12.7503 0)
(49.6457 12.7212 0)
(49.6532 12.6926 0)
(49.6631 12.6648 0)
(49.6757 12.6382 0)
(49.6907 12.613 0)
(49.7081 12.5898 0)
(49.7276 12.5686 0)
(49.749 12.5498 0)
(49.772 12.5334 0)
(49.7963 12.5196 0)
(49.8217 12.5083 0)
(49.8478 12.4996 0)
(49.8744 12.4934 0)
(49.9014 12.4894 0)
(49.9287 12.4877 0)
(49.9561 12.488 0)
(49.9837 12.4904 0)
(50.0115 12.4947 0)
(50.0396 12.501 0)
(50.0681 12.5097 0)
(50.0968 12.5211 0)
(50.1253 12.536 0)
(50.153 12.5548 0)
(50.1783 12.5781 0)
(50.1996 12.6058 0)
(50.2143 12.6369 0)
(50.2211 12.669 0)
(50.2177 12.6994 0)
(50.208 12.722 0)
(50.1878 12.7408 0)
(50.1754 12.7293 0)
(49.7261 12.9054 0)
(49.6506 13.1518 0)
(49.651 13.0059 0)
(49.638 13.0426 0)
(49.6516 13.0114 0)
(49.6542 13.0039 0)
(49.6558 12.9838 0)
(49.6525 12.9648 0)
(49.6479 12.9427 0)
(49.6424 12.9195 0)
(49.637 12.8946 0)
(49.632 12.8684 0)
(49.6281 12.8411 0)
(49.6255 12.8127 0)
(49.6247 12.7837 0)
(49.6259 12.7542 0)
(49.6295 12.7246 0)
(49.6355 12.6953 0)
(49.6442 12.6666 0)
(49.6556 12.6389 0)
(49.6695 12.6127 0)
(49.6859 12.5882 0)
(49.7046 12.5657 0)
(49.7254 12.5455 0)
(49.7479 12.5277 0)
(49.7718 12.5125 0)
(49.797 12.5 0)
(49.823 12.49 0)
(49.8496 12.4825 0)
(49.8766 12.4774 0)
(49.9039 12.4746 0)
(49.9314 12.474 0)
(49.9589 12.4753 0)
(49.9867 12.4785 0)
(50.0147 12.4836 0)
(50.043 12.4906 0)
(50.0718 12.5 0)
(50.1009 12.5123 0)
(50.13 12.528 0)
(50.1581 12.548 0)
(50.1839 12.5729 0)
(50.2052 12.6024 0)
(50.2195 12.6356 0)
(50.2252 12.6696 0)
(50.22 12.7017 0)
(50.2081 12.725 0)
(50.1856 12.7443 0)
(50.1713 12.7309 0)
(49.7214 12.9074 0)
(49.6463 13.1541 0)
(49.6478 13.0073 0)
(49.6357 13.0465 0)
(49.6491 13.0146 0)
(49.6508 13.0077 0)
(49.6515 12.9876 0)
(49.6472 12.969 0)
(49.6417 12.9471 0)
(49.6352 12.9241 0)
(49.6288 12.8993 0)
(49.6227 12.8733 0)
(49.6176 12.8459 0)
(49.6137 12.8175 0)
(49.6116 12.7883 0)
(49.6114 12.7585 0)
(49.6136 12.7284 0)
(49.6183 12.6984 0)
(49.6257 12.669 0)
(49.6358 12.6404 0)
(49.6485 12.613 0)
(49.6639 12.5872 0)
(49.6817 12.5634 0)
(49.7018 12.5419 0)
(49.7237 12.5227 0)
(49.7472 12.5061 0)
(49.7721 12.4922 0)
(49.798 12.4809 0)
(49.8245 12.4722 0)
(49.8516 12.466 0)
(49.879 12.4621 0)
(49.9065 12.4604 0)
(49.9341 12.4607 0)
(49.9618 12.463 0)
(49.9897 12.467 0)
(50.0178 12.4728 0)
(50.0463 12.4806 0)
(50.0754 12.4906 0)
(50.105 12.5036 0)
(50.1347 12.5202 0)
(50.1634 12.5415 0)
(50.1896 12.5679 0)
(50.211 12.5993 0)
(50.2248 12.6346 0)
(50.2293 12.6705 0)
(50.2223 12.7043 0)
(50.2082 12.7282 0)
(50.1833 12.7481 0)
(50.1672 12.7324 0)
(49.7166 12.9093 0)
(49.6423 13.1564 0)
(49.6449 13.0089 0)
(49.6336 13.0504 0)
(49.6468 13.0176 0)
(49.6475 13.0116 0)
(49.6474 12.9913 0)
(49.6422 12.9731 0)
(49.6358 12.9514 0)
(49.6284 12.9287 0)
(49.621 12.9042 0)
(49.6138 12.8783 0)
(49.6075 12.851 0)
(49.6024 12.8226 0)
(49.5989 12.7932 0)
(49.5974 12.7631 0)
(49.5982 12.7326 0)
(49.6015 12.7021 0)
(49.6075 12.6719 0)
(49.6163 12.6424 0)
(49.6278 12.6139 0)
(49.6421 12.587 0)
(49.659 12.5619 0)
(49.6782 12.5389 0)
(49.6995 12.5184 0)
(49.7226 12.5004 0)
(49.7471 12.485 0)
(49.7728 12.4724 0)
(49.7993 12.4624 0)
(49.8264 12.455 0)
(49.8539 12.45 0)
(49.8815 12.4473 0)
(49.9092 12.4467 0)
(49.9369 12.448 0)
(49.9647 12.4511 0)
(49.9926 12.4559 0)
(50.0209 12.4624 0)
(50.0496 12.4708 0)
(50.0791 12.4814 0)
(50.1092 12.4951 0)
(50.1394 12.5126 0)
(50.1689 12.535 0)
(50.1956 12.563 0)
(50.2171 12.5964 0)
(50.2303 12.6338 0)
(50.2337 12.6718 0)
(50.2246 12.7072 0)
(50.2082 12.7317 0)
(50.1808 12.7521 0)
(50.1631 12.7338 0)
(49.7118 12.9112 0)
(49.6386 13.1586 0)
(49.6421 13.0105 0)
(49.6317 13.0542 0)
(49.6446 13.0207 0)
(49.6444 13.0153 0)
(49.6434 12.995 0)
(49.6374 12.9772 0)
(49.6302 12.9558 0)
(49.6219 12.9334 0)
(49.6135 12.9091 0)
(49.6053 12.8834 0)
(49.5978 12.8562 0)
(49.5915 12.8278 0)
(49.5867 12.7984 0)
(49.5838 12.7681 0)
(49.5832 12.7373 0)
(49.5851 12.7062 0)
(49.5897 12.6753 0)
(49.5971 12.645 0)
(49.6074 12.6155 0)
(49.6205 12.5875 0)
(49.6363 12.5611 0)
(49.6547 12.5367 0)
(49.6753 12.5147 0)
(49.6978 12.4953 0)
(49.722 12.4785 0)
(49.7475 12.4644 0)
(49.7739 12.4531 0)
(49.801 12.4444 0)
(49.8286 12.4383 0)
(49.8564 12.4346 0)
(49.8842 12.4331 0)
(49.912 12.4335 0)
(49.9398 12.4358 0)
(49.9676 12.4397 0)
(49.9955 12.4452 0)
(50.0239 12.4523 0)
(50.0529 12.4613 0)
(50.0827 12.4724 0)
(50.1133 12.4867 0)
(50.1443 12.5051 0)
(50.1744 12.5287 0)
(50.2016 12.5583 0)
(50.2233 12.5936 0)
(50.236 12.6333 0)
(50.2381 12.6733 0)
(50.2269 12.7105 0)
(50.2082 12.7355 0)
(50.1781 12.7564 0)
(50.1589 12.7352 0)
(49.707 12.913 0)
(49.6353 13.1608 0)
(49.6395 13.0122 0)
(49.6299 13.0579 0)
(49.6425 13.0237 0)
(49.6414 13.0191 0)
(49.6397 12.9988 0)
(49.6328 12.9814 0)
(49.6249 12.9602 0)
(49.6157 12.9381 0)
(49.6063 12.9141 0)
(49.5971 12.8886 0)
(49.5885 12.8616 0)
(49.581 12.8333 0)
(49.5749 12.8038 0)
(49.5707 12.7734 0)
(49.5687 12.7423 0)
(49.5691 12.7108 0)
(49.5723 12.6793 0)
(49.5783 12.6481 0)
(49.5873 12.6178 0)
(49.5991 12.5886 0)
(49.6139 12.5609 0)
(49.6312 12.5353 0)
(49.6511 12.5118 0)
(49.673 12.4909 0)
(49.6967 12.4726 0)
(49.722 12.4571 0)
(49.7483 12.4444 0)
(49.7754 12.4345 0)
(49.8031 12.4271 0)
(49.831 12.4223 0)
(49.859 12.4198 0)
(49.887 12.4194 0)
(49.9148 12.4209 0)
(49.9426 12.4241 0)
(49.9704 12.4288 0)
(49.9984 12.435 0)
(50.0268 12.4426 0)
(50.056 12.452 0)
(50.0862 12.4636 0)
(50.1174 12.4785 0)
(50.1491 12.4977 0)
(50.18 12.5225 0)
(50.2079 12.5537 0)
(50.2297 12.5911 0)
(50.2419 12.633 0)
(50.2426 12.6751 0)
(50.2292 12.7141 0)
(50.2081 12.7395 0)
(50.1753 12.7609 0)
(50.1547 12.7365 0)
(49.7021 12.9147 0)
(49.6322 13.1629 0)
(49.6371 13.0139 0)
(49.6283 13.0616 0)
(49.6404 13.0267 0)
(49.6386 13.0228 0)
(49.6361 13.0024 0)
(49.6285 12.9855 0)
(49.6198 12.9646 0)
(49.6098 12.9428 0)
(49.5995 12.9191 0)
(49.5893 12.8939 0)
(49.5796 12.8671 0)
(49.5709 12.8389 0)
(49.5636 12.8094 0)
(49.558 12.7789 0)
(49.5546 12.7476 0)
(49.5536 12.7157 0)
(49.5553 12.6837 0)
(49.5599 12.6518 0)
(49.5675 12.6206 0)
(49.5781 12.5903 0)
(49.5916 12.5615 0)
(49.608 12.5345 0)
(49.6269 12.5096 0)
(49.6482 12.4872 0)
(49.6714 12.4674 0)
(49.6963 12.4505 0)
(49.7225 12.4363 0)
(49.7496 12.425 0)
(49.7773 12.4164 0)
(49.8054 12.4105 0)
(49.8336 12.4069 0)
(49.8618 12.4056 0)
(49.8898 12.4063 0)
(49.9177 12.4088 0)
(49.9455 12.4128 0)
(49.9732 12.4183 0)
(50.0012 12.425 0)
(50.0297 12.4332 0)
(50.0591 12.443 0)
(50.0897 12.455 0)
(50.1216 12.4704 0)
(50.154 12.4904 0)
(50.1858 12.5164 0)
(50.2142 12.5493 0)
(50.2362 12.5887 0)
(50.2479 12.633 0)
(50.2472 12.6772 0)
(50.2315 12.718 0)
(50.208 12.7437 0)
(50.1722 12.7657 0)
(50.1504 12.7377 0)
(49.6971 12.9164 0)
(49.6295 13.165 0)
(49.6349 13.0157 0)
(49.6269 13.0651 0)
(49.6385 13.0296 0)
(49.6358 13.0264 0)
(49.6327 13.0061 0)
(49.6243 12.9896 0)
(49.615 12.969 0)
(49.6042 12.9476 0)
(49.593 12.9241 0)
(49.5818 12.8992 0)
(49.5711 12.8727 0)
(49.5612 12.8446 0)
(49.5527 12.8153 0)
(49.5458 12.7847 0)
(49.541 12.7533 0)
(49.5386 12.7211 0)
(49.5388 12.6886 0)
(49.5419 12.6561 0)
(49.5481 12.624 0)
(49.5573 12.5928 0)
(49.5696 12.5628 0)
(49.5848 12.5345 0)
(49.6028 12.5082 0)
(49.6233 12.4843 0)
(49.646 12.463 0)
(49.6705 12.4445 0)
(49.6964 12.4288 0)
(49.7234 12.4161 0)
(49.7512 12.4062 0)
(49.7795 12.399 0)
(49.8079 12.3944 0)
(49.8364 12.3921 0)
(49.8647 12.392 0)
(49.8928 12.3938 0)
(49.9206 12.3972 0)
(49.9483 12.402 0)
(49.976 12.4082 0)
(50.0039 12.4155 0)
(50.0325 12.424 0)
(50.0621 12.4342 0)
(50.0932 12.4466 0)
(50.1257 12.4624 0)
(50.159 12.4832 0)
(50.1916 12.5104 0)
(50.2207 12.5449 0)
(50.2429 12.5865 0)
(50.254 12.6331 0)
(50.252 12.6796 0)
(50.2338 12.7221 0)
(50.2078 12.7481 0)