/*--------------------------------*- C++ -*----------------------------------*\
  =========                 |
  \\      /  F ield         | OpenFOAM: The Open Source CFD Toolbox
   \\    /   O peration     | Website:  https://openfoam.org
    \\  /    A nd           | Version:  7
     \\/     M anipulation  |
\*---------------------------------------------------------------------------*/
FoamFile
{
    version     2.0;
    format      ascii;
    class       volScalarField;
    location    "1000";
    object      yPlus;
}
// * * * * * * * * * * * * * * * * * * * * * * * * * * * * * * * * * * * * * //

dimensions      [0 0 0 0 0 0 0];

internalField   uniform 0;

boundaryField
{
    inlet-l
    {
        type            calculated;
        value           uniform 0;
    }
    airfoil-l1
    {
        type            calculated;
        value           nonuniform 0();
    }
    empty-1
    {
        type            empty;
    }
    empty-2
    {
        type            empty;
    }
    wall-l1
    {
        type            calculated;
        value           nonuniform List<scalar> 
67
(
128.467
128.324
127.984
127.695
127.458
127.23
126.991
126.754
126.522
126.298
126.078
125.861
125.655
125.452
125.248
125.048
124.86
124.674
124.486
124.303
124.132
123.962
123.791
123.629
123.473
123.319
123.171
123.018
122.878
122.741
122.605
122.477
122.348
122.227
122.101
121.987
121.875
121.765
121.66
121.56
121.461
121.366
121.275
121.186
121.103
121.02
120.941
120.866
120.793
120.725
120.659
120.595
120.537
120.479
120.425
120.374
120.325
120.279
120.239
120.192
120.156
120.122
120.089
120.062
120.035
120.009
119.998
)
;
    }
    airfoil-l2
    {
        type            calculated;
        value           nonuniform List<scalar> 
66
(
22.0721
22.3299
22.5467
22.7311
22.8895
23.0259
23.149
23.2589
23.3541
23.4384
23.5122
23.5783
23.6413
23.6958
23.7448
23.7891
23.8293
23.8657
23.9002
23.9316
23.9579
23.9855
24.0085
24.0307
24.0523
24.0697
24.0856
24.1014
24.1156
24.1263
24.1397
24.1495
24.1582
24.1661
24.1747
24.1852
24.1921
24.1933
24.1975
24.2064
24.2098
24.2142
24.2193
24.2209
24.2222
24.2248
24.228
24.2282
24.2277
24.2273
24.228
24.231
24.2322
24.2303
24.2279
24.2255
24.2226
24.2197
24.2181
24.217
24.2155
24.2123
24.2166
24.2016
24.2721
24.0273
)
;
    }
    empty-3
    {
        type            empty;
    }
    empty-4
    {
        type            empty;
    }
    wall-l2
    {
        type            calculated;
        value           nonuniform List<scalar> 
74
(
119.892
119.818
119.763
119.69
119.619
119.564
119.526
119.5
119.487
119.488
119.504
119.535
119.581
119.644
119.722
119.818
119.93
120.06
120.207
120.371
120.553
120.753
120.97
121.204
121.454
121.721
122.003
122.3
122.61
122.933
123.266
123.609
123.96
124.317
124.678
125.04
125.402
125.759
126.111
126.453
126.782
127.095
127.389
127.658
127.9
128.11
128.283
128.415
128.501
128.535
128.511
128.425
128.269
128.038
127.723
127.317
126.813
126.2
125.47
124.61
123.609
122.454
121.128
119.613
117.889
115.931
113.712
111.202
108.372
105.221
101.778
98.3723
95.7383
95.5455
)
;
    }
    outlet-l
    {
        type            calculated;
        value           uniform 0;
    }
    empty-5
    {
        type            empty;
    }
    empty-6
    {
        type            empty;
    }
    outlet-h
    {
        type            calculated;
        value           nonuniform 0();
    }
    wall-h2
    {
        type            calculated;
        value           nonuniform 0();
    }
    empty-7
    {
        type            empty;
    }
    empty-8
    {
        type            empty;
    }
    airfoil-h2
    {
        type            calculated;
        value           nonuniform 0();
    }
    wall-h1
    {
        type            calculated;
        value           nonuniform 0();
    }
    empty-9
    {
        type            empty;
    }
    empty-10
    {
        type            empty;
    }
    inlet-h
    {
        type            calculated;
        value           nonuniform 0();
    }
    airfoil-h1
    {
        type            calculated;
        value           nonuniform 0();
    }
    empty-11
    {
        type            empty;
    }
    empty-12
    {
        type            empty;
    }
    procBoundary1to0
    {
        type            processor;
        value           uniform 0;
    }
    procBoundary1to2
    {
        type            processor;
        value           uniform 0;
    }
}


// ************************************************************************* //
