# Force coefficient bins
# bins        : 31
# start       : 7.799950e-05
# delta       : 3.204169e-02
# direction   : (1.000000e+00 0.000000e+00 0.000000e+00)
# x co-ords  :	3.211969e-02	6.416137e-02	9.620306e-02	1.282448e-01	1.602864e-01	1.923281e-01	2.243698e-01	2.564115e-01	2.884532e-01	3.204949e-01	3.525366e-01	3.845783e-01	4.166199e-01	4.486616e-01	4.807033e-01	5.127450e-01	5.447867e-01	5.768284e-01	6.088701e-01	6.409118e-01	6.729534e-01	7.049951e-01	7.370368e-01	7.690785e-01	8.011202e-01	8.331619e-01	8.652036e-01	8.972453e-01	9.292869e-01	9.613286e-01	9.933703e-01
# y co-ords  :	0.000000e+00	0.000000e+00	0.000000e+00	0.000000e+00	0.000000e+00	0.000000e+00	0.000000e+00	0.000000e+00	0.000000e+00	0.000000e+00	0.000000e+00	0.000000e+00	0.000000e+00	0.000000e+00	0.000000e+00	0.000000e+00	0.000000e+00	0.000000e+00	0.000000e+00	0.000000e+00	0.000000e+00	0.000000e+00	0.000000e+00	0.000000e+00	0.000000e+00	0.000000e+00	0.000000e+00	0.000000e+00	0.000000e+00	0.000000e+00	0.000000e+00
# z co-ords  :	0.000000e+00	0.000000e+00	0.000000e+00	0.000000e+00	0.000000e+00	0.000000e+00	0.000000e+00	0.000000e+00	0.000000e+00	0.000000e+00	0.000000e+00	0.000000e+00	0.000000e+00	0.000000e+00	0.000000e+00	0.000000e+00	0.000000e+00	0.000000e+00	0.000000e+00	0.000000e+00	0.000000e+00	0.000000e+00	0.000000e+00	0.000000e+00	0.000000e+00	0.000000e+00	0.000000e+00	0.000000e+00	0.000000e+00	0.000000e+00	0.000000e+00
# Time        	Cm(0)         	Cd(0)         	Cl(0)         	Cm(1)         	Cd(1)         	Cl(1)         	Cm(2)         	Cd(2)         	Cl(2)         	Cm(3)         	Cd(3)         	Cl(3)         	Cm(4)         	Cd(4)         	Cl(4)         	Cm(5)         	Cd(5)         	Cl(5)         	Cm(6)         	Cd(6)         	Cl(6)         	Cm(7)         	Cd(7)         	Cl(7)         	Cm(8)         	Cd(8)         	Cl(8)         	Cm(9)         	Cd(9)         	Cl(9)         	Cm(10)        	Cd(10)        	Cl(10)        	Cm(11)        	Cd(11)        	Cl(11)        	Cm(12)        	Cd(12)        	Cl(12)        	Cm(13)        	Cd(13)        	Cl(13)        	Cm(14)        	Cd(14)        	Cl(14)        	Cm(15)        	Cd(15)        	Cl(15)        	Cm(16)        	Cd(16)        	Cl(16)        	Cm(17)        	Cd(17)        	Cl(17)        	Cm(18)        	Cd(18)        	Cl(18)        	Cm(19)        	Cd(19)        	Cl(19)        	Cm(20)        	Cd(20)        	Cl(20)        	Cm(21)        	Cd(21)        	Cl(21)        	Cm(22)        	Cd(22)        	Cl(22)        	Cm(23)        	Cd(23)        	Cl(23)        	Cm(24)        	Cd(24)        	Cl(24)        	Cm(25)        	Cd(25)        	Cl(25)        	Cm(26)        	Cd(26)        	Cl(26)        	Cm(27)        	Cd(27)        	Cl(27)        	Cm(28)        	Cd(28)        	Cl(28)        	Cm(29)        	Cd(29)        	Cl(29)        	Cm(30)        	Cd(30)        	Cl(30)        
1             	-1.286215e-01	1.347042e+00	2.446985e-01	-2.676308e-01	1.784496e+00	8.790607e-01	-3.961820e-01	2.127028e+00	1.612566e+00	-4.925666e-01	2.388509e+00	2.302526e+00	-5.731840e-01	2.640453e+00	3.060588e+00	-6.249119e-01	2.856436e+00	3.769834e+00	-6.512775e-01	3.051698e+00	4.444166e+00	-6.550699e-01	3.162861e+00	4.842160e+00	-6.366772e-01	3.372926e+00	5.615723e+00	-6.151127e-01	3.474272e+00	5.995543e+00	-5.483160e-01	3.672757e+00	6.745045e+00	-5.034713e-01	3.770588e+00	7.115166e+00	-3.918966e-01	3.964422e+00	7.846155e+00	-3.255908e-01	4.060649e+00	8.206857e+00	-1.730704e-01	4.252009e+00	8.918039e+00	4.403456e-03	4.442034e+00	9.614653e+00	1.018580e-01	4.536512e+00	9.957075e+00	3.127853e-01	4.724162e+00	1.062909e+01	5.431346e-01	4.909718e+00	1.128277e+01	7.904277e-01	5.092632e+00	1.191655e+01	1.052045e+00	5.272276e+00	1.252882e+01	1.187362e+00	5.360650e+00	1.282638e+01	1.465184e+00	5.534027e+00	1.340323e+01	1.750022e+00	5.702218e+00	1.395420e+01	2.038558e+00	5.864315e+00	1.447724e+01	2.327243e+00	6.019349e+00	1.497019e+01	2.612108e+00	6.166202e+00	1.543042e+01	3.022305e+00	6.368304e+00	1.605252e+01	3.276322e+00	6.488541e+00	1.641564e+01	3.506380e+00	6.594606e+00	1.673044e+01	3.785005e+00	6.721320e+00	1.709264e+01
2             	-5.992219e-02	5.262233e-01	1.403715e-01	-1.269627e-01	7.191439e-01	4.518112e-01	-1.968798e-01	8.894802e-01	8.555766e-01	-2.523054e-01	1.029310e+00	1.255281e+00	-2.993164e-01	1.169463e+00	1.699030e+00	-3.288636e-01	1.290266e+00	2.104110e+00	-3.435510e-01	1.399712e+00	2.481673e+00	-3.459046e-01	1.467858e+00	2.729641e+00	-3.341283e-01	1.600783e+00	3.224380e+00	-3.204196e-01	1.665185e+00	3.465676e+00	-2.787400e-01	1.790153e+00	3.933204e+00	-2.512975e-01	1.850860e+00	4.159382e+00	-1.844344e-01	1.968956e+00	4.596990e+00	-1.454689e-01	2.026407e+00	4.808658e+00	-5.756440e-02	2.138185e+00	5.218178e+00	4.221299e-02	2.245796e+00	5.609634e+00	9.601393e-02	2.298010e+00	5.798624e+00	2.103273e-01	2.399145e+00	6.162993e+00	3.321281e-01	2.495754e+00	6.509057e+00	4.597191e-01	2.587719e+00	6.836711e+00	5.913648e-01	2.674864e+00	7.145690e+00	6.581889e-01	2.716590e+00	7.293131e+00	7.928633e-01	2.796317e+00	7.573923e+00	9.276445e-01	2.871039e+00	7.835944e+00	1.060934e+00	2.940645e+00	8.078986e+00	1.191098e+00	3.004996e+00	8.302741e+00	1.316364e+00	3.063879e+00	8.506655e+00	1.490749e+00	3.141295e+00	8.773457e+00	1.594390e+00	3.184893e+00	8.923089e+00	1.683604e+00	3.220872e+00	9.046564e+00	1.776857e+00	3.256599e+00	9.169722e+00
3             	2.657346e-02	-5.455748e-01	2.065812e-02	6.214543e-02	-7.087078e-01	-1.280291e-01	9.398992e-02	-8.208073e-01	-3.024159e-01	1.174928e-01	-8.988283e-01	-4.669920e-01	1.380384e-01	-9.707763e-01	-6.586756e-01	1.536669e-01	-1.036861e+00	-8.750752e-01	1.626505e-01	-1.099064e+00	-1.098188e+00	1.632624e-01	-1.118815e+00	-1.160149e+00	1.605877e-01	-1.151663e+00	-1.270307e+00	1.570071e-01	-1.168653e+00	-1.333778e+00	1.450666e-01	-1.201956e+00	-1.468687e+00	1.367146e-01	-1.218228e+00	-1.538387e+00	1.150818e-01	-1.250856e+00	-1.681688e+00	1.016424e-01	-1.267660e+00	-1.755681e+00	6.917034e-02	-1.302994e+00	-1.908683e+00	2.881371e-02	-1.341236e+00	-2.068523e+00	5.463051e-03	-1.361661e+00	-2.151250e+00	-4.807595e-02	-1.405484e+00	-2.322890e+00	-1.113361e-01	-1.453612e+00	-2.503183e+00	-1.853316e-01	-1.506706e+00	-2.693263e+00	-2.694966e-01	-1.563968e+00	-2.890395e+00	-3.149236e-01	-1.593715e+00	-2.990303e+00	-4.114857e-01	-1.654659e+00	-3.190634e+00	-5.145399e-01	-1.716780e+00	-3.389655e+00	-6.227225e-01	-1.779271e+00	-3.585319e+00	-7.347426e-01	-1.841483e+00	-3.776059e+00	-8.492830e-01	-1.902835e+00	-3.960495e+00	-1.025517e+00	-1.993704e+00	-4.226555e+00	-1.149555e+00	-2.055989e+00	-4.402846e+00	-1.286609e+00	-2.124183e+00	-4.588918e+00	-1.531857e+00	-2.246156e+00	-4.904067e+00
4             	8.549709e-02	-9.875820e-01	-1.326417e-01	1.503670e-01	-1.236338e+00	-4.171610e-01	2.155886e-01	-1.428884e+00	-7.848585e-01	2.676794e-01	-1.576757e+00	-1.156432e+00	3.142565e-01	-1.723051e+00	-1.595229e+00	3.485043e-01	-1.860942e+00	-2.069610e+00	3.654995e-01	-1.980328e+00	-2.488743e+00	3.671423e-01	-2.031397e+00	-2.658466e+00	3.587575e-01	-2.130455e+00	-3.009557e+00	3.484931e-01	-2.178908e+00	-3.190829e+00	3.165308e-01	-2.271694e+00	-3.550911e+00	2.952784e-01	-2.316000e+00	-3.727153e+00	2.428999e-01	-2.401728e+00	-4.072229e+00	2.118921e-01	-2.443732e+00	-4.241897e+00	1.406284e-01	-2.526803e+00	-4.576192e+00	5.776360e-02	-2.608921e+00	-4.903471e+00	1.213965e-02	-2.649800e+00	-5.064775e+00	-8.742309e-02	-2.731683e+00	-5.383913e+00	-1.978038e-01	-2.814046e+00	-5.698997e+00	-3.193640e-01	-2.897859e+00	-6.012230e+00	-4.508006e-01	-2.982458e+00	-6.321414e+00	-5.195389e-01	-3.024648e+00	-6.473330e+00	-6.617018e-01	-3.108137e+00	-6.769959e+00	-8.088379e-01	-3.190060e+00	-7.055941e+00	-9.593535e-01	-3.269974e+00	-7.330066e+00	-1.111967e+00	-3.347701e+00	-7.591814e+00	-1.265134e+00	-3.422925e+00	-7.840282e+00	-1.494289e+00	-3.531535e+00	-8.188872e+00	-1.646906e+00	-3.602207e+00	-8.407418e+00	-1.805953e+00	-3.675832e+00	-8.624851e+00	-2.083817e+00	-3.807914e+00	-8.983386e+00
5             	6.345345e-02	-5.216493e-01	-1.504953e-01	8.352368e-02	-5.846863e-01	-2.421410e-01	1.052095e-01	-6.385761e-01	-3.674545e-01	1.254240e-01	-6.865409e-01	-5.144402e-01	1.460732e-01	-7.418698e-01	-7.121765e-01	1.636082e-01	-8.042330e-01	-9.573964e-01	1.687280e-01	-8.381627e-01	-1.068535e+00	1.689473e-01	-8.474838e-01	-1.089524e+00	1.663318e-01	-8.789261e-01	-1.196082e+00	1.625655e-01	-8.968611e-01	-1.262761e+00	1.510477e-01	-9.308709e-01	-1.392772e+00	1.435469e-01	-9.470159e-01	-1.454930e+00	1.255291e-01	-9.778705e-01	-1.573495e+00	1.151953e-01	-9.925868e-01	-1.629903e+00	9.227263e-02	-1.020581e+00	-1.737252e+00	6.705356e-02	-1.046311e+00	-1.836809e+00	5.391765e-02	-1.058149e+00	-1.883268e+00	2.702307e-02	-1.079794e+00	-1.969726e+00	-1.009107e-05	-1.098649e+00	-2.047364e+00	-2.643607e-02	-1.114676e+00	-2.116143e+00	-5.200802e-02	-1.128245e+00	-2.177149e+00	-6.422560e-02	-1.134053e+00	-2.204621e+00	-8.720046e-02	-1.143747e+00	-2.253642e+00	-1.078466e-01	-1.150956e+00	-2.294969e+00	-1.259361e-01	-1.155926e+00	-2.329200e+00	-1.412983e-01	-1.158909e+00	-2.356879e+00	-1.543826e-01	-1.160522e+00	-2.379417e+00	-1.698727e-01	-1.161048e+00	-2.404860e+00	-1.780081e-01	-1.160821e+00	-2.417591e+00	-1.850280e-01	-1.160741e+00	-2.428087e+00	-2.219861e-01	-1.176717e+00	-2.475755e+00
6             	-1.432871e-02	2.791990e-01	-4.409570e-03	-5.085745e-02	4.196882e-01	1.550815e-01	-8.265208e-02	5.204951e-01	3.319319e-01	-1.036364e-01	5.903585e-01	4.783765e-01	-1.178912e-01	6.479700e-01	6.079624e-01	-1.250746e-01	6.884457e-01	7.057574e-01	-1.351057e-01	7.590652e-01	9.766979e-01	-1.365160e-01	7.981430e-01	1.125982e+00	-1.317927e-01	8.519732e-01	1.327093e+00	-1.272873e-01	8.728908e-01	1.406273e+00	-1.135672e-01	9.119101e-01	1.560472e+00	-1.041617e-01	9.307708e-01	1.638457e+00	-8.018413e-02	9.679308e-01	1.796558e+00	-6.566913e-02	9.864243e-01	1.876164e+00	-3.175482e-02	1.023622e+00	2.035626e+00	8.585137e-03	1.061637e+00	2.195249e+00	3.129266e-02	1.081268e+00	2.275649e+00	8.202075e-02	1.122149e+00	2.438303e+00	1.407240e-01	1.166063e+00	2.605683e+00	2.080536e-01	1.213438e+00	2.778793e+00	2.837528e-01	1.263890e+00	2.956284e+00	3.242748e-01	1.289857e+00	3.045513e+00	4.108803e-01	1.343479e+00	3.225399e+00	5.037617e-01	1.398523e+00	3.404953e+00	6.031073e-01	1.455232e+00	3.584759e+00	7.075754e-01	1.512786e+00	3.762710e+00	8.166374e-01	1.571004e+00	3.938337e+00	9.801392e-01	1.654740e+00	4.185405e+00	1.087986e+00	1.708065e+00	4.338915e+00	1.195071e+00	1.759976e+00	4.484761e+00	1.334277e+00	1.825553e+00	4.665335e+00
7             	-8.082006e-02	7.615446e-01	1.688473e-01	-1.350561e-01	9.314198e-01	4.147387e-01	-1.772122e-01	1.048695e+00	6.536982e-01	-2.067162e-01	1.135281e+00	8.628706e-01	-2.286750e-01	1.212633e+00	1.066214e+00	-2.444081e-01	1.282759e+00	1.287453e+00	-2.597258e-01	1.385128e+00	1.684201e+00	-2.614050e-01	1.432781e+00	1.861529e+00	-2.549560e-01	1.506421e+00	2.132920e+00	-2.484244e-01	1.536860e+00	2.247846e+00	-2.283050e-01	1.594636e+00	2.474128e+00	-2.149571e-01	1.622045e+00	2.584694e+00	-1.822309e-01	1.674793e+00	2.800211e+00	-1.630955e-01	1.700370e+00	2.904863e+00	-1.197079e-01	1.750390e+00	3.108349e+00	-6.992032e-02	1.799293e+00	3.304930e+00	-4.261559e-02	1.823598e+00	3.401431e+00	1.664696e-02	1.872066e+00	3.591341e+00	8.228322e-02	1.920879e+00	3.778632e+00	1.547160e-01	1.970765e+00	3.965202e+00	2.330652e-01	2.021234e+00	4.149420e+00	2.740335e-01	2.046427e+00	4.239918e+00	3.594847e-01	2.096890e+00	4.418087e+00	4.486464e-01	2.146968e+00	4.591214e+00	5.412526e-01	2.196779e+00	4.759657e+00	6.366446e-01	2.246158e+00	4.923012e+00	7.333137e-01	2.294445e+00	5.079593e+00	8.721921e-01	2.360473e+00	5.290870e+00	9.593449e-01	2.400198e+00	5.415847e+00	1.046415e+00	2.439471e+00	5.535186e+00	1.199476e+00	2.510451e+00	5.733502e+00
8             	-9.756131e-02	6.654464e-01	2.651026e-01	-1.252678e-01	7.050814e-01	4.023955e-01	-1.397541e-01	7.274528e-01	4.888600e-01	-1.478911e-01	7.451440e-01	5.478230e-01	-1.517359e-01	7.591807e-01	5.827201e-01	-1.592169e-01	7.873420e-01	6.959073e-01	-1.697254e-01	8.496248e-01	9.617934e-01	-1.704936e-01	8.707864e-01	1.043835e+00	-1.678907e-01	8.995638e-01	1.151755e+00	-1.653148e-01	9.114521e-01	1.196952e+00	-1.568599e-01	9.359991e-01	1.291498e+00	-1.511404e-01	9.483616e-01	1.338634e+00	-1.382593e-01	9.714528e-01	1.422953e+00	-1.315709e-01	9.819635e-01	1.459053e+00	-1.179984e-01	1.001226e+00	1.521749e+00	-1.042487e-01	1.018393e+00	1.575045e+00	-9.735021e-02	1.026217e+00	1.598941e+00	-8.380282e-02	1.040175e+00	1.641578e+00	-7.134996e-02	1.051454e+00	1.676574e+00	-6.017439e-02	1.060393e+00	1.705024e+00	-5.098215e-02	1.066870e+00	1.726499e+00	-4.718614e-02	1.069258e+00	1.734855e+00	-4.118827e-02	1.072559e+00	1.747431e+00	-3.744419e-02	1.073996e+00	1.754879e+00	-3.685557e-02	1.073149e+00	1.756272e+00	-3.891284e-02	1.070591e+00	1.753151e+00	-4.518887e-02	1.065511e+00	1.743535e+00	-6.649327e-02	1.051260e+00	1.712326e+00	-8.574378e-02	1.039438e+00	1.685555e+00	-1.062180e-01	1.027484e+00	1.658189e+00	-9.051100e-02	1.035008e+00	1.677883e+00
9             	8.169964e-03	-2.724770e-01	3.321046e-02	1.758035e-02	-3.598555e-01	5.190721e-03	3.129913e-02	-4.191659e-01	-6.746041e-02	4.460233e-02	-4.624498e-01	-1.614313e-01	5.915103e-02	-5.071407e-01	-2.988167e-01	6.123634e-02	-5.228726e-01	-3.152557e-01	5.772468e-02	-5.123502e-01	-2.335455e-01	5.785861e-02	-5.176347e-01	-2.459105e-01	5.677674e-02	-5.324463e-01	-2.960113e-01	5.530353e-02	-5.395214e-01	-3.221978e-01	5.194903e-02	-5.483835e-01	-3.606438e-01	4.971459e-02	-5.517791e-01	-3.796260e-01	4.296474e-02	-5.586415e-01	-4.251561e-01	3.800288e-02	-5.627032e-01	-4.530911e-01	2.482964e-02	-5.722263e-01	-5.164498e-01	7.732231e-03	-5.834728e-01	-5.855144e-01	-2.362192e-03	-5.899297e-01	-6.219282e-01	-2.593732e-02	-6.048307e-01	-6.986906e-01	-5.520151e-02	-6.233281e-01	-7.830967e-01	-9.049916e-02	-6.453018e-01	-8.746726e-01	-1.320213e-01	-6.705233e-01	-9.727140e-01	-1.547116e-01	-6.839554e-01	-1.023001e+00	-2.039931e-01	-7.124351e-01	-1.125929e+00	-2.577714e-01	-7.425257e-01	-1.230400e+00	-3.171782e-01	-7.750379e-01	-1.338303e+00	-3.811190e-01	-8.091858e-01	-1.447522e+00	-4.508240e-01	-8.457559e-01	-1.559928e+00	-5.655781e-01	-9.047320e-01	-1.733220e+00	-6.430839e-01	-9.434549e-01	-1.843440e+00	-7.250790e-01	-9.840392e-01	-1.954886e+00	-8.214721e-01	-1.030456e+00	-2.079875e+00
10            	9.887966e-02	-8.767120e-01	-2.154363e-01	1.222955e-01	-9.746717e-01	-3.142867e-01	1.383223e-01	-1.026385e+00	-4.035058e-01	1.533048e-01	-1.066247e+00	-5.117268e-01	1.688415e-01	-1.109275e+00	-6.588485e-01	1.700761e-01	-1.121738e+00	-6.647762e-01	1.687646e-01	-1.124099e+00	-6.416841e-01	1.690966e-01	-1.134596e+00	-6.748956e-01	1.677063e-01	-1.153413e+00	-7.396213e-01	1.660612e-01	-1.161248e+00	-7.688351e-01	1.619062e-01	-1.172123e+00	-8.163800e-01	1.590304e-01	-1.176766e+00	-8.406938e-01	1.507774e-01	-1.186466e+00	-8.960481e-01	1.452487e-01	-1.191841e+00	-9.269295e-01	1.319995e-01	-1.203278e+00	-9.902394e-01	1.164742e-01	-1.215400e+00	-1.052491e+00	1.077549e-01	-1.221909e+00	-1.083696e+00	8.810879e-02	-1.235992e+00	-1.147249e+00	6.478542e-02	-1.251948e+00	-1.214225e+00	3.768741e-02	-1.269557e+00	-1.284353e+00	7.153119e-03	-1.288403e+00	-1.356397e+00	-8.849515e-03	-1.297856e+00	-1.391872e+00	-4.223882e-02	-1.316869e+00	-1.461709e+00	-7.662507e-02	-1.335561e+00	-1.528679e+00	-1.126114e-01	-1.354547e+00	-1.594250e+00	-1.502768e-01	-1.373992e+00	-1.658772e+00	-1.910528e-01	-1.394891e+00	-1.724665e+00	-2.561280e-01	-1.427866e+00	-1.823088e+00	-2.982182e-01	-1.448811e+00	-1.882975e+00	-3.435188e-01	-1.471576e+00	-1.944448e+00	-4.065682e-01	-1.503790e+00	-2.025544e+00
11            	7.114007e-02	-5.686190e-01	-1.681775e-01	7.769503e-02	-5.773020e-01	-1.998619e-01	7.680878e-02	-5.666283e-01	-1.971450e-01	7.969982e-02	-5.635748e-01	-2.215329e-01	8.369034e-02	-5.658961e-01	-2.602779e-01	7.637439e-02	-5.427869e-01	-1.508097e-01	7.324880e-02	-5.277568e-01	-8.122576e-02	7.320575e-02	-5.265307e-01	-7.536696e-02	7.417359e-02	-5.177942e-01	-3.973106e-02	7.510084e-02	-5.135206e-01	-2.358671e-02	7.791805e-02	-5.043703e-01	7.738938e-03	7.931935e-02	-5.006802e-01	1.902871e-02	8.163539e-02	-4.954234e-01	3.387304e-02	8.261364e-02	-4.936957e-01	3.904662e-02	8.521992e-02	-4.908390e-01	5.115296e-02	8.945351e-02	-4.879518e-01	6.809482e-02	9.207077e-02	-4.864961e-01	7.755075e-02	9.810052e-02	-4.833852e-01	9.729993e-02	1.053161e-01	-4.795012e-01	1.182276e-01	1.139479e-01	-4.745039e-01	1.406682e-01	1.244417e-01	-4.681551e-01	1.654068e-01	1.308186e-01	-4.642026e-01	1.794743e-01	1.458075e-01	-4.549423e-01	2.105748e-01	1.641973e-01	-4.437601e-01	2.460179e-01	1.854813e-01	-4.311923e-01	2.844104e-01	2.077974e-01	-4.185667e-01	3.223411e-01	2.288274e-01	-4.073281e-01	3.562126e-01	2.581634e-01	-3.926458e-01	4.006436e-01	2.767176e-01	-3.838976e-01	4.271683e-01	2.945169e-01	-3.759032e-01	4.515358e-01	3.180562e-01	-3.661646e-01	4.824088e-01
12            	5.679749e-03	-1.677519e-02	-1.730088e-02	-1.304282e-02	5.500895e-02	6.485915e-02	-2.917540e-02	1.087882e-01	1.535797e-01	-3.612459e-02	1.410717e-01	1.989260e-01	-4.223338e-02	1.691907e-01	2.563698e-01	-5.712208e-02	2.209432e-01	4.686574e-01	-6.217593e-02	2.524915e-01	5.891677e-01	-6.264961e-02	2.663305e-01	6.399773e-01	-5.947553e-02	3.012671e-01	7.720714e-01	-5.632106e-02	3.160195e-01	8.274888e-01	-4.750193e-02	3.422895e-01	9.267421e-01	-4.240347e-02	3.531239e-01	9.688244e-01	-3.084651e-02	3.716053e-01	1.045008e+00	-2.423970e-02	3.797569e-01	1.081294e+00	-8.507860e-03	3.954441e-01	1.155613e+00	1.087189e-02	4.113054e-01	1.232914e+00	2.174689e-02	4.194204e-01	1.271756e+00	4.570814e-02	4.363713e-01	1.349211e+00	7.332155e-02	4.552373e-01	1.428402e+00	1.052018e-01	4.764165e-01	1.510686e+00	1.416464e-01	4.997770e-01	1.596365e+00	1.617865e-01	5.123408e-01	1.640802e+00	2.055663e-01	5.388373e-01	1.731878e+00	2.536325e-01	5.668002e-01	1.824931e+00	3.048541e-01	5.954383e-01	1.917800e+00	3.565389e-01	6.230522e-01	2.006096e+00	4.065593e-01	6.485032e-01	2.087000e+00	4.785407e-01	6.832749e-01	2.196352e+00	5.248946e-01	7.047180e-01	2.262727e+00	5.738035e-01	7.270925e-01	2.329659e+00	6.463117e-01	7.593816e-01	2.424046e+00
13            	-4.396089e-02	2.944195e-01	1.269623e-01	-7.999120e-02	3.915163e-01	2.923456e-01	-9.574118e-02	4.326108e-01	3.815388e-01	-1.010006e-01	4.553504e-01	4.161192e-01	-1.075779e-01	4.790216e-01	4.802851e-01	-1.235596e-01	5.304835e-01	7.071600e-01	-1.281927e-01	5.592341e-01	8.194847e-01	-1.287947e-01	5.760082e-01	8.837023e-01	-1.253643e-01	6.145561e-01	1.030736e+00	-1.221720e-01	6.295020e-01	1.086826e+00	-1.136183e-01	6.549290e-01	1.183234e+00	-1.087636e-01	6.651464e-01	1.223333e+00	-9.759698e-02	6.829291e-01	1.296940e+00	-9.112660e-02	6.910981e-01	1.332427e+00	-7.593328e-02	7.073113e-01	1.403948e+00	-5.823889e-02	7.237228e-01	1.474051e+00	-4.881069e-02	7.319620e-01	1.507398e+00	-2.904041e-02	7.486380e-01	1.570606e+00	-7.442213e-03	7.661510e-01	1.631818e+00	1.662852e-02	7.846592e-01	1.693275e+00	4.342243e-02	8.039254e-01	1.755706e+00	5.784042e-02	8.137747e-01	1.787286e+00	8.808789e-02	8.334136e-01	1.849863e+00	1.192217e-01	8.523592e-01	1.909930e+00	1.495017e-01	8.696259e-01	1.964759e+00	1.767892e-01	8.840840e-01	2.011425e+00	2.005706e-01	8.957432e-01	2.050018e+00	2.319607e-01	9.099891e-01	2.097970e+00	2.517620e-01	9.185613e-01	2.126478e+00	2.750826e-01	9.289367e-01	2.158474e+00	3.113686e-01	9.448167e-01	2.205772e+00
14            	-4.653399e-02	2.202242e-01	1.562683e-01	-7.332396e-02	2.626040e-01	2.860407e-01	-7.787929e-02	2.630399e-01	3.141776e-01	-7.475905e-02	2.582426e-01	2.901870e-01	-7.629612e-02	2.604687e-01	3.092121e-01	-8.911222e-02	2.950925e-01	4.918549e-01	-9.192205e-02	3.098930e-01	5.596864e-01	-9.240953e-02	3.223846e-01	6.119330e-01	-9.015361e-02	3.478084e-01	7.121457e-01	-8.838353e-02	3.560774e-01	7.431674e-01	-8.405807e-02	3.692687e-01	7.919054e-01	-8.182270e-02	3.742343e-01	8.102497e-01	-7.679604e-02	3.831329e-01	8.430742e-01	-7.389226e-02	3.875258e-01	8.587722e-01	-6.727665e-02	3.967956e-01	8.892934e-01	-6.067094e-02	4.061345e-01	9.146145e-01	-5.780581e-02	4.105460e-01	9.242123e-01	-5.310811e-02	4.187108e-01	9.381029e-01	-4.953947e-02	4.258875e-01	9.470580e-01	-4.677761e-02	4.318844e-01	9.530557e-01	-4.467616e-02	4.365910e-01	9.570808e-01	-4.398338e-02	4.383977e-01	9.582299e-01	-4.405064e-02	4.405126e-01	9.575154e-01	-4.704738e-02	4.401802e-01	9.513512e-01	-5.457573e-02	4.366217e-01	9.375512e-01	-6.743808e-02	4.296356e-01	9.156342e-01	-8.442273e-02	4.202743e-01	8.883704e-01	-1.134607e-01	4.046163e-01	8.447219e-01	-1.326021e-01	3.946182e-01	8.176113e-01	-1.488056e-01	3.864170e-01	7.956430e-01	-1.728453e-01	3.742997e-01	7.647760e-01
15            	-3.734111e-03	-1.091156e-01	4.512573e-02	-2.134281e-03	-1.541484e-01	4.981544e-02	2.379444e-03	-1.760659e-01	2.607424e-02	1.087626e-02	-1.942518e-01	-3.639565e-02	1.142146e-02	-2.009635e-01	-3.543991e-02	7.951174e-04	-1.762818e-01	1.153456e-01	-8.854059e-04	-1.699252e-01	1.548291e-01	-1.221344e-03	-1.620476e-01	1.911920e-01	-1.058717e-04	-1.495734e-01	2.433504e-01	4.682097e-04	-1.469408e-01	2.532971e-01	1.612006e-03	-1.430801e-01	2.660435e-01	2.044985e-03	-1.416951e-01	2.694101e-01	3.060511e-03	-1.383685e-01	2.755202e-01	3.634629e-03	-1.363208e-01	2.782594e-01	4.527042e-03	-1.317198e-01	2.814408e-01	3.893028e-03	-1.275980e-01	2.776705e-01	2.713796e-03	-1.260502e-01	2.727702e-01	-1.157510e-03	-1.240795e-01	2.589647e-01	-6.877848e-03	-1.239609e-01	2.414468e-01	-1.442304e-02	-1.259608e-01	2.211344e-01	-2.385760e-02	-1.299491e-01	1.983779e-01	-2.943645e-02	-1.326712e-01	1.858512e-01	-4.290818e-02	-1.397437e-01	1.575301e-01	-5.998765e-02	-1.490707e-01	1.243063e-01	-8.157240e-02	-1.610308e-01	8.515571e-02	-1.074829e-01	-1.753295e-01	4.103056e-02	-1.361316e-01	-1.908563e-01	-5.042531e-03	-1.808994e-01	-2.144495e-01	-7.250666e-02	-2.096250e-01	-2.291657e-01	-1.132655e-01	-2.369380e-01	-2.429623e-01	-1.503013e-01	-2.784227e-01	-2.640208e-01	-2.035435e-01
16            	1.899229e-02	-2.751067e-01	-1.535270e-02	3.609455e-02	-3.465212e-01	-8.416297e-02	4.061123e-02	-3.570892e-01	-1.105475e-01	4.763018e-02	-3.659750e-01	-1.634080e-01	4.421997e-02	-3.609706e-01	-1.242193e-01	3.268177e-02	-3.314762e-01	3.658659e-02	3.067508e-02	-3.220761e-01	8.393101e-02	3.037993e-02	-3.148406e-01	1.159575e-01	3.113493e-02	-3.062102e-01	1.518746e-01	3.154916e-02	-3.043578e-01	1.590168e-01	3.286703e-02	-3.001849e-01	1.735563e-01	3.367241e-02	-2.980025e-01	1.800057e-01	3.578948e-02	-2.927001e-01	1.933152e-01	3.696696e-02	-2.897851e-01	1.993422e-01	3.898857e-02	-2.841539e-01	2.079151e-01	3.976801e-02	-2.797914e-01	2.100195e-01	3.968799e-02	-2.782185e-01	2.092645e-01	3.921321e-02	-2.760383e-01	2.070060e-01	3.859287e-02	-2.752145e-01	2.048542e-01	3.770934e-02	-2.757315e-01	2.025258e-01	3.635174e-02	-2.772118e-01	1.994786e-01	3.535523e-02	-2.782315e-01	1.973756e-01	3.241948e-02	-2.808076e-01	1.914743e-01	2.809771e-02	-2.840437e-01	1.832973e-01	2.193250e-02	-2.882343e-01	1.723209e-01	1.406008e-02	-2.933195e-01	1.591101e-01	5.062880e-03	-2.989617e-01	1.448463e-01	-9.727130e-03	-3.080591e-01	1.229082e-01	-1.900141e-02	-3.137675e-01	1.100054e-01	-2.859195e-02	-3.197231e-01	9.730409e-02	-4.500702e-02	-3.300903e-01	7.679686e-02
17            	1.538635e-02	-1.877573e-01	-1.949060e-02	2.374868e-02	-2.120443e-01	-5.495724e-02	2.245075e-02	-1.972686e-01	-5.078943e-02	2.485874e-02	-1.900059e-01	-7.118512e-02	1.499997e-02	-1.669185e-01	2.983312e-02	1.333376e-03	-1.277657e-01	2.175265e-01	-1.440000e-03	-1.117290e-01	2.841302e-01	-1.755154e-03	-1.031790e-01	3.181810e-01	-8.115923e-04	-9.257506e-02	3.590789e-01	2.425394e-04	-8.772292e-02	3.775114e-01	3.964173e-03	-7.654404e-02	4.190648e-01	6.352548e-03	-7.104195e-02	4.386264e-01	1.205531e-02	-6.011187e-02	4.756643e-01	1.517177e-02	-5.496174e-02	4.924036e-01	2.144757e-02	-4.587388e-02	5.213378e-01	2.759619e-02	-3.867447e-02	5.452784e-01	3.087781e-02	-3.560358e-02	5.568144e-01	3.860571e-02	-2.992298e-02	5.816900e-01	4.810724e-02	-2.452065e-02	6.092067e-01	5.919657e-02	-1.900128e-02	6.383089e-01	7.154077e-02	-1.295396e-02	6.678247e-01	7.805698e-02	-9.682668e-03	6.824091e-01	9.164810e-02	-2.666387e-03	7.110049e-01	1.058142e-01	4.755131e-03	7.386484e-01	1.199584e-01	1.197841e-02	7.644789e-01	1.336442e-01	1.859557e-02	7.880434e-01	1.464234e-01	2.431585e-02	8.089254e-01	1.634823e-01	3.112305e-02	8.352297e-01	1.742827e-01	3.508827e-02	8.509750e-01	1.835851e-01	3.807408e-02	8.640594e-01	1.940511e-01	4.044458e-02	8.783111e-01
18            	-8.080967e-03	1.260680e-02	3.696742e-02	-1.563576e-02	3.755142e-02	7.193175e-02	-2.191072e-02	6.522106e-02	1.041291e-01	-2.246020e-02	7.858033e-02	1.057749e-01	-3.689414e-02	1.109623e-01	2.513585e-01	-5.140141e-02	1.532902e-01	4.491123e-01	-5.433744e-02	1.713399e-01	5.205155e-01	-5.465786e-02	1.803841e-01	5.550786e-01	-5.334219e-02	1.945134e-01	6.084009e-01	-5.145049e-02	2.033383e-01	6.415986e-01	-4.535198e-02	2.218285e-01	7.100247e-01	-4.168482e-02	2.301568e-01	7.401388e-01	-3.346474e-02	2.451746e-01	7.938414e-01	-2.907894e-02	2.517699e-01	8.175987e-01	-1.999987e-02	2.630921e-01	8.599573e-01	-1.023699e-02	2.724311e-01	8.985360e-01	-4.751403e-03	2.767590e-01	9.180566e-01	7.919595e-03	2.854075e-01	9.590702e-01	2.274093e-02	2.945012e-01	1.001849e+00	3.941413e-02	3.045515e-01	1.045160e+00	5.751910e-02	3.157016e-01	1.087855e+00	6.698010e-02	3.216165e-01	1.108722e+00	8.656328e-02	3.338567e-01	1.149365e+00	1.065214e-01	3.459832e-01	1.187874e+00	1.259582e-01	3.571254e-01	1.223051e+00	1.442831e-01	3.668561e-01	1.254376e+00	1.610985e-01	3.750506e-01	1.281675e+00	1.843236e-01	3.853632e-01	1.317198e+00	1.993297e-01	3.916104e-01	1.338875e+00	2.132984e-01	3.970732e-01	1.358252e+00	2.327642e-01	4.041086e-01	1.384008e+00
19            	-2.549374e-02	9.495644e-02	9.617986e-02	-4.331132e-02	1.377799e-01	1.797772e-01	-4.907665e-02	1.573633e-01	2.103173e-01	-4.919502e-02	1.644115e-01	2.106022e-01	-6.494080e-02	1.948902e-01	3.698664e-01	-7.826947e-02	2.318016e-01	5.509139e-01	-8.060581e-02	2.459100e-01	6.083613e-01	-8.088150e-02	2.535624e-01	6.382265e-01	-7.935074e-02	2.692049e-01	6.981606e-01	-7.700813e-02	2.802045e-01	7.393018e-01	-7.029154e-02	3.009832e-01	8.149222e-01	-6.659667e-02	3.095418e-01	8.452204e-01	-5.880255e-02	3.239935e-01	8.961344e-01	-5.476892e-02	3.300810e-01	9.179759e-01	-4.642827e-02	3.404734e-01	9.568828e-01	-3.729939e-02	3.494257e-01	9.928893e-01	-3.217298e-02	3.537951e-01	1.011043e+00	-2.079699e-02	3.627462e-01	1.047564e+00	-8.522969e-03	3.721267e-01	1.082510e+00	4.210922e-03	3.821686e-01	1.114963e+00	1.699282e-02	3.925933e-01	1.144428e+00	2.329162e-02	3.977585e-01	1.157989e+00	3.547032e-02	4.075232e-01	1.182695e+00	4.633750e-02	4.157047e-01	1.203251e+00	5.494190e-02	4.215670e-01	1.218586e+00	6.110595e-02	4.251827e-01	1.229041e+00	6.520279e-02	4.270747e-01	1.235725e+00	7.017001e-02	4.287968e-01	1.243446e+00	7.365638e-02	4.298830e-01	1.248578e+00	7.695502e-02	4.307431e-01	1.253270e+00	8.292502e-02	4.322551e-01	1.261321e+00
20            	-2.473421e-02	3.511858e-02	1.076819e-01	-4.040522e-02	6.028833e-02	1.841621e-01	-4.157378e-02	6.353491e-02	1.893191e-01	-4.012866e-02	6.231954e-02	1.798981e-01	-5.590514e-02	8.842973e-02	3.399849e-01	-6.729121e-02	1.177759e-01	4.944361e-01	-6.888340e-02	1.267129e-01	5.340982e-01	-6.910295e-02	1.325100e-01	5.580680e-01	-6.752797e-02	1.480467e-01	6.189253e-01	-6.521726e-02	1.589313e-01	6.595014e-01	-5.952301e-02	1.769281e-01	7.238681e-01	-5.673722e-02	1.835805e-01	7.466400e-01	-5.120088e-02	1.942501e-01	7.826980e-01	-4.839725e-02	1.986861e-01	7.978109e-01	-4.256266e-02	2.065206e-01	8.248481e-01	-3.607915e-02	2.138964e-01	8.501296e-01	-3.248972e-02	2.177072e-01	8.626316e-01	-2.507579e-02	2.255496e-01	8.859035e-01	-1.828704e-02	2.333085e-01	9.045536e-01	-1.253391e-02	2.407878e-01	9.184320e-01	-8.003953e-03	2.474483e-01	9.280816e-01	-6.241272e-03	2.502631e-01	9.315031e-01	-3.955518e-03	2.544275e-01	9.355214e-01	-4.016998e-03	2.560692e-01	9.349668e-01	-7.136235e-03	2.549286e-01	9.291640e-01	-1.304266e-02	2.516054e-01	9.191302e-01	-2.085653e-02	2.470244e-01	9.066588e-01	-3.292379e-02	2.401209e-01	8.886083e-01	-4.034187e-02	2.359755e-01	8.781740e-01	-4.744993e-02	2.319927e-01	8.686383e-01	-5.598108e-02	2.269409e-01	8.578576e-01
21            	-1.428876e-02	-4.849503e-02	8.026603e-02	-1.994509e-02	-5.195799e-02	1.113352e-01	-1.652004e-02	-5.740332e-02	8.956825e-02	-1.514993e-02	-5.931919e-02	8.136898e-02	-3.194805e-02	-3.214610e-02	2.507152e-01	-4.207365e-02	-6.276326e-03	3.880514e-01	-4.336550e-02	8.674922e-04	4.206314e-01	-4.356614e-02	6.061152e-03	4.425856e-01	-4.197969e-02	2.176509e-02	5.045092e-01	-3.992707e-02	3.143251e-02	5.405399e-01	-3.567156e-02	4.501018e-02	5.888794e-01	-3.381296e-02	4.949290e-02	6.040377e-01	-3.009375e-02	5.673052e-02	6.281835e-01	-2.809910e-02	5.996836e-02	6.389021e-01	-2.366064e-02	6.635852e-02	6.593167e-01	-1.849938e-02	7.316967e-02	6.791777e-01	-1.570792e-02	7.679672e-02	6.887167e-01	-1.039576e-02	8.405356e-02	7.049595e-01	-6.306891e-03	9.061619e-02	7.156895e-01	-3.522628e-03	9.610541e-02	7.219020e-01	-1.865033e-03	1.000727e-01	7.250171e-01	-1.418432e-03	1.013771e-01	7.257192e-01	-1.490638e-03	1.024258e-01	7.252776e-01	-3.401636e-03	1.012502e-01	7.216025e-01	-7.699617e-03	9.798169e-02	7.140505e-01	-1.412304e-02	9.330461e-02	7.034186e-01	-2.195775e-02	8.798291e-02	6.911073e-01	-3.402313e-02	8.032787e-02	6.732652e-01	-4.164472e-02	7.566483e-02	6.626540e-01	-4.906634e-02	7.113378e-02	6.527971e-01	-5.875468e-02	6.495502e-02	6.406905e-01