/*--------------------------------*- C++ -*----------------------------------*\
  =========                 |
  \\      /  F ield         | OpenFOAM: The Open Source CFD Toolbox
   \\    /   O peration     | Website:  https://openfoam.org
    \\  /    A nd           | Version:  7
     \\/     M anipulation  |
\*---------------------------------------------------------------------------*/
FoamFile
{
    version     2.0;
    format      ascii;
    class       volScalarField;
    location    "1800";
    object      nut;
}
// * * * * * * * * * * * * * * * * * * * * * * * * * * * * * * * * * * * * * //

dimensions      [0 2 -1 0 0 0 0];

internalField   nonuniform List<scalar> 
23023
(
5.25807e-06
5.25706e-06
5.25808e-06
5.25689e-06
5.25707e-06
5.25809e-06
5.25629e-06
5.25689e-06
5.25708e-06
5.2581e-06
5.25629e-06
5.25689e-06
5.25708e-06
5.25812e-06
5.25591e-06
5.25629e-06
5.25689e-06
5.25709e-06
5.25813e-06
5.25549e-06
5.25591e-06
5.25629e-06
5.25689e-06
5.2571e-06
5.25814e-06
5.25508e-06
5.25549e-06
5.25591e-06
5.25629e-06
5.25689e-06
5.2571e-06
5.25815e-06
5.25463e-06
5.25508e-06
5.25549e-06
5.2559e-06
5.25628e-06
5.25689e-06
5.25711e-06
5.25816e-06
5.25416e-06
5.25464e-06
5.25509e-06
5.25549e-06
5.2559e-06
5.25628e-06
5.25689e-06
5.25711e-06
5.25817e-06
5.25367e-06
5.25417e-06
5.25465e-06
5.25509e-06
5.25549e-06
5.2559e-06
5.25628e-06
5.25689e-06
5.25712e-06
5.25818e-06
5.25367e-06
5.25417e-06
5.25465e-06
5.25509e-06
5.25549e-06
5.25589e-06
5.25628e-06
5.25689e-06
5.25712e-06
5.25819e-06
5.25318e-06
5.25368e-06
5.25418e-06
5.25466e-06
5.25509e-06
5.25549e-06
5.25589e-06
5.25627e-06
5.25689e-06
5.25713e-06
5.2582e-06
5.2527e-06
5.25318e-06
5.25368e-06
5.25418e-06
5.25466e-06
5.2551e-06
5.25549e-06
5.25589e-06
5.25627e-06
5.25689e-06
5.25714e-06
5.25821e-06
5.25223e-06
5.2527e-06
5.25318e-06
5.25368e-06
5.25419e-06
5.25466e-06
5.2551e-06
5.25548e-06
5.25588e-06
5.25626e-06
5.25689e-06
5.25714e-06
5.25822e-06
5.25178e-06
5.25223e-06
5.2527e-06
5.25318e-06
5.25369e-06
5.25419e-06
5.25467e-06
5.2551e-06
5.25548e-06
5.25588e-06
5.25626e-06
5.25689e-06
5.25715e-06
5.25823e-06
5.25178e-06
5.25223e-06
5.2527e-06
5.25319e-06
5.25369e-06
5.2542e-06
5.25467e-06
5.2551e-06
5.25548e-06
5.25587e-06
5.25625e-06
5.25689e-06
5.25715e-06
5.25824e-06
5.25133e-06
5.25178e-06
5.25223e-06
5.2527e-06
5.25319e-06
5.25369e-06
5.2542e-06
5.25467e-06
5.2551e-06
5.25547e-06
5.25586e-06
5.25625e-06
5.25689e-06
5.25716e-06
5.25825e-06
5.25089e-06
5.25134e-06
5.25178e-06
5.25223e-06
5.2527e-06
5.25319e-06
5.2537e-06
5.2542e-06
5.25468e-06
5.2551e-06
5.25547e-06
5.25586e-06
5.25624e-06
5.25689e-06
5.25717e-06
5.25826e-06
5.25089e-06
5.25134e-06
5.25178e-06
5.25223e-06
5.2527e-06
5.25319e-06
5.2537e-06
5.25421e-06
5.25468e-06
5.25509e-06
5.25546e-06
5.25585e-06
5.25624e-06
5.25689e-06
5.25717e-06
5.25827e-06
5.25045e-06
5.25089e-06
5.25134e-06
5.25178e-06
5.25223e-06
5.2527e-06
5.25319e-06
5.2537e-06
5.25421e-06
5.25468e-06
5.25509e-06
5.25546e-06
5.25584e-06
5.25623e-06
5.25689e-06
5.25718e-06
5.25828e-06
5.25001e-06
5.25045e-06
5.25089e-06
5.25134e-06
5.25178e-06
5.25223e-06
5.2527e-06
5.25319e-06
5.25371e-06
5.25421e-06
5.25468e-06
5.25509e-06
5.25545e-06
5.25584e-06
5.25623e-06
5.25689e-06
5.25719e-06
5.25829e-06
5.24958e-06
5.25001e-06
5.25045e-06
5.25089e-06
5.25134e-06
5.25178e-06
5.25223e-06
5.2527e-06
5.2532e-06
5.25371e-06
5.25422e-06
5.25468e-06
5.25509e-06
5.25545e-06
5.25583e-06
5.25622e-06
5.25689e-06
5.25719e-06
5.2583e-06
5.24915e-06
5.24958e-06
5.25001e-06
5.25045e-06
5.25089e-06
5.25134e-06
5.25178e-06
5.25223e-06
5.2527e-06
5.2532e-06
5.25371e-06
5.25422e-06
5.25468e-06
5.25509e-06
5.25544e-06
5.25582e-06
5.25622e-06
5.25689e-06
5.2572e-06
5.25831e-06
5.24915e-06
5.24958e-06
5.25001e-06
5.25045e-06
5.25089e-06
5.25134e-06
5.25178e-06
5.25223e-06
5.2527e-06
5.2532e-06
5.25371e-06
5.25422e-06
5.25468e-06
5.25508e-06
5.25543e-06
5.25581e-06
5.25621e-06
5.25689e-06
5.25721e-06
5.25832e-06
5.24874e-06
5.24915e-06
5.24958e-06
5.25001e-06
5.25045e-06
5.25089e-06
5.25134e-06
5.25178e-06
5.25223e-06
5.2527e-06
5.2532e-06
5.25372e-06
5.25422e-06
5.25468e-06
5.25508e-06
5.25543e-06
5.2558e-06
5.2562e-06
5.25689e-06
5.25721e-06
5.25833e-06
5.24833e-06
5.24874e-06
5.24915e-06
5.24958e-06
5.25001e-06
5.25045e-06
5.25089e-06
5.25133e-06
5.25178e-06
5.25223e-06
5.2527e-06
5.2532e-06
5.25372e-06
5.25423e-06
5.25468e-06
5.25508e-06
5.25542e-06
5.25579e-06
5.2562e-06
5.25689e-06
5.25722e-06
5.25834e-06
5.24833e-06
5.24874e-06
5.24915e-06
5.24958e-06
5.25001e-06
5.25045e-06
5.25089e-06
5.25133e-06
5.25177e-06
5.25222e-06
5.2527e-06
5.2532e-06
5.25372e-06
5.25423e-06
5.25468e-06
5.25507e-06
5.25541e-06
5.25579e-06
5.25619e-06
5.25688e-06
5.25723e-06
5.25836e-06
5.24793e-06
5.24833e-06
5.24874e-06
5.24915e-06
5.24958e-06
5.25001e-06
5.25045e-06
5.25089e-06
5.25133e-06
5.25177e-06
5.25222e-06
5.2527e-06
5.2532e-06
5.25372e-06
5.25423e-06
5.25468e-06
5.25507e-06
5.2554e-06
5.25578e-06
5.25619e-06
5.25688e-06
5.25724e-06
5.25837e-06
5.24754e-06
5.24793e-06
5.24833e-06
5.24873e-06
5.24915e-06
5.24958e-06
5.25001e-06
5.25045e-06
5.25089e-06
5.25133e-06
5.25177e-06
5.25222e-06
5.25269e-06
5.2532e-06
5.25373e-06
5.25423e-06
5.25468e-06
5.25506e-06
5.25539e-06
5.25578e-06
5.25619e-06
5.25688e-06
5.25725e-06
5.25838e-06
5.24754e-06
5.24793e-06
5.24832e-06
5.24873e-06
5.24915e-06
5.24957e-06
5.25001e-06
5.25045e-06
5.25089e-06
5.25133e-06
5.25177e-06
5.25222e-06
5.25269e-06
5.2532e-06
5.25373e-06
5.25423e-06
5.25468e-06
5.25506e-06
5.25538e-06
5.25577e-06
5.25618e-06
5.25688e-06
5.25726e-06
5.25839e-06
5.24716e-06
5.24754e-06
5.24792e-06
5.24832e-06
5.24873e-06
5.24915e-06
5.24957e-06
5.25001e-06
5.25045e-06
5.25089e-06
5.25133e-06
5.25177e-06
5.25222e-06
5.25269e-06
5.2532e-06
5.25373e-06
5.25423e-06
5.25468e-06
5.25505e-06
5.25537e-06
5.25577e-06
5.25618e-06
5.25688e-06
5.25727e-06
5.25841e-06
5.24678e-06
5.24715e-06
5.24753e-06
5.24792e-06
5.24832e-06
5.24873e-06
5.24915e-06
5.24957e-06
5.25001e-06
5.25044e-06
5.25088e-06
5.25132e-06
5.25176e-06
5.25221e-06
5.25269e-06
5.2532e-06
5.25373e-06
5.25424e-06
5.25468e-06
5.25504e-06
5.25536e-06
5.25576e-06
5.25618e-06
5.25689e-06
5.25728e-06
5.25842e-06
5.24678e-06
5.24715e-06
5.24753e-06
5.24792e-06
5.24832e-06
5.24873e-06
5.24914e-06
5.24957e-06
5.25e-06
5.25044e-06
5.25088e-06
5.25132e-06
5.25176e-06
5.25221e-06
5.25269e-06
5.2532e-06
5.25373e-06
5.25424e-06
5.25468e-06
5.25504e-06
5.25536e-06
5.25576e-06
5.25618e-06
5.25689e-06
5.25729e-06
5.25843e-06
5.24641e-06
5.24678e-06
5.24715e-06
5.24753e-06
5.24792e-06
5.24832e-06
5.24872e-06
5.24914e-06
5.24957e-06
5.25e-06
5.25044e-06
5.25088e-06
5.25132e-06
5.25176e-06
5.25221e-06
5.25269e-06
5.2532e-06
5.25373e-06
5.25424e-06
5.25467e-06
5.25503e-06
5.25535e-06
5.25575e-06
5.25617e-06
5.25689e-06
5.2573e-06
5.25845e-06
5.24606e-06
5.24641e-06
5.24677e-06
5.24714e-06
5.24752e-06
5.24791e-06
5.24831e-06
5.24872e-06
5.24914e-06
5.24957e-06
5.25e-06
5.25044e-06
5.25088e-06
5.25132e-06
5.25175e-06
5.2522e-06
5.25269e-06
5.2532e-06
5.25373e-06
5.25424e-06
5.25467e-06
5.25502e-06
5.25534e-06
5.25575e-06
5.25617e-06
5.25689e-06
5.25732e-06
5.25846e-06
5.24605e-06
5.24641e-06
5.24677e-06
5.24714e-06
5.24752e-06
5.24791e-06
5.24831e-06
5.24872e-06
5.24914e-06
5.24956e-06
5.25e-06
5.25044e-06
5.25088e-06
5.25131e-06
5.25175e-06
5.2522e-06
5.25268e-06
5.2532e-06
5.25374e-06
5.25424e-06
5.25467e-06
5.25501e-06
5.25534e-06
5.25575e-06
5.25617e-06
5.25689e-06
5.25733e-06
5.25847e-06
5.2457e-06
5.24605e-06
5.2464e-06
5.24677e-06
5.24714e-06
5.24752e-06
5.24791e-06
5.24831e-06
5.24872e-06
5.24914e-06
5.24956e-06
5.24999e-06
5.25043e-06
5.25087e-06
5.25131e-06
5.25175e-06
5.2522e-06
5.25268e-06
5.2532e-06
5.25374e-06
5.25424e-06
5.25467e-06
5.25501e-06
5.25533e-06
5.25575e-06
5.25617e-06
5.25689e-06
5.25734e-06
5.25849e-06
5.24537e-06
5.2457e-06
5.24605e-06
5.2464e-06
5.24676e-06
5.24713e-06
5.24751e-06
5.2479e-06
5.2483e-06
5.24872e-06
5.24913e-06
5.24956e-06
5.24999e-06
5.25043e-06
5.25087e-06
5.25131e-06
5.25174e-06
5.25219e-06
5.25268e-06
5.2532e-06
5.25374e-06
5.25424e-06
5.25466e-06
5.255e-06
5.25532e-06
5.25574e-06
5.25617e-06
5.2569e-06
5.25736e-06
5.2585e-06
5.24504e-06
5.24536e-06
5.2457e-06
5.24604e-06
5.2464e-06
5.24676e-06
5.24713e-06
5.24751e-06
5.2479e-06
5.2483e-06
5.24871e-06
5.24913e-06
5.24956e-06
5.24999e-06
5.25043e-06
5.25087e-06
5.2513e-06
5.25174e-06
5.25219e-06
5.25268e-06
5.2532e-06
5.25374e-06
5.25424e-06
5.25466e-06
5.25499e-06
5.25532e-06
5.25574e-06
5.25617e-06
5.2569e-06
5.25737e-06
5.25852e-06
5.24472e-06
5.24503e-06
5.24536e-06
5.24569e-06
5.24604e-06
5.24639e-06
5.24675e-06
5.24712e-06
5.2475e-06
5.2479e-06
5.2483e-06
5.24871e-06
5.24913e-06
5.24955e-06
5.24999e-06
5.25042e-06
5.25086e-06
5.2513e-06
5.25174e-06
5.25219e-06
5.25267e-06
5.2532e-06
5.25374e-06
5.25424e-06
5.25465e-06
5.25498e-06
5.25532e-06
5.25574e-06
5.25617e-06
5.25691e-06
5.25739e-06
5.25853e-06
5.2444e-06
5.24471e-06
5.24503e-06
5.24535e-06
5.24569e-06
5.24603e-06
5.24639e-06
5.24675e-06
5.24712e-06
5.2475e-06
5.24789e-06
5.2483e-06
5.24871e-06
5.24912e-06
5.24955e-06
5.24998e-06
5.25042e-06
5.25086e-06
5.2513e-06
5.25173e-06
5.25218e-06
5.25267e-06
5.2532e-06
5.25374e-06
5.25424e-06
5.25465e-06
5.25497e-06
5.25531e-06
5.25574e-06
5.25617e-06
5.25691e-06
5.2574e-06
5.25855e-06
5.2441e-06
5.2444e-06
5.24471e-06
5.24502e-06
5.24535e-06
5.24569e-06
5.24603e-06
5.24638e-06
5.24674e-06
5.24712e-06
5.2475e-06
5.24789e-06
5.24829e-06
5.2487e-06
5.24912e-06
5.24955e-06
5.24998e-06
5.25042e-06
5.25086e-06
5.25129e-06
5.25173e-06
5.25218e-06
5.25267e-06
5.2532e-06
5.25374e-06
5.25424e-06
5.25465e-06
5.25496e-06
5.25531e-06
5.25574e-06
5.25617e-06
5.25692e-06
5.25742e-06
5.25856e-06
5.2441e-06
5.24439e-06
5.2447e-06
5.24502e-06
5.24535e-06
5.24568e-06
5.24603e-06
5.24638e-06
5.24674e-06
5.24711e-06
5.24749e-06
5.24789e-06
5.24829e-06
5.2487e-06
5.24912e-06
5.24954e-06
5.24998e-06
5.25042e-06
5.25085e-06
5.25129e-06
5.25172e-06
5.25218e-06
5.25267e-06
5.2532e-06
5.25374e-06
5.25424e-06
5.25464e-06
5.25495e-06
5.25531e-06
5.25574e-06
5.25617e-06
5.25692e-06
5.25744e-06
5.25858e-06
5.2438e-06
5.24409e-06
5.24439e-06
5.2447e-06
5.24501e-06
5.24534e-06
5.24568e-06
5.24602e-06
5.24637e-06
5.24674e-06
5.24711e-06
5.24749e-06
5.24788e-06
5.24828e-06
5.2487e-06
5.24911e-06
5.24954e-06
5.24997e-06
5.25041e-06
5.25085e-06
5.25129e-06
5.25172e-06
5.25217e-06
5.25267e-06
5.2532e-06
5.25375e-06
5.25424e-06
5.25464e-06
5.25494e-06
5.2553e-06
5.25574e-06
5.25617e-06
5.25693e-06
5.25746e-06
5.25859e-06
5.24351e-06
5.24379e-06
5.24408e-06
5.24438e-06
5.24469e-06
5.24501e-06
5.24534e-06
5.24567e-06
5.24602e-06
5.24637e-06
5.24673e-06
5.2471e-06
5.24748e-06
5.24788e-06
5.24828e-06
5.24869e-06
5.24911e-06
5.24954e-06
5.24997e-06
5.25041e-06
5.25085e-06
5.25128e-06
5.25172e-06
5.25217e-06
5.25266e-06
5.2532e-06
5.25375e-06
5.25424e-06
5.25463e-06
5.25493e-06
5.2553e-06
5.25574e-06
5.25617e-06
5.25694e-06
5.25748e-06
5.25861e-06
5.2435e-06
5.24379e-06
5.24408e-06
5.24438e-06
5.24469e-06
5.24501e-06
5.24533e-06
5.24567e-06
5.24601e-06
5.24636e-06
5.24673e-06
5.2471e-06
5.24748e-06
5.24787e-06
5.24828e-06
5.24869e-06
5.24911e-06
5.24953e-06
5.24997e-06
5.25041e-06
5.25084e-06
5.25128e-06
5.25171e-06
5.25216e-06
5.25266e-06
5.2532e-06
5.25375e-06
5.25424e-06
5.25462e-06
5.25492e-06
5.2553e-06
5.25574e-06
5.25617e-06
5.25695e-06
5.2575e-06
5.25863e-06
5.24322e-06
5.2435e-06
5.24378e-06
5.24407e-06
5.24437e-06
5.24468e-06
5.245e-06
5.24533e-06
5.24566e-06
5.24601e-06
5.24636e-06
5.24672e-06
5.24709e-06
5.24748e-06
5.24787e-06
5.24827e-06
5.24868e-06
5.2491e-06
5.24953e-06
5.24996e-06
5.2504e-06
5.25084e-06
5.25127e-06
5.25171e-06
5.25216e-06
5.25266e-06
5.2532e-06
5.25375e-06
5.25424e-06
5.25462e-06
5.25491e-06
5.2553e-06
5.25575e-06
5.25617e-06
5.25695e-06
5.25752e-06
5.25864e-06
5.24294e-06
5.24321e-06
5.24349e-06
5.24378e-06
5.24407e-06
5.24437e-06
5.24468e-06
5.245e-06
5.24532e-06
5.24566e-06
5.246e-06
5.24635e-06
5.24672e-06
5.24709e-06
5.24747e-06
5.24787e-06
5.24827e-06
5.24868e-06
5.2491e-06
5.24952e-06
5.24996e-06
5.2504e-06
5.25084e-06
5.25127e-06
5.2517e-06
5.25216e-06
5.25266e-06
5.2532e-06
5.25375e-06
5.25424e-06
5.25461e-06
5.2549e-06
5.2553e-06
5.25575e-06
5.25618e-06
5.25697e-06
5.25754e-06
5.25866e-06
5.24266e-06
5.24293e-06
5.2432e-06
5.24348e-06
5.24377e-06
5.24406e-06
5.24436e-06
5.24467e-06
5.24499e-06
5.24532e-06
5.24565e-06
5.246e-06
5.24635e-06
5.24671e-06
5.24708e-06
5.24747e-06
5.24786e-06
5.24826e-06
5.24868e-06
5.24909e-06
5.24952e-06
5.24995e-06
5.2504e-06
5.25083e-06
5.25127e-06
5.2517e-06
5.25215e-06
5.25265e-06
5.2532e-06
5.25375e-06
5.25423e-06
5.2546e-06
5.2549e-06
5.2553e-06
5.25575e-06
5.25618e-06
5.25698e-06
5.25756e-06
5.25867e-06
5.24238e-06
5.24265e-06
5.24292e-06
5.2432e-06
5.24348e-06
5.24376e-06
5.24406e-06
5.24436e-06
5.24467e-06
5.24499e-06
5.24531e-06
5.24565e-06
5.24599e-06
5.24634e-06
5.24671e-06
5.24708e-06
5.24746e-06
5.24786e-06
5.24826e-06
5.24867e-06
5.24909e-06
5.24951e-06
5.24995e-06
5.25039e-06
5.25083e-06
5.25126e-06
5.25169e-06
5.25215e-06
5.25265e-06
5.2532e-06
5.25375e-06
5.25423e-06
5.25459e-06
5.25489e-06
5.2553e-06
5.25575e-06
5.25618e-06
5.25699e-06
5.25759e-06
5.25869e-06
5.2421e-06
5.24237e-06
5.24264e-06
5.24292e-06
5.24319e-06
5.24347e-06
5.24376e-06
5.24405e-06
5.24435e-06
5.24466e-06
5.24498e-06
5.24531e-06
5.24564e-06
5.24599e-06
5.24634e-06
5.2467e-06
5.24707e-06
5.24746e-06
5.24785e-06
5.24826e-06
5.24867e-06
5.24908e-06
5.24951e-06
5.24995e-06
5.25039e-06
5.25083e-06
5.25126e-06
5.25169e-06
5.25214e-06
5.25265e-06
5.2532e-06
5.25375e-06
5.25423e-06
5.25458e-06
5.25489e-06
5.2553e-06
5.25575e-06
5.25618e-06
5.257e-06
5.25761e-06
5.2587e-06
5.24182e-06
5.2421e-06
5.24237e-06
5.24264e-06
5.24291e-06
5.24318e-06
5.24346e-06
5.24375e-06
5.24405e-06
5.24435e-06
5.24466e-06
5.24498e-06
5.2453e-06
5.24564e-06
5.24598e-06
5.24633e-06
5.24669e-06
5.24707e-06
5.24745e-06
5.24785e-06
5.24825e-06
5.24866e-06
5.24908e-06
5.24951e-06
5.24994e-06
5.25039e-06
5.25082e-06
5.25125e-06
5.25168e-06
5.25214e-06
5.25265e-06
5.2532e-06
5.25375e-06
5.25423e-06
5.25457e-06
5.25488e-06
5.2553e-06
5.25576e-06
5.25618e-06
5.25701e-06
5.25764e-06
5.25872e-06
5.24154e-06
5.24181e-06
5.24209e-06
5.24236e-06
5.24263e-06
5.2429e-06
5.24318e-06
5.24346e-06
5.24375e-06
5.24404e-06
5.24434e-06
5.24465e-06
5.24497e-06
5.2453e-06
5.24563e-06
5.24597e-06
5.24633e-06
5.24669e-06
5.24706e-06
5.24745e-06
5.24784e-06
5.24825e-06
5.24866e-06
5.24907e-06
5.2495e-06
5.24994e-06
5.25038e-06
5.25082e-06
5.25125e-06
5.25168e-06
5.25213e-06
5.25264e-06
5.2532e-06
5.25376e-06
5.25423e-06
5.25456e-06
5.25488e-06
5.2553e-06
5.25576e-06
5.25619e-06
5.25703e-06
5.25766e-06
5.25873e-06
5.24124e-06
5.24153e-06
5.2418e-06
5.24208e-06
5.24235e-06
5.24262e-06
5.24289e-06
5.24317e-06
5.24345e-06
5.24374e-06
5.24403e-06
5.24434e-06
5.24465e-06
5.24497e-06
5.24529e-06
5.24563e-06
5.24597e-06
5.24632e-06
5.24668e-06
5.24706e-06
5.24744e-06
5.24784e-06
5.24824e-06
5.24865e-06
5.24907e-06
5.2495e-06
5.24994e-06
5.25038e-06
5.25082e-06
5.25124e-06
5.25167e-06
5.25213e-06
5.25264e-06
5.2532e-06
5.25376e-06
5.25422e-06
5.25455e-06
5.25488e-06
5.25531e-06
5.25576e-06
5.25619e-06
5.25704e-06
5.25769e-06
5.25875e-06
5.24094e-06
5.24123e-06
5.24151e-06
5.24179e-06
5.24207e-06
5.24234e-06
5.24261e-06
5.24288e-06
5.24316e-06
5.24344e-06
5.24373e-06
5.24403e-06
5.24433e-06
5.24464e-06
5.24496e-06
5.24529e-06
5.24562e-06
5.24596e-06
5.24632e-06
5.24668e-06
5.24705e-06
5.24744e-06
5.24783e-06
5.24824e-06
5.24865e-06
5.24906e-06
5.24949e-06
5.24993e-06
5.25037e-06
5.25081e-06
5.25124e-06
5.25167e-06
5.25212e-06
5.25264e-06
5.2532e-06
5.25376e-06
5.25422e-06
5.25454e-06
5.25487e-06
5.25531e-06
5.25577e-06
5.25619e-06
5.25706e-06
5.25771e-06
5.25876e-06
5.24063e-06
5.24092e-06
5.24122e-06
5.2415e-06
5.24179e-06
5.24206e-06
5.24233e-06
5.2426e-06
5.24288e-06
5.24315e-06
5.24344e-06
5.24373e-06
5.24402e-06
5.24433e-06
5.24464e-06
5.24495e-06
5.24528e-06
5.24561e-06
5.24596e-06
5.24631e-06
5.24667e-06
5.24705e-06
5.24743e-06
5.24783e-06
5.24823e-06
5.24864e-06
5.24906e-06
5.24949e-06
5.24993e-06
5.25037e-06
5.25081e-06
5.25123e-06
5.25166e-06
5.25212e-06
5.25264e-06
5.2532e-06
5.25376e-06
5.25421e-06
5.25453e-06
5.25487e-06
5.25531e-06
5.25577e-06
5.2562e-06
5.25708e-06
5.25774e-06
5.25877e-06
5.2403e-06
5.24061e-06
5.24091e-06
5.24121e-06
5.24149e-06
5.24178e-06
5.24205e-06
5.24232e-06
5.2426e-06
5.24287e-06
5.24315e-06
5.24343e-06
5.24372e-06
5.24402e-06
5.24432e-06
5.24463e-06
5.24495e-06
5.24527e-06
5.24561e-06
5.24595e-06
5.2463e-06
5.24667e-06
5.24704e-06
5.24743e-06
5.24782e-06
5.24822e-06
5.24864e-06
5.24906e-06
5.24948e-06
5.24992e-06
5.25037e-06
5.2508e-06
5.25123e-06
5.25165e-06
5.25211e-06
5.25264e-06
5.2532e-06
5.25376e-06
5.25421e-06
5.25451e-06
5.25487e-06
5.25532e-06
5.25577e-06
5.2562e-06
5.2571e-06
5.25776e-06
5.25879e-06
5.23997e-06
5.24028e-06
5.24059e-06
5.2409e-06
5.2412e-06
5.24149e-06
5.24177e-06
5.24204e-06
5.24232e-06
5.24259e-06
5.24286e-06
5.24314e-06
5.24342e-06
5.24371e-06
5.24401e-06
5.24431e-06
5.24463e-06
5.24494e-06
5.24527e-06
5.2456e-06
5.24594e-06
5.2463e-06
5.24666e-06
5.24704e-06
5.24742e-06
5.24782e-06
5.24822e-06
5.24863e-06
5.24905e-06
5.24948e-06
5.24992e-06
5.25036e-06
5.2508e-06
5.25122e-06
5.25165e-06
5.25211e-06
5.25263e-06
5.25321e-06
5.25376e-06
5.25421e-06
5.2545e-06
5.25487e-06
5.25532e-06
5.25578e-06
5.2562e-06
5.25712e-06
5.25779e-06
5.2588e-06
5.23964e-06
5.23995e-06
5.24027e-06
5.24058e-06
5.24089e-06
5.24118e-06
5.24148e-06
5.24176e-06
5.24203e-06
5.24231e-06
5.24258e-06
5.24285e-06
5.24313e-06
5.24342e-06
5.24371e-06
5.244e-06
5.24431e-06
5.24462e-06
5.24494e-06
5.24526e-06
5.24559e-06
5.24594e-06
5.24629e-06
5.24666e-06
5.24703e-06
5.24741e-06
5.24781e-06
5.24821e-06
5.24863e-06
5.24905e-06
5.24948e-06
5.24992e-06
5.25036e-06
5.25079e-06
5.25122e-06
5.25164e-06
5.2521e-06
5.25263e-06
5.25321e-06
5.25376e-06
5.2542e-06
5.25449e-06
5.25487e-06
5.25532e-06
5.25578e-06
5.25621e-06
5.25713e-06
5.25782e-06
5.25881e-06
5.23929e-06
5.23961e-06
5.23993e-06
5.24025e-06
5.24057e-06
5.24087e-06
5.24117e-06
5.24147e-06
5.24175e-06
5.24202e-06
5.2423e-06
5.24257e-06
5.24284e-06
5.24312e-06
5.24341e-06
5.2437e-06
5.244e-06
5.2443e-06
5.24461e-06
5.24493e-06
5.24525e-06
5.24559e-06
5.24593e-06
5.24628e-06
5.24665e-06
5.24702e-06
5.24741e-06
5.2478e-06
5.24821e-06
5.24862e-06
5.24904e-06
5.24947e-06
5.24991e-06
5.25036e-06
5.25079e-06
5.25121e-06
5.25164e-06
5.2521e-06
5.25263e-06
5.25321e-06
5.25376e-06
5.25419e-06
5.25448e-06
5.25487e-06
5.25533e-06
5.25578e-06
5.25621e-06
5.25716e-06
5.25785e-06
5.25882e-06
5.23894e-06
5.23926e-06
5.23958e-06
5.23991e-06
5.24023e-06
5.24055e-06
5.24086e-06
5.24116e-06
5.24146e-06
5.24174e-06
5.24202e-06
5.24229e-06
5.24256e-06
5.24284e-06
5.24312e-06
5.2434e-06
5.24369e-06
5.24399e-06
5.2443e-06
5.24461e-06
5.24492e-06
5.24525e-06
5.24558e-06
5.24592e-06
5.24628e-06
5.24664e-06
5.24702e-06
5.2474e-06
5.2478e-06
5.2482e-06
5.24861e-06
5.24904e-06
5.24947e-06
5.24991e-06
5.25035e-06
5.25078e-06
5.2512e-06
5.25163e-06
5.25209e-06
5.25263e-06
5.25321e-06
5.25376e-06
5.25419e-06
5.25447e-06
5.25487e-06
5.25533e-06
5.25579e-06
5.25622e-06
5.25718e-06
5.25787e-06
5.25884e-06
5.23859e-06
5.2389e-06
5.23922e-06
5.23955e-06
5.23989e-06
5.24022e-06
5.24054e-06
5.24085e-06
5.24115e-06
5.24145e-06
5.24173e-06
5.24201e-06
5.24228e-06
5.24255e-06
5.24283e-06
5.24311e-06
5.2434e-06
5.24369e-06
5.24399e-06
5.24429e-06
5.2446e-06
5.24492e-06
5.24524e-06
5.24557e-06
5.24592e-06
5.24627e-06
5.24664e-06
5.24701e-06
5.2474e-06
5.24779e-06
5.2482e-06
5.24861e-06
5.24903e-06
5.24946e-06
5.24991e-06
5.25035e-06
5.25078e-06
5.2512e-06
5.25162e-06
5.25209e-06
5.25263e-06
5.25321e-06
5.25376e-06
5.25418e-06
5.25446e-06
5.25487e-06
5.25534e-06
5.25579e-06
5.25622e-06
5.2572e-06
5.2579e-06
5.25885e-06
5.23855e-06
5.23887e-06
5.23919e-06
5.23953e-06
5.23987e-06
5.2402e-06
5.24053e-06
5.24084e-06
5.24114e-06
5.24144e-06
5.24172e-06
5.242e-06
5.24227e-06
5.24254e-06
5.24282e-06
5.2431e-06
5.24339e-06
5.24368e-06
5.24398e-06
5.24428e-06
5.24459e-06
5.24491e-06
5.24523e-06
5.24557e-06
5.24591e-06
5.24627e-06
5.24663e-06
5.24701e-06
5.24739e-06
5.24779e-06
5.24819e-06
5.2486e-06
5.24903e-06
5.24946e-06
5.2499e-06
5.25034e-06
5.25078e-06
5.25119e-06
5.25162e-06
5.25208e-06
5.25262e-06
5.25321e-06
5.25376e-06
5.25417e-06
5.25445e-06
5.25487e-06
5.25534e-06
5.25579e-06
5.25623e-06
5.25722e-06
5.25793e-06
5.25886e-06
5.23819e-06
5.23851e-06
5.23883e-06
5.23916e-06
5.23951e-06
5.23985e-06
5.24019e-06
5.24051e-06
5.24083e-06
5.24113e-06
5.24143e-06
5.24171e-06
5.24199e-06
5.24226e-06
5.24253e-06
5.24281e-06
5.24309e-06
5.24338e-06
5.24367e-06
5.24397e-06
5.24428e-06
5.24459e-06
5.2449e-06
5.24523e-06
5.24556e-06
5.2459e-06
5.24626e-06
5.24662e-06
5.247e-06
5.24738e-06
5.24778e-06
5.24818e-06
5.2486e-06
5.24902e-06
5.24946e-06
5.2499e-06
5.25034e-06
5.25077e-06
5.25119e-06
5.25161e-06
5.25208e-06
5.25262e-06
5.25321e-06
5.25376e-06
5.25416e-06
5.25444e-06
5.25487e-06
5.25535e-06
5.2558e-06
5.25623e-06
5.25725e-06
5.25796e-06
5.25887e-06
5.23815e-06
5.23847e-06
5.23879e-06
5.23913e-06
5.23948e-06
5.23983e-06
5.24017e-06
5.2405e-06
5.24082e-06
5.24112e-06
5.24142e-06
5.2417e-06
5.24198e-06
5.24225e-06
5.24252e-06
5.2428e-06
5.24309e-06
5.24337e-06
5.24367e-06
5.24397e-06
5.24427e-06
5.24458e-06
5.2449e-06
5.24522e-06
5.24555e-06
5.2459e-06
5.24625e-06
5.24662e-06
5.24699e-06
5.24738e-06
5.24777e-06
5.24818e-06
5.24859e-06
5.24902e-06
5.24945e-06
5.24989e-06
5.25034e-06
5.25076e-06
5.25118e-06
5.2516e-06
5.25208e-06
5.25262e-06
5.25321e-06
5.25375e-06
5.25416e-06
5.25444e-06
5.25487e-06
5.25535e-06
5.2558e-06
5.25624e-06
5.25727e-06
5.25799e-06
5.25888e-06
5.23776e-06
5.2381e-06
5.23843e-06
5.23876e-06
5.23911e-06
5.23946e-06
5.23981e-06
5.24016e-06
5.24049e-06
5.24081e-06
5.24111e-06
5.24141e-06
5.24169e-06
5.24197e-06
5.24224e-06
5.24252e-06
5.24279e-06
5.24308e-06
5.24337e-06
5.24366e-06
5.24396e-06
5.24426e-06
5.24457e-06
5.24489e-06
5.24521e-06
5.24555e-06
5.24589e-06
5.24625e-06
5.24661e-06
5.24699e-06
5.24737e-06
5.24777e-06
5.24817e-06
5.24859e-06
5.24901e-06
5.24945e-06
5.24989e-06
5.25033e-06
5.25076e-06
5.25117e-06
5.2516e-06
5.25207e-06
5.25262e-06
5.25321e-06
5.25375e-06
5.25415e-06
5.25443e-06
5.25488e-06
5.25536e-06
5.2558e-06
5.25624e-06
5.25729e-06
5.25802e-06
5.25889e-06
5.23772e-06
5.23806e-06
5.23839e-06
5.23873e-06
5.23908e-06
5.23944e-06
5.2398e-06
5.24014e-06
5.24048e-06
5.24079e-06
5.2411e-06
5.24139e-06
5.24168e-06
5.24196e-06
5.24223e-06
5.24251e-06
5.24279e-06
5.24307e-06
5.24336e-06
5.24365e-06
5.24395e-06
5.24426e-06
5.24457e-06
5.24488e-06
5.24521e-06
5.24554e-06
5.24588e-06
5.24624e-06
5.24661e-06
5.24698e-06
5.24737e-06
5.24776e-06
5.24817e-06
5.24858e-06
5.24901e-06
5.24944e-06
5.24989e-06
5.25033e-06
5.25075e-06
5.25116e-06
5.25159e-06
5.25207e-06
5.25262e-06
5.25321e-06
5.25375e-06
5.25414e-06
5.25442e-06
5.25488e-06
5.25536e-06
5.2558e-06
5.25625e-06
5.25732e-06
5.25804e-06
5.2589e-06
5.23768e-06
5.23803e-06
5.23836e-06
5.2387e-06
5.23906e-06
5.23942e-06
5.23978e-06
5.24013e-06
5.24046e-06
5.24078e-06
5.24109e-06
5.24138e-06
5.24167e-06
5.24195e-06
5.24222e-06
5.2425e-06
5.24278e-06
5.24306e-06
5.24335e-06
5.24365e-06
5.24395e-06
5.24425e-06
5.24456e-06
5.24487e-06
5.2452e-06
5.24553e-06
5.24588e-06
5.24623e-06
5.2466e-06
5.24697e-06
5.24736e-06
5.24776e-06
5.24816e-06
5.24858e-06
5.249e-06
5.24944e-06
5.24988e-06
5.25032e-06
5.25075e-06
5.25116e-06
5.25159e-06
5.25206e-06
5.25262e-06
5.25321e-06
5.25375e-06
5.25412e-06
5.25442e-06
5.25488e-06
5.25537e-06
5.2558e-06
5.25626e-06
5.25735e-06
5.25807e-06
5.25891e-06
5.23764e-06
5.23799e-06
5.23833e-06
5.23867e-06
5.23903e-06
5.2394e-06
5.23977e-06
5.24012e-06
5.24045e-06
5.24077e-06
5.24108e-06
5.24137e-06
5.24166e-06
5.24193e-06
5.24221e-06
5.24249e-06
5.24277e-06
5.24306e-06
5.24335e-06
5.24364e-06
5.24394e-06
5.24424e-06
5.24455e-06
5.24487e-06
5.24519e-06
5.24553e-06
5.24587e-06
5.24623e-06
5.24659e-06
5.24697e-06
5.24735e-06
5.24775e-06
5.24816e-06
5.24857e-06
5.249e-06
5.24943e-06
5.24988e-06
5.25032e-06
5.25074e-06
5.25115e-06
5.25158e-06
5.25206e-06
5.25262e-06
5.25321e-06
5.25375e-06
5.25411e-06
5.25441e-06
5.25489e-06
5.25537e-06
5.25581e-06
5.25626e-06
5.25737e-06
5.2581e-06
5.25892e-06
5.23719e-06
5.2376e-06
5.23796e-06
5.2383e-06
5.23864e-06
5.23901e-06
5.23939e-06
5.23975e-06
5.24011e-06
5.24044e-06
5.24076e-06
5.24107e-06
5.24136e-06
5.24165e-06
5.24192e-06
5.2422e-06
5.24248e-06
5.24276e-06
5.24305e-06
5.24334e-06
5.24363e-06
5.24393e-06
5.24423e-06
5.24454e-06
5.24486e-06
5.24518e-06
5.24552e-06
5.24586e-06
5.24622e-06
5.24658e-06
5.24696e-06
5.24735e-06
5.24774e-06
5.24815e-06
5.24857e-06
5.24899e-06
5.24943e-06
5.24987e-06
5.25031e-06
5.25073e-06
5.25114e-06
5.25158e-06
5.25205e-06
5.25262e-06
5.25321e-06
5.25374e-06
5.2541e-06
5.25441e-06
5.25489e-06
5.25538e-06
5.25581e-06
5.25627e-06
5.2574e-06
5.25813e-06
5.25893e-06
5.23715e-06
5.23757e-06
5.23793e-06
5.23827e-06
5.23862e-06
5.23899e-06
5.23937e-06
5.23974e-06
5.24009e-06
5.24043e-06
5.24075e-06
5.24106e-06
5.24135e-06
5.24163e-06
5.24191e-06
5.24219e-06
5.24247e-06
5.24275e-06
5.24304e-06
5.24333e-06
5.24363e-06
5.24392e-06
5.24423e-06
5.24454e-06
5.24485e-06
5.24518e-06
5.24551e-06
5.24586e-06
5.24621e-06
5.24658e-06
5.24695e-06
5.24734e-06
5.24774e-06
5.24815e-06
5.24856e-06
5.24899e-06
5.24943e-06
5.24987e-06
5.25031e-06
5.25073e-06
5.25114e-06
5.25157e-06
5.25205e-06
5.25261e-06
5.25321e-06
5.25374e-06
5.25409e-06
5.2544e-06
5.25489e-06
5.25538e-06
5.25581e-06
5.25628e-06
5.25743e-06
5.25815e-06
5.25894e-06
5.23661e-06
5.23712e-06
5.23754e-06
5.2379e-06
5.23824e-06
5.23859e-06
5.23897e-06
5.23935e-06
5.23973e-06
5.24008e-06
5.24042e-06
5.24074e-06
5.24104e-06
5.24134e-06
5.24162e-06
5.2419e-06
5.24218e-06
5.24246e-06
5.24274e-06
5.24303e-06
5.24332e-06
5.24362e-06
5.24392e-06
5.24422e-06
5.24453e-06
5.24484e-06
5.24517e-06
5.2455e-06
5.24585e-06
5.24621e-06
5.24657e-06
5.24695e-06
5.24733e-06
5.24773e-06
5.24814e-06
5.24856e-06
5.24898e-06
5.24942e-06
5.24986e-06
5.2503e-06
5.25072e-06
5.25113e-06
5.25157e-06
5.25205e-06
5.25261e-06
5.25321e-06
5.25374e-06
5.25408e-06
5.2544e-06
5.2549e-06
5.25538e-06
5.2558e-06
5.25629e-06
5.25746e-06
5.25818e-06
5.25895e-06
5.23657e-06
5.23708e-06
5.2375e-06
5.23787e-06
5.23822e-06
5.23857e-06
5.23895e-06
5.23934e-06
5.23971e-06
5.24007e-06
5.24041e-06
5.24073e-06
5.24103e-06
5.24133e-06
5.24161e-06
5.24189e-06
5.24217e-06
5.24245e-06
5.24274e-06
5.24302e-06
5.24332e-06
5.24361e-06
5.24391e-06
5.24421e-06
5.24452e-06
5.24484e-06
5.24516e-06
5.2455e-06
5.24584e-06
5.2462e-06
5.24656e-06
5.24694e-06
5.24733e-06
5.24772e-06
5.24813e-06
5.24855e-06
5.24898e-06
5.24942e-06
5.24986e-06
5.2503e-06
5.25071e-06
5.25112e-06
5.25156e-06
5.25204e-06
5.25261e-06
5.25322e-06
5.25373e-06
5.25406e-06
5.2544e-06
5.2549e-06
5.25539e-06
5.2558e-06
5.2563e-06
5.25748e-06
5.25821e-06
5.25895e-06
5.23652e-06
5.23705e-06
5.23748e-06
5.23785e-06
5.23819e-06
5.23855e-06
5.23893e-06
5.23932e-06
5.2397e-06
5.24006e-06
5.24039e-06
5.24071e-06
5.24102e-06
5.24131e-06
5.2416e-06
5.24188e-06
5.24216e-06
5.24244e-06
5.24273e-06
5.24302e-06
5.24331e-06
5.2436e-06
5.2439e-06
5.2442e-06
5.24451e-06
5.24483e-06
5.24515e-06
5.24549e-06
5.24584e-06
5.24619e-06
5.24656e-06
5.24693e-06
5.24732e-06
5.24772e-06
5.24813e-06
5.24855e-06
5.24898e-06
5.24941e-06
5.24986e-06
5.25029e-06
5.25071e-06
5.25112e-06
5.25156e-06
5.25204e-06
5.25261e-06
5.25322e-06
5.25373e-06
5.25405e-06
5.2544e-06
5.2549e-06
5.25539e-06
5.2558e-06
5.25632e-06
5.25751e-06
5.25824e-06
5.25896e-06
5.23648e-06
5.23701e-06
5.23745e-06
5.23782e-06
5.23817e-06
5.23853e-06
5.23891e-06
5.23931e-06
5.23969e-06
5.24004e-06
5.24038e-06
5.2407e-06
5.24101e-06
5.2413e-06
5.24159e-06
5.24187e-06
5.24215e-06
5.24243e-06
5.24272e-06
5.24301e-06
5.2433e-06
5.24359e-06
5.24389e-06
5.2442e-06
5.2445e-06
5.24482e-06
5.24515e-06
5.24548e-06
5.24583e-06
5.24618e-06
5.24655e-06
5.24693e-06
5.24731e-06
5.24771e-06
5.24812e-06
5.24854e-06
5.24897e-06
5.24941e-06
5.24985e-06
5.25029e-06
5.2507e-06
5.25111e-06
5.25155e-06
5.25203e-06
5.25261e-06
5.25322e-06
5.25372e-06
5.25404e-06
5.25439e-06
5.25491e-06
5.25539e-06
5.2558e-06
5.25633e-06
5.25754e-06
5.25826e-06
5.25897e-06
5.23644e-06
5.23698e-06
5.23742e-06
5.2378e-06
5.23815e-06
5.23851e-06
5.2389e-06
5.23929e-06
5.23967e-06
5.24003e-06
5.24037e-06
5.24069e-06
5.241e-06
5.24129e-06
5.24157e-06
5.24186e-06
5.24214e-06
5.24242e-06
5.24271e-06
5.243e-06
5.24329e-06
5.24359e-06
5.24388e-06
5.24419e-06
5.2445e-06
5.24481e-06
5.24514e-06
5.24547e-06
5.24582e-06
5.24618e-06
5.24654e-06
5.24692e-06
5.24731e-06
5.24771e-06
5.24812e-06
5.24854e-06
5.24897e-06
5.2494e-06
5.24985e-06
5.25028e-06
5.25069e-06
5.25111e-06
5.25155e-06
5.25203e-06
5.25261e-06
5.25322e-06
5.25372e-06
5.25402e-06
5.25439e-06
5.25491e-06
5.25539e-06
5.2558e-06
5.25635e-06
5.25757e-06
5.25829e-06
5.25898e-06
5.23641e-06
5.23695e-06
5.2374e-06
5.23778e-06
5.23813e-06
5.23849e-06
5.23888e-06
5.23928e-06
5.23966e-06
5.24002e-06
5.24036e-06
5.24068e-06
5.24098e-06
5.24128e-06
5.24156e-06
5.24185e-06
5.24213e-06
5.24242e-06
5.2427e-06
5.24299e-06
5.24328e-06
5.24358e-06
5.24388e-06
5.24418e-06
5.24449e-06
5.2448e-06
5.24513e-06
5.24547e-06
5.24581e-06
5.24617e-06
5.24654e-06
5.24691e-06
5.2473e-06
5.2477e-06
5.24811e-06
5.24853e-06
5.24896e-06
5.2494e-06
5.24984e-06
5.25027e-06
5.25069e-06
5.2511e-06
5.25154e-06
5.25202e-06
5.25261e-06
5.25321e-06
5.25371e-06
5.25401e-06
5.25439e-06
5.25492e-06
5.25539e-06
5.25579e-06
5.25637e-06
5.2576e-06
5.25831e-06
5.25898e-06
5.23637e-06
5.23692e-06
5.23738e-06
5.23776e-06
5.23811e-06
5.23848e-06
5.23887e-06
5.23927e-06
5.23965e-06
5.24001e-06
5.24034e-06
5.24066e-06
5.24097e-06
5.24126e-06
5.24155e-06
5.24183e-06
5.24212e-06
5.24241e-06
5.24269e-06
5.24298e-06
5.24328e-06
5.24357e-06
5.24387e-06
5.24417e-06
5.24448e-06
5.2448e-06
5.24512e-06
5.24546e-06
5.24581e-06
5.24616e-06
5.24653e-06
5.2469e-06
5.24729e-06
5.2477e-06
5.24811e-06
5.24853e-06