/*--------------------------------*- C++ -*----------------------------------*\
  =========                 |
  \\      /  F ield         | OpenFOAM: The Open Source CFD Toolbox
   \\    /   O peration     | Website:  https://openfoam.org
    \\  /    A nd           | Version:  7
     \\/     M anipulation  |
\*---------------------------------------------------------------------------*/
FoamFile
{
    version     2.0;
    format      ascii;
    class       volScalarField;
    location    "1800";
    object      p;
}
// * * * * * * * * * * * * * * * * * * * * * * * * * * * * * * * * * * * * * //

dimensions      [0 2 -2 0 0 0 0];

internalField   nonuniform List<scalar> 
23023
(
1.15362
0.269502
1.1537
1.7544
0.269122
1.15392
2.08436
1.75301
0.269002
1.1542
2.0826
1.75183
0.269086
1.15451
2.95706
2.08089
1.75089
0.269298
1.15489
3.50659
2.95491
2.07927
1.75011
0.269622
1.15535
4.1551
3.50396
2.95267
2.07775
1.74944
0.270044
1.15584
4.71172
4.15185
3.50123
2.95043
2.07626
1.74884
0.270531
1.15633
5.29732
4.70772
4.14858
3.49842
2.9482
2.07476
1.74831
0.271069
1.15681
5.87814
5.2925
4.70387
4.14528
3.4956
2.94594
2.07328
1.74785
0.27165
1.15727
5.87252
5.28795
4.70006
4.14196
3.49273
2.94363
2.07184
1.74747
0.272268
1.15771
6.47541
5.86724
5.28357
4.69631
4.13866
3.48983
2.94131
2.07046
1.74716
0.272919
1.15813
7.08053
6.46939
5.86223
5.27934
4.69266
4.1354
3.48693
2.939
2.06915
1.74691
0.2736
1.15855
7.68288
7.07399
6.46369
5.85744
5.27531
4.68915
4.13218
3.48404
2.93673
2.06791
1.74671
0.274311
1.15898
8.27295
7.67585
7.06772
6.45828
5.8529
5.27151
4.68577
4.12901
3.48118
2.93451
2.06674
1.74657
0.275055
1.15941
8.26538
7.66907
7.06173
6.45311
5.84865
5.26793
4.68251
4.1259
3.47837
2.93235
2.06562
1.74647
0.275834
1.15985
8.84467
8.25805
7.66252
7.05597
6.4482
5.84467
5.26453
4.67934
4.12284
3.47562
2.93024
2.06456
1.74643
0.276653
1.16032
9.41998
8.83673
8.25094
7.65618
7.05045
6.44358
5.84094
5.2613
4.67627
4.11984
3.47291
2.9282
2.06357
1.74644
0.277515
1.1608
9.41123
8.82908
8.24405
7.65008
7.0452
6.43925
5.83744
5.25821
4.67329
4.1169
3.47027
2.92621
2.06264
1.74651
0.278421
1.16132
9.98845
9.40285
8.82167
8.23739
7.64422
7.04024
6.43519
5.83413
5.25525
4.67039
4.11403
3.46768
2.92428
2.06176
1.74663
0.279369
1.16185
10.5722
9.97921
9.39476
8.81448
8.23098
7.63863
7.03555
6.43138
5.83099
5.2524
4.66756
4.11121
3.46515
2.9224
2.06093
1.74679
0.280356
1.16241
11.1628
10.562
9.9704
9.38695
8.80754
8.22483
7.6333
7.03112
6.4278
5.82801
5.24965
4.66481
4.10845
3.46267
2.92059
2.06015
1.74699
0.281375
1.16298
11.7597
11.1517
10.5524
9.96193
9.37942
8.80087
8.21893
7.62823
7.02692
6.42441
5.82517
5.24701
4.66213
4.10576
3.46026
2.91882
2.0594
1.74723
0.282423
1.16356
11.7477
11.1412
10.5431
9.95376
9.37221
8.79446
8.21329
7.62339
7.02293
6.42119
5.82245
5.24446
4.65954
4.10314
3.45789
2.91709
2.05869
1.74749
0.283491
1.16416
12.3505
11.7363
11.1311
10.5342
9.94591
9.3653
8.78832
8.20788
7.61877
7.01914
6.41813
5.81985
5.242
4.65702
4.10057
3.45557
2.9154
2.05801
1.74779
0.284577
1.16475
12.9612
12.338
11.7253
11.1214
10.5257
9.93841
9.35867
8.78242
8.20269
7.61435
7.01552
6.41521
5.81737
5.23965
4.65458
4.09807
3.4533
2.91374
2.05735
1.74811
0.285675
1.16535
12.9477
12.3261
11.7148
11.1121
10.5175
9.93124
9.35231
8.77676
8.19771
7.61012
7.01206
6.41242
5.81501
5.23739
4.65222
4.09562
3.45106
2.91212
2.05673
1.74846
0.286783
1.16596
13.5671
12.9348
12.3147
11.7047
11.1032
10.5097
9.92436
9.34619
8.77131
8.19293
7.60606
7.00875
6.40977
5.81276
5.23524
4.64994
4.09324
3.44887
2.91053
2.05613
1.74882
0.2879
1.16657
14.1977
13.553
12.9224
12.3037
11.695
11.0947
10.5022
9.91777
9.34032
8.76608
8.18834
7.60217
7.00559
6.40725
5.81063
5.23318
4.64773
4.0909
3.44672
2.90897
2.05557
1.74922
0.289028
1.16718
14.1825
13.5396
12.9105
12.2932
11.6858
11.0866
10.4951
9.91143
9.33467
8.76105
8.18393
7.59844
7.00258
6.40485
5.80861
5.23121
4.6456
4.08863
3.44462
2.90746
2.05504
1.74963
0.290167
1.1678
14.8243
14.168
13.5268
12.8991
12.2831
11.6769
11.0788
10.4882
9.90535
9.32925
8.75622
8.1797
7.59487
6.9997
6.40257
5.8067
5.22933
4.64353
4.0864
3.44256
2.90598
2.05454
1.75007
0.291318
1.16843
15.4798
14.8085
14.1541
13.5144
12.8882
12.2735
11.6684
11.0713
10.4816
9.8995
9.32404
8.75159
8.17564
7.59144
6.99695
6.40042
5.80488
5.22754
4.64153
4.08424
3.44055
2.90455
2.05407
1.75054
0.292485
1.16908
15.4628
14.7935
14.1407
13.5026
12.8777
12.2643
11.6602
11.064
10.4752
9.89389
9.31905
8.74714
8.17173
7.58816
6.99433
6.39838
5.80317
5.22582
4.6396
4.08212
3.43858
2.90315
2.05363
1.75103
0.293668
1.16973
16.1323
15.4465
14.779
14.1278
13.4912
12.8677
12.2554
11.6524
11.0571
10.4691
9.88851
9.31426
8.74286
8.16799
7.58501
6.99183
6.39644
5.80154
5.22418
4.63772
4.08007
3.43666
2.90179
2.05322
1.75155
0.294868
1.1704
16.8188
16.1146
15.4309
14.7652
14.1156
13.4804
12.8581
12.2469
11.6449
11.0505
10.4633
9.88335
9.30967
8.73876
8.16439
7.58199
6.98945
6.39461
5.8
5.2226
4.63591
4.07806
3.43479
2.90047
2.05284
1.75209
0.296087
1.17109
16.7997
16.0978
15.416
14.7519
14.1038
13.47
12.8489
12.2387
11.6376
11.0441
10.4577
9.87841
9.30526
8.73482
8.16093
7.5791
6.98718
6.39287
5.79855
5.22109
4.63415
4.0761
3.43295
2.89918
2.05248
1.75265
0.297323
1.17179
17.5035
16.7815
16.0816
15.4016
14.7391
14.0925
13.46
12.84
12.2308
11.6307
11.038
10.4523
9.87368
9.30104
8.73104
8.15761
7.57634
6.98501
6.39123
5.79716
5.21965
4.63245
4.07418
3.43115
2.89791
2.05214
1.75323
0.298576
1.1725
18.2279
17.4838
16.7641
16.0661
15.3878
14.7269
14.0817
13.4504
12.8315
12.2233
11.624
11.0322
10.4472
9.86915
9.29699
8.72741
8.15443
7.57368
6.98295
6.38967
5.79585
5.21827
4.6308
4.07231
3.42938
2.89667
2.05182
1.75383
0.299844
1.17323
18.9747
18.2065
17.4649
16.7473
16.0512
15.3746
14.7152
14.0713
13.4411
12.8233
12.2161
11.6177
11.0266
10.4423
9.86481
9.29311
8.72393
8.15137
7.57115
6.98099
6.3882
5.79461
5.21695
4.62919
4.07047
3.42763
2.89545
2.05151
1.75445
0.301125
1.17396
19.7461
18.9517
18.1862
17.4468
16.7312
16.0369
15.3619
14.704
14.0613
13.4323
12.8154
12.2092
11.6116
11.0212
10.4376
9.86066
9.28939
8.72058
8.14844
7.56872
6.97912
6.38681
5.79344
5.21568
4.62764
4.06866
3.42591
2.89424
2.05122
1.75509
0.302418
1.17471
20.5441
19.7212
18.9297
18.1666
17.4294
16.7158
16.0233
15.3498
14.6932
14.0517
13.4238
12.8079
12.2025
11.6057
11.0161
10.4331
9.85668
9.28582
8.71737
8.14562
7.5664
6.97735
6.38549
5.79233
5.21447
4.62612
4.06689
3.4242
2.89306
2.05094
1.75574
0.303722
1.17547
21.3708
20.5172
19.6975
18.9086
18.1479
17.4128
16.701
16.0101
15.3381
14.6828
14.0425
13.4156
12.8007
12.1962
11.6001
11.0112
10.4288
9.85287
9.2824
8.71429
8.14293
7.56418
6.97566
6.38425
5.79129
5.21332
4.62464
4.06514
3.42252
2.89188
2.05067
1.7564
0.305035
1.17624
21.3418
20.4915
19.6747
18.8883
18.1298
17.3968
16.6868
15.9975
15.3269
14.6728
14.0336
13.4078
12.7938
12.1901
11.5948
11.0065
10.4247
9.84922
9.27913
8.71134
8.14034
7.56205
6.97405
6.38308
5.79032
5.21221
4.62321
4.06342
3.42085
2.89072
2.05042
1.75707
0.306355
1.17702
22.1972
21.3141
20.4669
19.6527
18.8688
18.1125
17.3815
16.6732
15.9854
15.3161
14.6632
14.0252
13.4003
12.7872
12.1843
11.5897
11.002
10.4208
9.84573
9.27598
8.7085
8.13786
7.56002
6.97253
6.38199
5.7894
5.21116
4.62181
4.06173
3.4192
2.88957
2.05017
1.75775
0.307684
1.1778
23.086
22.1671
21.2875
20.4432
19.6317
18.8501
18.096
17.3668
16.6601
15.9738
15.3057
14.6541
14.0171
13.3932
12.7809
12.1787
11.5848
10.9977
10.417
9.84238
9.27297
8.70579
8.13548
7.55808
6.97108
6.38096
5.78855
5.21016
4.62045
4.06006
3.41757
2.88844
2.04993
1.75844
0.309019
1.17859
23.0535
22.1384
21.2619
20.4204
19.6115
18.8322
18.0801
17.3526
16.6475
15.9626
15.2958
14.6453
14.0093
13.3863
12.7749
12.1734
11.5801
10.9936
10.4134
9.83918
9.27009
8.70318
8.1332
7.55622
6.96971
6.38
5.78775
5.2092
4.61912
4.05842
3.41596
2.88732
2.04971
1.75914
0.310363
1.17939
23.9758
23.0225
22.1109
21.2372
20.3986
19.5921
18.815
18.0648
17.3391
16.6354
15.9518
15.2863
14.6369
14.0019
13.3797
12.7691
12.1682
11.5756
10.9897
10.4099
9.83612
9.26733
8.70068
8.13101
7.55444
6.96841
6.3791
5.78701
5.20829
4.61783
4.0568
3.41436
2.88621
2.04949
1.75986
0.311714
1.1802
24.937
23.9422
22.9927
22.0843
21.2136
20.3777
19.5735
18.7985
18.0502
17.326
16.6238
15.9416
15.2772
14.6288
13.9947
13.3734
12.7635
12.1634
11.5713
10.9859
10.4066
9.83319
9.26468
8.69828
8.12891
7.55274
6.96718
6.37826
5.78632
5.20742
4.61658
4.05521
3.41279
2.88512
2.04928
1.76058
0.313074
1.18101
25.9403
24.9007
23.91
22.9641
22.0588
21.191
20.3576
19.5557
18.7827
18.0361
17.3135
16.6127
15.9317
15.2685
14.6211
13.9879
13.3674
12.7582
12.1587
11.5672
10.9823
10.4035
9.83038
9.26214
8.69598
8.12689
7.55111
6.96602
6.37749
5.78568
5.2066
4.61536
4.05365
3.41123
2.88404
2.04909
1.76132
0.314443
1.18184
26.9893
25.901
24.8659
23.8792
22.9365
22.0343
21.1693
20.3383
19.5386
18.7675
18.0226
17.3015
16.6021
15.9223
15.2601
14.6137
13.9814
13.3617
12.7531
12.1542
11.5633
10.9789
10.4004
9.8277
9.25971
8.69377
8.12495
7.54955
6.96491
6.37677
5.78509
5.20582
4.61417
4.05211
3.40969
2.88298
2.04891
1.76207
0.315822
1.18267
28.0877
26.9468
25.8635
24.8326
23.8495
22.9101
22.0109
21.1485
20.3198
19.5221
18.7529
18.0096
17.29
16.5919
15.9132
15.2521
14.6066
13.9751
13.3561
12.7482
12.1499
11.5595
10.9756
10.3975
9.82513
9.25738
8.69164
8.12308
7.54806
6.96387
6.3761
5.78455
5.20507
4.61301
4.05059
3.40817
2.88193
2.04874
1.76284
0.317212
1.18351
29.2398
28.0418
26.9062
25.8274
24.8004
23.8209
22.8847
21.9884
21.1285
20.3021
19.5064
18.7389
17.9972
17.279
16.5821
15.9046
15.2445
14.5998
13.9691
13.3508
12.7436
12.1458
11.5559
10.9724
10.3948
9.82267
9.25515
8.6896
8.12129
7.54663
6.96288
6.37548
5.78405
5.20436
4.61188
4.0491
3.40666
2.88089
2.04858
1.76362
0.318612
1.18436
30.45
29.19
27.9978
26.8672
25.7927
24.7695
23.7934
22.8604
21.9668
21.1093
20.285
19.4913
18.7255
17.9853
17.2684
16.5728
15.8963
15.2371
14.5934
13.9634
13.3458
12.7391
12.1419
11.5524
10.9694
10.3921
9.82032
9.25301
8.68764
8.11957
7.54527
6.96195
6.37491
5.7836
5.20369
4.61078
4.04763
3.40517
2.87986
2.04843
1.76441
0.320022
1.18521
31.7234
30.3961
29.1424
27.9556
26.8296
25.7592
24.7399
23.7671
22.837
21.9461
21.0909
20.2687
19.4768
18.7126
17.9739
17.2583
16.5638
15.8884
15.2301
14.5871
13.9579
13.3409
12.7349
12.1381
11.5491
10.9665
10.3896
9.81807
9.25096
8.68576
8.11791
7.54396
6.96107
6.37439
5.78318
5.20305
4.6097
4.04617
3.4037
2.87885
2.04829
1.76521
0.321442
1.18608
33.0654
31.665
30.3445
29.0967
27.9149
26.7935
25.7272
24.7114
23.7419
22.8147
21.9262
21.0732
20.253
19.4629
18.7003
17.9629
17.2486
16.5552
15.8808
15.2234
14.5812
13.9527
13.3363
12.7308
12.1345
11.546
10.9638
10.3872
9.81592
9.24899
8.68395
8.11633
7.54271
6.96025
6.37391
5.7828
5.20245
4.60866
4.04474
3.40223
2.87785
2.04817
1.76603
0.322872
1.18695
34.4822
33.0022
31.6091
30.295
29.0527
27.8758
26.7588
25.6964
24.6842
23.7177
22.7932
21.9071
21.0563
20.238
19.4495
18.6885
17.9525
17.2394
16.547
15.8735
15.2169
14.5755
13.9476
13.3319
12.7269
12.1311
11.543
10.9611
10.3849
9.81386
9.24711
8.68222
8.1148
7.54152
6.95946
6.37348
5.78246
5.20187
4.60763
4.04332
3.40078
2.87686
2.04805
1.76686
0.324312
1.18783
35.9803
34.4136
32.9416
31.5554
30.2473
29.0103
27.8383
26.7255
25.6669
24.658
23.6945
22.7725
21.8888
21.0401
20.2236
19.4368
18.6772
17.9424
17.2305
16.5391
15.8665
15.2107
14.57
13.9428
13.3276
12.7231
12.1278
11.5401
10.9586
10.3827
9.8119
9.2453
8.68055
8.11334
7.54038
6.95873
6.37308
5.78216
5.20133
4.60663
4.04192
3.39934
2.87587
2.04794
1.76771
0.32576
1.18871
37.5672
35.9059
34.3478
32.8834
31.5038
30.2015
28.9697
27.8023
26.6936
25.6386
24.6329
23.6722
22.7528
21.8712
21.0245
20.2098
19.4246
18.6663
17.9328
17.222
16.5316
15.8598
15.2048
14.5648
13.9382
13.3235
12.7195
12.1246
11.5373
10.9562
10.3806
9.81002
9.24358
8.67896
8.11193
7.53929
6.95804
6.37273
5.78189
5.20081
4.60565
4.04053
3.39791
2.8749
2.04785
1.76856
0.327214
1.18961
39.2515
37.4864
35.8345
34.2846
32.8273
31.4541
30.1574
28.9307
27.7677
26.6629
25.6115
24.6088
23.6508
22.7338
21.8544
21.0096
20.1966
19.4128
18.6559
17.9236
17.2138
16.5244
15.8534
15.1991
14.5598
13.9338
13.3197
12.7161
12.1216
11.5347
10.9539
10.3786
9.80822
9.24192
8.67742
8.11058
7.53824
6.95739
6.37241
5.78165
5.20032
4.60468
4.03915
3.39648
2.87393
2.04776
1.76942
0.328676
1.19051
41.0428
39.1636
37.4088
35.7659
34.2238
32.7734
31.4063
30.1152
28.8933
27.7346
26.6336
25.5854
24.5857
23.6303
22.7156
21.8383
20.9953
20.1839
19.4016
18.646
17.9148
17.206
16.5175
15.8473
15.1937
14.555
13.9295
13.3159
12.7128
12.1187
11.5322
10.9517
10.3767
9.80651
9.24034
8.67595
8.10929
7.53725
6.95678
6.37213
5.78145
5.19986
4.60374
4.03779
3.39507
2.87297
2.04767
1.7703
0.330152
1.19141
42.952
40.9472
39.0792
37.3342
35.6998
34.1654
32.7217
31.3605
30.0747
28.8574
27.7028
26.6054
25.5604
24.5635
23.6107
22.6982
21.8228
20.9816
20.1718
19.3909
18.6365
17.9064
17.1985
16.5108
15.8414
15.1885
14.5504
13.9255
13.3124
12.7097
12.116
11.5298
10.9496
10.3748
9.80487
9.23883
8.67454
8.10804
7.5363
6.95622
6.37189
5.78128
5.19942
4.60281
4.03643
3.39366
2.87202
2.0476
1.77118
0.331635
1.1923
44.9912
42.8479
40.8554
38.9981
37.2625
35.6363
34.1092
32.672
31.3166
30.0358
28.823
27.6722
26.5783
25.5364
24.5422
23.5918
22.6814
21.808
20.9685
20.1601
19.3805
18.6273
17.8983
17.1914
16.5045
15.8358
15.1836
14.546
13.9216
13.3089
12.7067
12.1134
11.5275
10.9476
10.3731
9.80331
9.23739
8.67319
8.10685
7.53539
6.95569
6.37168
5.78114
5.19901
4.6019
4.03509
3.39226
2.87108
2.04753
1.77207
0.333103
1.19318
44.8778
42.7479
40.7671
38.9201
37.1935
35.5754
34.0553
32.6244
31.2745
29.9985
28.7899
27.643
26.5524
25.5134
24.5218
23.5737
22.6654
21.7938
20.9559
20.149
19.3707
18.6186
17.8905
17.1845
16.4984
15.8304
15.1788
14.5418
13.9179
13.3057
12.7038
12.1109
11.5253
10.9457
10.3714
9.80183
9.236
8.67189
8.1057
7.53452
6.9552
6.37151
5.78103
5.19862
4.60101
4.03376
3.39087
2.87013
2.04746
1.77294
0.334552
1.19405
47.05
44.7689
42.6518
40.6822
38.8451
37.1273
35.5169
34.0036
32.5787
31.234
29.9626
28.7582
27.6149
26.5275
25.4913
24.5023
23.5564
22.65
21.7802
20.9438
20.1383
19.3612
18.6102
17.8831
17.1779
16.4926
15.8253
15.1742
14.5378
13.9144
13.3026
12.7011
12.1085
11.5232
10.9439
10.3698
9.80041
9.23468
8.67064
8.1046
7.5337
6.95475
6.37137
5.78095
5.19825
4.60013
4.03244
3.38947
2.86918
2.04737
1.77379
0.335995
1.19492
46.9313
44.6642
42.5593
40.6005
38.7731
37.0637
35.4607
33.954
32.5348
31.1952
29.9283
28.7278
27.5879
26.5036
25.4702
24.4835
23.5398
22.6353
21.7671
20.9323
20.1281
19.3521
18.6022
17.876
17.1716
16.487
15.8203
15.1699
14.5339
13.911
13.2996
12.6985
12.1062
11.5212
10.9422
10.3683
9.79905
9.23342
8.66945
8.10354
7.53291
6.95434
6.37126
5.78089
5.1979
4.59927
4.03112
3.38806
2.86822
2.04728
1.77463
0.337434
1.19578
49.2499
46.8173
44.5634
42.4704
40.5221
38.7039
37.0027
35.4068
33.9064
32.4927
31.158
29.8953
28.6986
27.5621
26.4807
25.4499
24.4655
23.5238
22.6212
21.7546
20.9212
20.1183
19.3435
18.5945
17.8692
17.1656
16.4817
15.8156
15.1657
14.5302
13.9077
13.2967
12.696
12.104
11.5193
10.9405
10.3669
9.79777
9.23221
8.6683
8.10252
7.53217
6.95396
6.37118
5.78086
5.19757
4.59841
4.02978
3.38665
2.86726
2.04718
1.77547
0.338867
1.19663
49.1255
46.7076
44.4665
42.385
40.4469
38.6376
36.9441
35.3551
33.8607
32.4523
31.1222
29.8637
28.6706
27.5373
26.4587
25.4304
24.4483
23.5085
22.6077
21.7427
20.9106
20.1089
19.3352
18.5871
17.8627
17.1598
16.4766
15.8111
15.1617
14.5267
13.9046
13.294
12.6936
12.1019
11.5175
10.939
10.3655
9.79654
9.23106
8.6672
8.10155
7.53146
6.95361
6.37114
5.78086
5.19725
4.59754
4.02844
3.38524
2.86628
2.04707
1.7763
0.340292
1.19747
49.006
46.6021
44.3735
42.303
40.3747
38.5739
36.8879
35.3055
33.8168
32.4135
31.0879
29.8333
28.6437
27.5135
26.4376
25.4117
24.4317
23.4939
22.5947
21.7312
20.9004
20.0999
19.3272
18.5801
17.8565
17.1543
16.4717
15.8068
15.1579
14.5233
13.9016
13.2914
12.6913
12.0999
11.5157
10.9375
10.3642
9.79537
9.22996
8.66614
8.10061
7.53078
6.9533
6.37112
5.78087
5.19693
4.59665
4.02709
3.38381
2.8653
2.04696
1.77711
0.341708
1.19831
48.8911
46.5007
44.2841
42.2243
40.3053
38.5128
36.834
35.2579
33.7748
32.3763
31.055
29.8042
28.6179
27.4906
26.4174
25.3939
24.4159
23.4799
22.5823
21.7202
20.8907
20.0913
19.3196
18.5733
17.8505
17.149
16.467
15.8026
15.1542
14.5201
13.8988
13.2889
12.6891
12.098
11.5141
10.936
10.363
9.79426
9.2289
8.66513
8.09971
7.53014
6.95301
6.37112
5.78087
5.19658
4.59576
4.02573
3.38238
2.86431
2.04684
1.77792
0.343117
1.19913
51.3506
48.7806
46.4032
44.1983
42.1488
40.2388
38.4541
36.7822
35.2122
33.7344
32.3406
31.0234
29.7763
28.5932
27.4688
26.3981
25.3767
24.4007
23.4664
22.5704
21.7096
20.8814
20.083
19.3123
18.5669
17.8448
17.1439
16.4625
15.7987
15.1507
14.517
13.8961
13.2866
12.687
12.0962
11.5125
10.9347
10.3618
9.7932
9.2279
8.66415
8.09884
7.52953
6.95275
6.37112
5.78085
5.19621
4.59484
4.02436
3.38093
2.86331
2.0467
1.77871
0.344517
1.19995
51.2302
48.6744
46.3096
44.116
42.0763
40.175
38.3978
36.7326
35.1683
33.6956
32.3064
30.9931
29.7495
28.5695
27.4478
26.3795
25.3603
24.3862
23.4535
22.559
21.6995
20.8724
20.0751
19.3053
18.5607
17.8393
17.1391
16.4582
15.7949
15.1474
14.5141
13.8935
13.2843
12.6851
12.0944
11.511
10.9334
10.3607
9.7922
9.22694
8.66322
8.09801
7.52893
6.95247
6.37108
5.7808
5.19582
4.5939
4.02296
3.37947
2.8623
2.04656
1.77949
0.34591
1.20076
53.8722
51.1146
48.5723
46.2197
44.0369
42.0068
40.1137
38.3438
36.6849
35.1262
33.6585
32.2735
30.9641
29.7238
28.5468
27.4277
26.3617
25.3445
24.3722
23.4412
22.548
21.6899
20.8639
20.0675
19.2986
18.5547
17.834
17.1345
16.4541
15.7912
15.1442
14.5113
13.8911
13.2821
12.6832
12.0928
11.5096
10.9322
10.3596
9.79124
9.22602
8.66232
8.0972
7.52833
6.95216
6.37101
5.78072
5.19541
4.59295
4.02156
3.378
2.86128
2.04641
1.78026
0.347294
1.20155
53.7456
51.0034
48.4742
46.1334
43.9611
41.94
40.0549
38.2919
36.6392
35.0859
33.6228
32.242
30.9363
29.6992
28.525
27.4084
26.3447
25.3294
24.3589
23.4294
22.5376
21.6806
20.8557
20.0603
19.2921
18.5491
17.829
17.13
16.4502
15.7878
15.1411
14.5086
13.8887
13.2801
12.6814
12.0912
11.5082
10.931
10.3586
9.79034
9.22514
8.66144
8.09637
7.52769
6.95182
6.37091
5.78062
5.19497
4.59198
4.02014
3.37652
2.86024
2.04624
1.78101
0.348669
1.20234
53.6239
50.8963
48.38
46.0506
43.8883
41.8759
39.9985
38.2422
36.5953
35.0471
33.5886
32.2118
30.9096
29.6756
28.5041
27.39
26.3283
25.315
24.3461
23.418
22.5275
21.6717
20.8478
20.0533
19.286
18.5437
17.8242
17.1258
16.4465
15.7845
15.1382
14.506
13.8864
13.2781
12.6797
12.0897
11.5069
10.9299
10.3577
9.78948
9.22428
8.66054
8.0955
7.52701
6.95145
6.37078
5.78049
5.1945
4.59098
4.0187
3.37503
2.8592
2.04607
1.78176
0.350037
1.20312
53.507
50.7934
48.2895
45.9712
43.8184
41.8144
39.9443
38.1945
36.5532
35.01
33.5558
32.1828
30.884
29.6529
28.4841
27.3723
26.3126
25.3011
24.3338
23.4072
22.5179
21.6632
20.8403
20.0467
19.2801
18.5385
17.8196
17.1217
16.4429
15.7813
15.1354
14.5036
13.8843
13.2762
12.678
12.0883
11.5057
10.9288
10.3568
9.78864
9.22341
8.6596
8.0946
7.5263
6.95104
6.37062
5.78032
5.19401
4.58997
4.01725
3.37352
2.85814
2.04589
1.78249
0.351395
1.20389
53.3946
50.6946
48.2027
45.8949
43.7513
41.7554
39.8923
38.1487
36.5128
34.9743
33.5243
32.155
30.8594
29.6313
28.4649
27.3553
26.2976
25.2878
24.322
23.3968
22.5087
21.6551
20.8331
20.0403
19.2745
18.5335
17.8152
17.1179
16.4394
15.7783
15.1328
14.5012
13.8823
13.2744
12.6765
12.087
11.5045
10.9279
10.3559
9.78778
9.22249
8.65863
8.09367
7.52556
6.9506
6.37043
5.78013
5.1935
4.58893
4.01578
3.372
2.85707
2.04569
1.7832
0.352745
1.20465
53.2866
50.5996
48.1193
45.8217
43.687
41.6988
39.8425
38.1047
36.4741
34.9402
33.4942
32.1284
30.8359
29.6105
28.4466
27.339
26.2833
25.2751
24.3108
23.3868
22.4999
21.6473
20.8262
20.0342
19.2691
18.5287
17.8111
17.1142
16.4362
15.7754
15.1302
14.499
13.8803
13.2727
12.675
12.0857
11.5034
10.9269
10.355
9.78688
9.22153
8.65761
8.09269
7.52478
6.95013
6.3702
5.7799
5.19295
4.58787
4.01429
3.37047
2.85599
2.04548
1.7839
0.354086
1.2054
53.1829
50.5085
48.0393
45.7514
43.6252
41.6445
39.7947
38.0626
36.4369
34.9074
33.4653
32.1029
30.8133
29.5905
28.4289
27.3234
26.2695
25.2629
24.3
23.3773
22.4915
21.6398
20.8196
20.0284
19.264
18.5242
17.807
17.1106
16.433
15.7726
15.1278
14.4969
13.8785
13.2711
12.6736
12.0845
11.5024
10.9259
10.354
9.78592
9.22052
8.65655
8.09167
7.52396
6.94961
6.36994
5.77964
5.19237
4.58679
4.01278
3.36892
2.85489
2.04526
1.78459
0.355418
1.20614
53.0833
50.421
47.9626
45.684
43.566
41.5924
39.7488
38.0222
36.4013
34.876
33.4376
32.0784
30.7917
29.5714
28.4121
27.3085
26.2563
25.2512
24.2897
23.3681
22.4834
21.6327
20.8133
20.0229
19.2591
18.5199
17.8032
17.1072
16.4301
15.77
15.1255
14.4948
13.8767
13.2696
12.6723
12.0833
11.5013
10.9249
10.353
9.78492
9.21946
8.65545
8.09061
7.5231
6.94906
6.36963
5.77935
5.19177
4.58567
4.01124
3.36735
2.85378
2.04503
1.78526
0.35674
1.20687
52.9877
50.3371
47.8889
45.6193
43.5091
41.5424
39.7048
37.9834
36.3671
34.8459
33.411
32.0549
30.771
29.5531
28.3959
27.2942
26.2436
25.24
24.2798
23.3594
22.4757
21.6259
20.8073
20.0175
19.2544
18.5157
17.7996
17.104
16.4272
15.7675
15.1233
14.4929
13.875
13.2681
12.671
12.0821
11.5001
10.9238
10.352
9.78386
9.21836
8.6543
8.08951
7.5222
6.94847
6.36929
5.77902
5.19113
4.58454
4.00969
3.36576
2.85265
2.04478
1.78591
0.358053
1.20759
52.8959
50.2565
47.8182
45.5572
43.4546
41.4944
39.6626
37.9463
36.3344
34.817
33.3855
32.0324
30.7511
29.5356
28.3804
27.2805
26.2315
25.2293
24.2703
23.351
22.4683
21.6193
20.8015
20.0124
19.2499
18.5118
17.7961
17.1009
16.4245
15.7651
15.1212
14.4911
13.8734
13.2667
12.6696
12.0808
11.4989
10.9226
10.3509
9.78275
9.2172
8.6531
8.08836
7.52125
6.94783
6.36891
5.77865
5.19045
4.58337
4.00812
3.36416
2.85151
2.04452
1.78655
0.359356
1.20829
52.8079
50.1792
47.7504
45.4977
43.4022
41.4484
39.6221
37.9106
36.303
34.7893
33.361
32.0109
30.7321
29.5187
28.3655
27.2674
26.2199
25.2191
24.2612
23.343
22.4612
21.6131
20.796
20.0076
19.2456
18.508
17.7927
17.098
16.4219
15.7628
15.1192
14.4893
13.8718
13.2652
12.6682
12.0794
11.4976
10.9214
10.3497
9.78159
9.21599
8.65185
8.08717
7.52026
6.94715
6.36848
5.77824
5.18975
4.58217
4.00652
3.36253
2.85034
2.04424
1.78717
0.360648
1.20898
52.7234
50.105
47.6853
45.4405
43.352
41.4043
39.5833
37.8764
36.2728
34.7627
33.3376
31.9902
30.7138
29.5026
28.3513
27.2548
26.2088
25.2092
24.2525
23.3353
22.4544
21.6071
20.7907
20.0029
19.2415
18.5043
17.7895
17.0952
16.4194
15.7607
15.1172
14.4876
13.8702
13.2637
12.6667
12.078
11.4962
10.9201
10.3485
9.78036
9.21473
8.65055
8.08592
7.51922
6.94642
6.36801
5.77779
5.189
4.58095
4.00489
3.36089
2.84916
2.04395
1.78777
0.361929
1.20966
52.6423
50.0339
47.6229
45.3857
43.3039
41.3619
39.546
37.8436
36.2439
34.7373
33.3152
31.9704
30.6963
29.4872
28.3376
27.2427
26.1981
25.1998
24.2442
23.328
22.4479
21.6014
20.7857
19.9985
19.2376
18.5009
17.7865
17.0925
16.4171
15.7586
15.1154
14.4859
13.8686
13.2621
12.6652
12.0765
11.4948
10.9188
10.3472
9.77908
9.21341
8.64919
8.08462
7.51813
6.94564
6.3675
5.77729
5.18822
4.57969
4.00324
3.35922
2.84796
2.04364
1.78836
0.363199
1.21032
52.5644
49.9655
47.5629
45.3331
43.2577
41.3213
39.5103
37.8122
36.2162
34.7128
33.2936
31.9514
30.6796
29.4724
28.3246
27.2312
26.1879
25.1908
24.2363
23.3209
22.4417
21.5959
20.7808
19.9942
19.2338
18.4976
17.7836
17.0899
16.4148
15.7566
15.1135
14.484
13.8668
13.2604
12.6636
12.075
11.4933
10.9173
10.3458
9.77773
9.21203
8.64778
8.08327
7.51699
6.94482
6.36693
5.77675
5.18739
4.5784
4.00156
3.35754
2.84674
2.04331
1.78892
0.364458
1.21097
52.4897
49.9
47.5055
45.2827
43.2134
41.2824
39.476
37.782
36.1897
34.6894
33.273
31.9332
30.6635
29.4582
28.312
27.2202
26.1782
25.1822
24.2286
23.3142
22.4358
21.5906
20.7762
19.9902
19.2303
18.4945
17.7808
17.0875
16.4126
15.7545
15.1115
14.4821
13.8649
13.2586
12.6619
12.0733
11.4918
10.9158
10.3444
9.77631
9.21058
8.64631
8.08187
7.5158
6.94394
6.36632
5.77617
5.18653
4.57707
3.99985
3.35583
2.8455
2.04296
1.78946
0.365704
1.2116
52.4181
49.8371
47.4503
45.2343
43.1709
41.245
39.4432
37.7531
36.1642
34.667
33.2532
31.9158
30.6481
29.4446
28.3001
27.2096
26.1688
25.1739
24.2214
23.3078
22.4301
21.5856
20.7718
19.9863
19.2268
18.4915
17.7782
17.0851
16.4104
15.7523
15.1094
14.4801
13.863
13.2568
12.6601
12.0716
11.4901
10.9143
10.3429
9.77483
9.20907
8.64477
8.0804
7.51455
6.94301
6.36566
5.77554
5.18562
4.5757
3.99811
3.35409
2.84423
2.0426
1.78998
0.366938
1.21222
52.3493
49.7768
47.3974
45.1878
43.1301
41.2092
39.4117
37.7254
36.1398
34.6455
33.2343
31.899
30.6334
29.4316
28.2886
27.1995
26.1599
25.1661
24.2144
23.3016
22.4247
21.5809
20.7676
19.9826
19.2236
18.4886
17.7756
17.0827
16.408
15.75
15.1072
14.4779
13.8609
13.2548
12.6582
12.0698
11.4884
10.9126
10.3413
9.77327
9.20749
8.64318
8.07887
7.51324
6.94203
6.36494
5.77486
5.18467
4.5743
3.99634
3.35233
2.84295
2.04222
1.79048
0.368158
1.21282
52.2833
49.7189
47.3466
45.1433
43.091
41.1748
39.3815
37.6988
36.1164
34.6249
33.2161
31.883
30.6193
29.4192
28.2776
27.1898
26.1513
25.1585
24.2077
23.2957
22.4195
21.5763
20.7636
19.979
19.2205
18.4858
17.773
17.0801
16.4056
15.7477
15.1049
14.4757
13.8588
13.2527
12.6562
12.0679
11.4866
10.9109
10.3396
9.77164
9.20584
8.64151
8.07728
7.51188
6.94098
6.36416
5.77412
5.18368
4.57286
3.99454
3.35054
2.84163
2.04182
1.79095
0.369365
1.2134
52.22
49.6633
47.298
45.1006
43.0535
41.1419
39.3525
37.6734
36.094
34.6052
33.1987
31.8677
30.6058
29.4073
28.2671
27.1805
26.1432
25.1513
24.2013
23.2901
22.4145
21.5719
20.7598
19.9757
19.2175
18.483
17.7702
17.0775
16.403
15.7451
15.1025
14.4734
13.8566
13.2506
12.6541
12.0659
11.4847
10.9091
10.3379
9.76993
9.20412
8.63978
8.07563
7.51044
6.93988
6.36333
5.77334
5.18263
4.57138
3.9927
3.34873
2.8403
2.04139
1.79141
0.370558
1.21396
52.1592
49.6101
47.2513
45.0596
43.0175
41.1103
39.3248
37.6489
36.0725
34.5862
33.1821
31.853
30.5928
29.3959
28.257
27.1716
26.1353
25.1444
24.1953
23.2847
22.4098
21.5678
20.7561
19.9724
19.2144
18.48
17.7673
17.0747
16.4003
15.7425
15.0999
14.4709
13.8542
13.2483
12.652
12.0638
11.4827
10.9072
10.3361
9.76814
9.20232
8.63797
8.0739
7.50895
6.93871
6.36244
5.77249
5.18153
4.56985
3.99083
3.34688
2.83894
2.04095
1.79183
0.371736
1.2145
52.1009
49.559
47.2065
45.0203
42.983
41.08
39.2981
37.6255
36.0519
34.5681
33.1661
31.839
30.5804
29.3849
28.2474
27.1631
26.1278
25.1378
24.1894
23.2796
22.4053
21.5638
20.7525
19.969
19.2111
18.4768
17.7643
17.0717
16.3974
15.7398
15.0973
14.4684
13.8517
13.246
12.6497
12.0616
11.4806
10.9052
10.3342
9.76627
9.20044
8.63608
8.07211
7.50738
6.93748
6.36149
5.77159
5.18038
4.56828
3.98892
3.34501
2.83755
2.04048
1.79223
0.372899
1.21502
52.045
49.5099
47.1635
44.9826
42.95
41.051
39.2726
37.6031
36.0322
34.5508
33.1508
31.8255
30.5686
29.3745
28.2382
27.155
26.1207
25.1314
24.1839
23.2747
22.401
21.5599
20.7489
19.9655
19.2077
18.4735
17.7611
17.0686
16.3944
15.7369
15.0945
14.4657
13.8492
13.2435
12.6473
12.0594
11.4784
10.9031
10.3322
9.7643
9.19847
8.63412
8.07024
7.50575
6.93617
6.36047
5.77063
5.17918
4.56667
3.98698
3.34311
2.83614
2.03999
1.7926
0.374045
1.21552
51.9914
49.4629
47.1223
44.9465
42.9183
41.0232
39.2482
37.5816
36.0133
34.5341
33.1362
31.8126
30.5572
29.3645
28.2294
27.1472
26.1138
25.1254
24.1785
23.27
22.3967
21.5559
20.7451
19.9618
19.2041
18.4701
17.7578
17.0654
16.3913
15.7339
15.0916
14.4629
13.8465
13.2409
12.6448
12.057
11.4761
10.9009
10.33
9.76225
9.19642
8.63208
8.06829
7.50403
6.9348
6.35938
5.7696
5.17792
4.565
3.98499
3.34117
2.83469
2.03948
1.79294
0.375175
1.21599
51.9399
49.4178
47.0828
44.9118
42.8879
40.9965
39.2247
37.561
35.9952
34.5182
33.1221
31.8003
30.5463
29.3549
28.2209
27.1398
26.1073
25.1196
24.1734
23.2654
22.3924
21.5518
20.741
19.9579
19.2004
18.4665
17.7543
17.062
16.3881
15.7307
15.0885
14.4599
13.8436
13.2382
12.6422
12.0544
11.4737
10.8986
10.3278
9.76009
9.19428
8.62995
8.06626
7.50225
6.93336
6.35822
5.76851
5.1766
4.56328
3.98296
3.3392
2.83322
2.03893
1.79325
0.376288
1.21644
51.8905
49.3746
47.0449
44.8786
42.8587
40.9709
39.2023
37.5413
35.9778
34.5029
33.1087
31.7884
30.5359
29.3457
28.2128
27.1327
26.101
25.1141
24.1685
23.2607
22.3879
21.5474
20.7368
19.9539
19.1965
18.4627
17.7506
17.0585
16.3846
15.7274
15.0853
14.4569
13.8407
13.2353
12.6394
12.0518
11.4711
10.8962
10.3255
9.75784
9.19204
8.62773
8.06414
7.50038
6.93183
6.35699
5.76734
5.17521
4.56151
3.98088
3.3372
2.83171
2.03837
1.79353
0.377382
1.21687
51.8432
49.3331
47.0085
44.8468
42.8308
40.9464
39.1808
37.5224
35.9612
34.4883
33.0958
31.7771
30.526
29.3369
28.2051
27.1259
26.095
25.1087
24.1634
23.2558
22.3832
21.5429
20.7324
19.9496
19.1924
18.4587
17.7468
17.0548
16.3811
15.7239
15.082
14.4536
13.8376
13.2323
12.6366
12.0491
11.4685
10.8937
10.3231
9.75549
9.1897
8.62541
8.06194
7.49842
6.93023
6.35568
5.76611
5.17377
4.55969
3.97877
3.33516
2.83017
2.03777
1.79377
0.378457
1.21727
51.7978
49.2933
46.9737
44.8162
42.804
40.9229
39.1601
37.5042
35.9453
34.4743
33.0835
31.7663
30.5164
29.3286
28.1977
27.1194
26.0892
25.1032
24.1581
23.2507
22.3782
21.5381
20.7278
19.9452
19.1881
18.4546
17.7428
17.0509
16.3773
15.7203
15.0785
14.4503
13.8343
13.2292
12.6336
12.0462
11.4657
10.891
10.3206
9.75302
9.18726
8.623
8.05964
7.49638
6.92854
6.35429
5.7648
5.17225
4.5578
3.9766
3.33308
2.8286
2.03715
1.79398
0.379513
1.21764
51.7542
49.2551
46.9403
44.787
42.7784
40.9004
39.1404
37.4869
35.93
34.4609
33.0717
31.7559
30.5073
29.3205
28.1907
27.113
26.0832
25.0974
24.1525
23.2453
22.373
21.5331
20.723
19.9405
19.1836
18.4502
17.7386
17.0469
16.3734
15.7165
15.0748
14.4467
13.8309
13.2259
12.6304
12.0431
11.4629
10.8883
10.3179
9.75044
9.18472
8.62049
8.05725
7.49425
6.92676
6.35282
5.76341
5.17066
4.55586
3.97439
3.33096
2.82699
2.0365
1.79416
0.380549
1.21798
51.7125
49.2186
46.9083
44.7589
42.7538
40.8788
39.1214
37.4702
35.9154
34.448
33.0604
31.746
30.4986
29.3128
28.1838
27.1065
26.0769
25.0914
24.1467
23.2397
22.3676
21.5279
20.718
19.9357
19.1789
18.4457
17.7342
17.0426
16.3693
15.7126
15.071
14.443
13.8274
13.2225
12.6272
12.04
11.4598