/*--------------------------------*- C++ -*----------------------------------*\
  =========                 |
  \\      /  F ield         | OpenFOAM: The Open Source CFD Toolbox
   \\    /   O peration     | Website:  https://openfoam.org
    \\  /    A nd           | Version:  7
     \\/     M anipulation  |
\*---------------------------------------------------------------------------*/
FoamFile
{
    version     2.0;
    format      ascii;
    class       surfaceScalarField;
    location    "1800";
    object      phi;
}
// * * * * * * * * * * * * * * * * * * * * * * * * * * * * * * * * * * * * * //

dimensions      [0 3 -1 0 0 0 0];

internalField   nonuniform List<scalar> 
45693
(
-0.00164459
0.0637867
-0.00164397
0.0618436
-0.00157837
0.0637864
-0.00164349
0.0598647
-0.00157777
0.061843
-0.00151491
0.063786
0.0579734
-0.00157732
0.0598643
-0.00151434
0.0618424
-0.00145387
0.0637857
-0.00157678
0.0579729
-0.0015139
0.0598638
-0.00145332
0.0618419
-0.00139533
0.0637854
-0.00157631
0.0561238
-0.00151338
0.0579723
-0.0014529
0.0598634
-0.00139481
0.0618413
-0.00133921
0.0637852
-0.00157586
0.0543269
-0.00151294
0.0561234
-0.0014524
0.0579718
-0.00139441
0.059863
-0.00133871
0.0618408
-0.0012853
0.0637849
-0.00157546
0.0526006
-0.0015125
0.0543265
-0.00145197
0.056123
-0.00139393
0.0579714
-0.00133832
0.0598626
-0.00128481
0.0618404
-0.00123355
0.0637846
-0.00157509
0.0509207
-0.00151212
0.0526002
-0.00145156
0.0543261
-0.00139352
0.0561225
-0.00133786
0.0579709
-0.00128445
0.0598623
-0.00123308
0.0618399
-0.00118386
0.0637844
-0.00157474
0.049274
-0.00151177
0.0509204
-0.00145119
0.0525998
-0.00139312
0.0543257
-0.00133747
0.0561221
-0.00128401
0.0579705
-0.00123273
0.0598619
-0.00118341
0.0618394
-0.00113623
0.0637841
0.0476865
-0.00151143
0.0492736
-0.00145085
0.05092
-0.00139277
0.0525995
-0.00133708
0.0543253
-0.00128363
0.0561218
-0.00123231
0.05797
-0.00118308
0.0598616
-0.0011358
0.061839
-0.00109051
0.0637839
-0.0015111
0.0476861
-0.00145053
0.0492733
-0.00139244
0.0509197
-0.00133675
0.0525991
-0.00128326
0.0543249
-0.00123195
0.0561214
-0.00118267
0.0579696
-0.00113548
0.0598612
-0.0010901
0.0618386
-0.0010466
0.0637837
-0.00151077
0.0461348
-0.00145021
0.0476858
-0.00139213
0.049273
-0.00133643
0.0509194
-0.00128294
0.0525988
-0.00123159
0.0543246
-0.00118232
0.0561211
-0.00113509
0.0579692
-0.00108979
0.0598609
-0.0010462
0.0618382
-0.00100449
0.0637835
-0.00151045
0.0446334
-0.0014499
0.0461345
-0.00139183
0.0476855
-0.00133614
0.0492727
-0.00128263
0.0509191
-0.00123128
0.0525985
-0.00118198
0.0543242
-0.00113475
0.0561207
-0.00108941
0.0579689
-0.00104591
0.0598606
-0.00100411
0.0618378
-0.000964047
0.0637833
-0.00151014
0.0431823
-0.00144959
0.044633
-0.00139153
0.0461342
-0.00133585
0.0476852
-0.00128235
0.0492724
-0.00123099
0.0509188
-0.00118168
0.0525982
-0.00113443
0.0543239
-0.00108909
0.0561204
-0.00104555
0.0579685
-0.00100383
0.0598604
-0.000963683
0.0618375
-0.000925209
0.0637831
0.0417691
-0.00144929
0.043182
-0.00139123
0.0446328
-0.00133556
0.0461339
-0.00128207
0.047685
-0.00123072
0.0492721
-0.00118141
0.0509185
-0.00113414
0.0525979
-0.00108878
0.0543236
-0.00104524
0.0561201
-0.00100349
0.0579682
-0.000963413
0.0598601
-0.00092486
0.0618371
-0.000887979
0.0637829
-0.00144901
0.0417689
-0.00139095
0.0431817
-0.00133528
0.0446325
-0.0012818
0.0461336
-0.00123045
0.0476847
-0.00118115
0.0492719
-0.00113387
0.0509182
-0.0010885
0.0525976
-0.00104494
0.0543233
-0.00100319
0.0561198
-0.000963081
0.0579678
-0.000924602
0.0598598
-0.000887645
0.0618368
-0.000852256
0.0637828
-0.00144874
0.0404127
-0.00139068
0.0417686
-0.001335
0.0431814
-0.00128153
0.0446322
-0.00123019
0.0461334
-0.00118089
0.0476844
-0.00113362
0.0492716
-0.00108825
0.050918
-0.00104467
0.0525974
-0.0010029
0.054323
-0.000962797
0.0561195
-0.000924283
0.0579675
-0.000887397
0.0598596
-0.000851936
0.0618365
-0.000817941
0.0637826
0.0390803
-0.00139042
0.0404125
-0.00133475
0.0417683
-0.00128127
0.0431812
-0.00122993
0.0446319
-0.00118064
0.0461331
-0.00113338
0.0476842
-0.00108801
0.0492714
-0.00104443
0.0509177
-0.00100265
0.0525971
-0.00096252
0.0543227
-0.000924011
0.0561192
-0.000887091
0.0579672
-0.000851699
0.0598594
-0.000817633
0.0618362
-0.000784981
0.0637824
-0.00139018
0.0390801
-0.0013345
0.0404122
-0.00128102
0.0417681
-0.00122968
0.0431809
-0.00118039
0.0446317
-0.00113314
0.0461329
-0.00108777
0.047684
-0.0010442
0.0492712
-0.00100241
0.0509175
-0.000962276
0.0525969
-0.000923744
0.0543225
-0.00088683
0.056119
-0.000851405
0.0579669
-0.000817406
0.0598591
-0.000784687
0.0618359
-0.000753429
0.0637823
-0.00138994
0.0377959
-0.00133427
0.0390799
-0.00128078
0.040412
-0.00122944
0.0417678
-0.00118015
0.0431807
-0.0011329
0.0446315
-0.00108754
0.0461326
-0.00104397
0.0476837
-0.00100219
0.0492709
-0.00096205
0.0509173
-0.00092351
0.0525967
-0.000886573
0.0543222
-0.000851154
0.0561187
-0.000817124
0.0579666
-0.000784469
0.0598589
-0.000753146
0.0618356
-0.000723082
0.0637821
-0.00138971
0.0365467
-0.00133404
0.0377957
-0.00128056
0.0390796
-0.00122922
0.0404118
-0.00117992
0.0417676
-0.00113267
0.0431804
-0.00108731
0.0446312
-0.00104375
0.0461324
-0.00100198
0.0476835
-0.000961839
0.0492707
-0.000923294
0.0509171
-0.000886349
0.0525964
-0.000850908
0.054322
-0.000816884
0.0561185
-0.000784199
0.0579664
-0.000752938
0.0598587
-0.000722811
0.0618353
-0.000693992
0.063782
-0.00138949
0.0353375
-0.00133382
0.0365465
-0.00128034
0.0377955
-0.001229
0.0390794
-0.0011797
0.0404115
-0.00113245
0.0417674
-0.00108709
0.0431802
-0.00104353
0.044631
-0.00100176
0.0461322
-0.000961633
0.0476833
-0.000923091
0.0492705
-0.000886141
0.0509169
-0.000850693
0.0525962
-0.000816647
0.0543217
-0.000783968
0.0561183
-0.000752679
0.0579661
-0.000722612
0.0598585
-0.000693732
0.061835
-0.000666007
0.0637819
0.0341636
-0.0013336
0.0353373
-0.00128013
0.0365463
-0.00122879
0.0377953
-0.0011795
0.0390792
-0.00113224
0.0404113
-0.00108688
0.0417672
-0.00104332
0.04318
-0.00100155
0.0446308
-0.000961428
0.046132
-0.000922893
0.0476831
-0.000885947
0.0492703
-0.000850493
0.0509167
-0.00081644
0.052596
-0.00078374
0.0543215
-0.000752457
0.056118
-0.000722363
0.0579658
-0.000693541
0.0598583
-0.000665757
0.0618348
-0.000639278
0.0637818
-0.0013334
0.0341634
-0.00127992
0.0353371
-0.00122859
0.0365461
-0.0011793
0.0377951
-0.00113204
0.039079
-0.00108668
0.0404111
-0.00104312
0.041767
-0.00100135
0.0431798
-0.000961226
0.0446306
-0.000922697
0.0461318
-0.000885757
0.0476829
-0.000850307
0.0492701
-0.000816248
0.0509165
-0.000783542
0.0525958
-0.000752238
0.0543213
-0.00072215
0.0561178
-0.000693302
0.0579656
-0.000665575
0.0598581
-0.000639039
0.0618346
-0.000613453
0.0637816
-0.00133319
0.0330248
-0.00127973
0.0341632
-0.00122839
0.0353369
-0.0011791
0.0365459
-0.00113185
0.0377949
-0.00108649
0.0390788
-0.00104293
0.0404109
-0.00100116
0.0417668
-0.000961032
0.0431796
-0.000922504
0.0446304
-0.000885569
0.0461316
-0.000850125
0.0476827
-0.00081607
0.04927
-0.000783358
0.0509163
-0.000752048
0.0525956
-0.00072194
0.0543211
-0.000693098
0.0561176
-0.000665346
0.0579654
-0.000638864
0.0598579
-0.000613224
0.0618343
-0.000588834
0.0637815
0.0319226
-0.00127953
0.0330246
-0.0012282
0.034163
-0.00117892
0.0353367
-0.00113167
0.0365457
-0.00108631
0.0377947
-0.00104275
0.0390787
-0.00100097
0.0404108
-0.000960847
0.0417666
-0.000922317
0.0431794
-0.000885384
0.0446302
-0.000849944
0.0461314
-0.000815895
0.0476826
-0.000783187
0.0492698
-0.000751871
0.0509161
-0.000721757
0.0525954
-0.000692896
0.0543209
-0.000665149
0.0561174
-0.000638644
0.0579652
-0.000613056
0.0598578
-0.000588614
0.0618341
-0.00056507
0.0637814
-0.00127934
0.0319224
-0.00122802
0.0330244
-0.00117873
0.0341629
-0.00113149
0.0353366
-0.00108613
0.0365455
-0.00104257
0.0377945
-0.0010008
0.0390785
-0.000960671
0.0404106
-0.000922139
0.0417664
-0.000885205
0.0431792
-0.000849767
0.04463
-0.000815723
0.0461313
-0.000783019
0.0476824
-0.000751707
0.0492696
-0.000721587
0.0509159
-0.00069272
0.0525953
-0.000664956
0.0543207
-0.000638456
0.0561172
-0.000612846
0.0579649
-0.000588454
0.0598576
-0.000564859
0.0618339
-0.00054236
0.0637813
-0.00127916
0.0308517
-0.00122784
0.0319222
-0.00117856
0.0330242
-0.00113131
0.0341627
-0.00108596
0.0353364
-0.0010424
0.0365453
-0.00100063
0.0377943
-0.000960505
0.0390783
-0.000921971
0.0404104
-0.000885034
0.0417663
-0.000849595
0.0431791
-0.000815552
0.0446299
-0.000782854
0.0461311
-0.000751546
0.0476822
-0.00072143
0.0492695
-0.000692557
0.0509158
-0.000664787
0.0525951
-0.00063827
0.0543205
-0.000612665
0.0561171
-0.000588252
0.0579647
-0.000564705
0.0598575
-0.000542158
0.0618337
-0.000520555
0.0637812
0.0298138
-0.00122766
0.0308516
-0.00117838
0.031922
-0.00113114
0.0330241
-0.00108579
0.0341625
-0.00104224
0.0353362
-0.00100047
0.0365452
-0.000960344
0.0377942
-0.000921812
0.0390782
-0.000884873
0.0404103
-0.000849432
0.0417661
-0.000815388
0.0431789
-0.00078269
0.0446297
-0.000751388
0.0461309
-0.000721276
0.0476821
-0.000692406
0.0492693
-0.00066463
0.0509156
-0.000638107
0.0525949
-0.000612486
0.0543203
-0.000588078
0.0561169
-0.000564511
0.0579645
-0.000542011
0.0598573
-0.000520361
0.0618335
-0.000499554
0.0637811
-0.00122749
0.0298136
-0.00117822
0.0308514
-0.00113098
0.0319219
-0.00108563
0.0330239
-0.00104208
0.0341624
-0.00100031
0.0353361
-0.000960188
0.036545
-0.000921657
0.037794
-0.00088472
0.039078
-0.000849277
0.0404101
-0.000815231
0.0417659
-0.000782532
0.0431787
-0.000751231
0.0446295
-0.000721124
0.0461308
-0.000692259
0.0476819
-0.000664485
0.0492692
-0.000637957
0.0509155
-0.00061233
0.0525948
-0.000587907
0.0543201
-0.000564345
0.0561167
-0.000541825
0.0579644
-0.00052022
0.0598572
-0.000499368
0.0618333
-0.000479457
0.063781
-0.00122732
0.028806
-0.00117805
0.0298135
-0.00113082
0.0308512
-0.00108547
0.0319217
-0.00104192
0.0330238
-0.00100016
0.0341622
-0.000960036
0.0353359
-0.000921508
0.0365449
-0.000884572
0.0377939
-0.00084913
0.0390779
-0.000815083
0.04041
-0.000782382
0.0417658
-0.000751079
0.0431786
-0.000720974
0.0446294
-0.000692113
0.0461306
-0.000664344
0.0476818
-0.000637818
0.049269
-0.000612186
0.0509153
-0.000587757
0.0525946
-0.00056418
0.05432
-0.000541665
0.0561166
-0.000520042
0.0579642
-0.000499233
0.059857
-0.000479278
0.0618331
-0.000460164
0.0637809
0.0278311
-0.00117789
0.0288059
-0.00113066
0.0298133
-0.00108532
0.0308511
-0.00104177
0.0319216
-0.00100001
0.0330236
-0.000959889
0.0341621
-0.000921363
0.0353358
-0.000884429
0.0365447
-0.000848989
0.0377937
-0.000814942
0.0390777
-0.00078224
0.0404098
-0.000750935
0.0417656
-0.000720829
0.0431784
-0.000691969
0.0446293
-0.000664204
0.0461305
-0.000637682
0.0476817
-0.000612052
0.0492689
-0.000587618
0.0509152
-0.000564036
0.0525945
-0.000541507
0.0543198
-0.000519888
0.0561164
-0.000499062
0.057964
-0.000479149
0.0598569
-0.000459993
0.061833
-0.000441624
0.0637808
-0.00117773
0.0278309
-0.00113051
0.0288057
-0.00108517
0.0298132
-0.00104162
0.0308509
-0.000999864
0.0319214
-0.000959747
0.0330235
-0.000921222
0.0341619
-0.00088429
0.0353356
-0.000848851
0.0365446
-0.000814806
0.0377936
-0.000782105
0.0390776
-0.000750799
0.0404097
-0.00072069
0.0417655
-0.00069183
0.0431783
-0.000664066
0.0446291
-0.000637548
0.0461304
-0.000611922
0.0476815
-0.00058749
0.0492688
-0.000563903
0.0509151
-0.000541368
0.0525943
-0.000519736
0.0543197
-0.000498915
0.0561163
-0.000478985
0.0579638
-0.000459869
0.0598568
-0.00044146
0.0618328
-0.000423889
0.0637808
-0.00117758
0.0268826
-0.00113036
0.0278308
-0.00108502
0.0288056
-0.00104148
0.029813
-0.000999722
0.0308508
-0.000959608
0.0319213
-0.000921086
0.0330233
-0.000884155
0.0341618
-0.000848718
0.0353355
-0.000814675
0.0365445
-0.000781975
0.0377935
-0.00075067
0.0390774
-0.00072056
0.0404095
-0.000691697
0.0417654
-0.000663933
0.0431782
-0.000637416
0.044629
-0.000611794
0.0461302
-0.000587366
0.0476814
-0.00056378
0.0492687
-0.00054124
0.0509149
-0.000519603
0.0525942
-0.000498768
0.0543195
-0.000478844
0.0561161
-0.000459712
0.0579637
-0.000441342
0.0598567
-0.000423731
0.0618326
-0.000406756
0.0637807
0.0259655
-0.00113021
0.0268824
-0.00108488
0.0278306
-0.00104134
0.0288054
-0.000999584
0.0298129
-0.000959473
0.0308506
-0.000920953
0.0319211
-0.000884025
0.0330232
-0.000848589
0.0341617
-0.000814547
0.0353354
-0.000781849
0.0365443
-0.000750545
0.0377933
-0.000720435
0.0390773
-0.000691572
0.0404094
-0.000663805
0.0417652
-0.000637288
0.043178
-0.000611667
0.0446289
-0.000587243
0.0461301
-0.000563661
0.0476813
-0.000541122
0.0492685
-0.00051948
0.0509148
-0.00049864
0.0525941
-0.000478703
0.0543194
-0.000459576
0.056116
-0.000441191
0.0579635
-0.000423618
0.0598566
-0.000406605
0.0618325
-0.000390427
0.0637806
-0.00113006
0.0259654
-0.00108473
0.0268823
-0.0010412
0.0278305
-0.000999449
0.0288053
-0.000959341
0.0298128
-0.000920823
0.0308505
-0.000883897
0.031921
-0.000848464
0.0330231
-0.000814423
0.0341615
-0.000781727
0.0353352
-0.000750424
0.0365442
-0.000720316
0.0377932
-0.000691453
0.0390772
-0.000663685
0.0404093
-0.000637166
0.0417651
-0.000611544
0.0431779
-0.000587121
0.0446287
-0.000563543
0.04613
-0.000541008
0.0476812
-0.000519367
0.0492684
-0.000498522
0.0509147
-0.00047858
0.052594
-0.000459441
0.0543192
-0.000441061
0.0561158
-0.000423474
0.0579634
-0.000406497
0.0598565
-0.000390283
0.0618324
-0.000374701
0.0637805
-0.00112991
0.0250736
-0.00108459
0.0259652
-0.00104106
0.0268821
-0.000999317
0.0278303
-0.000959212
0.0288052
-0.000920697
0.0298126
-0.000883773
0.0308504
-0.000848342
0.0319209
-0.000814303
0.033023
-0.000781608
0.0341614
-0.000750307
0.0353351
-0.0007202
0.0365441
-0.000691338
0.0377931
-0.000663571
0.0390771
-0.00063705
0.0404092
-0.000611427
0.041765
-0.000587003
0.0431778
-0.000563426
0.0446286
-0.000540895
0.0461299
-0.000519257
0.0476811
-0.000498414
0.0492683
-0.000478467
0.0509146
-0.000459323
0.0525938
-0.000440931
0.0543191
-0.000423349
0.0561157
-0.000406358
0.0579633
-0.000390179
0.0598564
-0.000374563
0.0618322
-0.000359639
0.0637805
-0.00112977
0.0242095
-0.00108445
0.0250735
-0.00104093
0.0259651
-0.000999187
0.026882
-0.000959085
0.0278302
-0.000920574
0.028805
-0.000883653
0.0298125
-0.000848223
0.0308503
-0.000814187
0.0319208
-0.000781493
0.0330228
-0.000750193
0.0341613
-0.000720088
0.035335
-0.000691227
0.036544
-0.000663461
0.037793
-0.000636941
0.039077
-0.000611317
0.0404091
-0.00058689
0.0417649
-0.000563313
0.0431777
-0.000540783
0.0446285
-0.000519149
0.0461298
-0.000498309
0.047681
-0.000478363
0.0492682
-0.000459214
0.0509145
-0.000440818
0.0525937
-0.000423224
0.054319
-0.000406238
0.0561156
-0.000390046
0.0579631
-0.000374464
0.0598563
-0.000359506
0.0618321
-0.000345144
0.0637804
-0.00112962
0.0233717
-0.00108431
0.0242094
-0.00104079
0.0250734
-0.000999058
0.025965
-0.000958961
0.0268819
-0.000920452
0.0278301
-0.000883534
0.0288049
-0.000848108
0.0298124
-0.000814073
0.0308502
-0.000781381
0.0319207
-0.000750083
0.0330227
-0.000719979
0.0341612
-0.000691119
0.0353349
-0.000663355
0.0365439
-0.000636835
0.0377929
-0.000611211
0.0390769
-0.000586784
0.040409
-0.000563205
0.0417648
-0.000540674
0.0431776
-0.000519042
0.0446284
-0.000498205
0.0461297
-0.000478262
0.0476809
-0.000459114
0.0492681
-0.000440713
0.0509144
-0.000423115
0.0525936
-0.000406119
0.0543189
-0.000389931
0.0561155
-0.000374336
0.057963
-0.000359411
0.0598562
-0.000345016
0.061832
-0.000331252
0.0637803
-0.00112947
0.0225579
-0.00108417
0.0233716
-0.00104066
0.0242092
-0.00099893
0.0250732
-0.000958838
0.0259648
-0.000920333
0.0268818
-0.000883418
0.02783
-0.000847994
0.0288048
-0.000813962
0.0298123
-0.000781272
0.0308501
-0.000749976
0.0319206
-0.000719873
0.0330226
-0.000691015
0.0341611
-0.000663251
0.0353348
-0.000636733
0.0365438
-0.00061111
0.0377928
-0.000586683
0.0390768
-0.000563103
0.0404089
-0.000540571
0.0417647
-0.000518938
0.0431775
-0.000498102
0.0446283
-0.000478163
0.0461296
-0.000459018
0.0476808
-0.000440617
0.049268
-0.000423014
0.0509143
-0.000406014
0.0525935
-0.000389816
0.0543187
-0.000374226
0.0561154
-0.000359289
0.0579629
-0.000344926
0.0598561
-0.00033113
0.0618318
-0.000317918
0.0637803
-0.00112932
0.0217691
-0.00108403
0.0225578
-0.00104053
0.0233715
-0.000998803
0.0242091
-0.000958716
0.0250731
-0.000920216
0.0259647
-0.000883305
0.0268816
-0.000847884
0.0278299
-0.000813854
0.0288047
-0.000781166
0.0298122
-0.000749872
0.0308499
-0.000719771
0.0319205
-0.000690914
0.0330225
-0.000663151
0.034161
-0.000636634
0.0353347
-0.000611013
0.0365437
-0.000586587
0.0377927
-0.000563006
0.0390767
-0.000540473
0.0404088
-0.000518838
0.0417646
-0.000498002
0.0431774
-0.000478064
0.0446282
-0.000458922
0.0461295
-0.000440525
0.0476807
-0.000422922
0.0492679
-0.000405917
0.0509142
-0.000389715
0.0525934
-0.000374115
0.0543186
-0.000359183
0.0561153
-0.000344808
0.0579628
-0.000331043
0.059856
-0.000317801
0.0618317
-0.000305121
0.0637802
0.0210029
-0.00108389
0.021769
-0.00104039
0.0225576
-0.000998676
0.0233713
-0.000958594
0.024209
-0.000920099
0.025073
-0.000883192
0.0259646
-0.000847775
0.0268815
-0.000813748
0.0278298
-0.000781063
0.0288046
-0.00074977
0.0298121
-0.000719671
0.0308498
-0.000690816
0.0319204
-0.000663055
0.0330224
-0.000636539
0.0341609
-0.000610918
0.0353346
-0.000586493
0.0365436
-0.000562914
0.0377926
-0.000540381
0.0390766
-0.000518745
0.0404087
-0.000497907
0.0417645
-0.000477968
0.0431773
-0.000458828
0.0446281
-0.000440433
0.0461294
-0.000422833
0.0476806
-0.000405829
0.0492678
-0.000389622
0.0509141
-0.000374018
0.0525933
-0.000359077
0.0543185
-0.000344707
0.0561152
-0.00033093
0.0579626
-0.000317717
0.0598559
-0.000305009
0.0618316
-0.000292837
0.0637802
-0.00108375
0.0210028
-0.00104026
0.0217688
-0.000998549
0.0225575
-0.000958473
0.0233712
-0.000919983
0.0242089
-0.000883081
0.0250729
-0.000847667
0.0259645
-0.000813644
0.0268814
-0.000780961
0.0278297
-0.000749671
0.0288045
-0.000719574
0.029812
-0.00069072
0.0308498
-0.00066296
0.0319203
-0.000636446
0.0330223
-0.000610826
0.0341608
-0.000586402
0.0353345
-0.000562824
0.0365435
-0.000540291
0.0377925
-0.000518656
0.0390765
-0.000497817
0.0404086
-0.000477877
0.0417644
-0.000458736
0.0431772
-0.000440342
0.044628
-0.000422746
0.0461293
-0.000405744
0.0476805
-0.000389538
0.0492678
-0.000373929
0.050914
-0.000358983
0.0525932
-0.000344605
0.0543184
-0.000330833
0.0561151
-0.00031761
0.0579625
-0.000304929
0.0598558
-0.000292729
0.0618315
-0.00028105
0.0637801
-0.0010836
0.0202591
-0.00104012
0.0210026
-0.00099842
0.0217687
-0.000958351
0.0225574
-0.000919867
0.0233711
-0.00088297
0.0242088
-0.000847561
0.0250728
-0.000813541
0.0259644
-0.000780861
0.0268813
-0.000749574
0.0278296
-0.000719479
0.0288044
-0.000690627
0.0298119
-0.000662869
0.0308497
-0.000636355
0.0319202
-0.000610737
0.0330222
-0.000586314
0.0341607
-0.000562737
0.0353344
-0.000540205
0.0365434
-0.00051857
0.0377924
-0.000497732
0.0390764
-0.000477791
0.0404085
-0.000458648
0.0417643
-0.000440254
0.0431771
-0.000422659
0.0446279
-0.00040566
0.0461292
-0.000389456
0.0476804
-0.000373848
0.0492677
-0.000358898
0.0509139
-0.000344515
0.0525931
-0.000330735
0.0543183
-0.000317516
0.056115
-0.000304826
0.0579624
-0.000292653
0.0598557
-0.000280947
0.0618314
-0.00026974
0.0637801
0.019539
-0.00103998
0.020259
-0.00099829
0.0210025
-0.000958229
0.0217686
-0.000919751
0.0225573
-0.000882859
0.023371
-0.000847455
0.0242087
-0.000813439
0.0250727
-0.000780763
0.0259643
-0.000749478
0.0268812
-0.000719386
0.0278295
-0.000690536
0.0288043
-0.00066278
0.0298118
-0.000636268
0.0308496
-0.000610651
0.0319201
-0.000586229
0.0330222
-0.000562652
0.0341606
-0.000540122
0.0353343
-0.000518488
0.0365433
-0.00049765
0.0377923
-0.000477709
0.0390763
-0.000458565
0.0404084
-0.00044017
0.0417642
-0.000422574
0.043177
-0.000405576
0.0446278
-0.000389375
0.0461291
-0.000373769
0.0476803
-0.00035882
0.0492676
-0.000344433
0.0509138
-0.000330649
0.052593
-0.000317422
0.0543182
-0.000304736
0.0561149
-0.000292554
0.0579623
-0.000280874
0.0598557
-0.000269641
0.0618313
-0.000258878
0.06378
-0.00103984
0.0195389
-0.000998157
0.0202588
-0.000958104
0.0210024
-0.000919634
0.0217685
-0.000882748
0.0225572
-0.000847349
0.0233709
-0.000813338
0.0242086
-0.000780666
0.0250726
-0.000749384
0.0259642
-0.000719294
0.0268811
-0.000690447
0.0278294
-0.000662693
0.0288042
-0.000636182
0.0298117
-0.000610567
0.0308495
-0.000586146
0.03192
-0.00056257
0.0330221
-0.000540041
0.0341605
-0.000518408
0.0353343
-0.000497571
0.0365433
-0.00047763
0.0377923
-0.000458487
0.0390763
-0.000440091
0.0404083
-0.000422494
0.0417641
-0.000405495
0.0431769
-0.000389295
0.0446278
-0.000373692
0.0461291
-0.000358744
0.0476803
-0.000344358
0.0492675
-0.00033057
0.0509137
-0.000317339
0.052593
-0.000304645
0.0543181
-0.000292468
0.0561148
-0.000280779
0.0579622
-0.000269572
0.0598556
-0.000258783
0.0618312
-0.000248458
0.06378
-0.00103969
0.0188388
-0.000998021
0.0195387
-0.000957978
0.0202587
-0.000919515
0.0210023
-0.000882637
0.0217683
-0.000847243
0.022557
-0.000813237
0.0233708
-0.000780569
0.0242085
-0.000749291
0.0250725
-0.000719204
0.0259641
-0.000690359
0.0268811
-0.000662607
0.0278293
-0.000636099
0.0288041
-0.000610485
0.0298116
-0.000586065
0.0308494
-0.000562491
0.0319199
-0.000539962
0.033022
-0.00051833
0.0341605
-0.000497494
0.0353342
-0.000477554
0.0365432
-0.000458411
0.0377922
-0.000440015
0.0390762
-0.000422417
0.0404083
-0.000405418
0.0417641
-0.000389218
0.0431769
-0.000373616
0.0446277
-0.00035867
0.046129
-0.000344286
0.0476802
-0.000330498
0.0492674
-0.000317263
0.0509137
-0.000304566
0.0525929
-0.000292381
0.0543181
-0.000280696
0.0561147
-0.000269481
0.0579621
-0.000258717
0.0598555
-0.000248367
0.0618311
-0.000238455
0.0637799
-0.00103954
0.0181586
-0.000997882
0.0188386
-0.000957849
0.0195386
-0.000919395
0.0202586
-0.000882524
0.0210021
-0.000847137
0.0217682
-0.000813136
0.0225569
-0.000780473
0.0233707
-0.000749199
0.0242084
-0.000719115
0.0250724
-0.000690273
0.025964
-0.000662524
0.026881
-0.000636017
0.0278292
-0.000610405
0.0288041
-0.000585987
0.0298115
-0.000562414
0.0308493
-0.000539886
0.0319199
-0.000518255
0.0330219
-0.000497419
0.0341604
-0.000477481
0.0353341
-0.000458338
0.0365431
-0.000439943
0.0377921
-0.000422345
0.0390761
-0.000405345
0.0404082
-0.000389143
0.041764
-0.000373541
0.0431768
-0.000358597
0.0446276
-0.000344215
0.0461289
-0.000330429
0.0476801
-0.000317194
0.0492674
-0.000304493
0.0509136
-0.000292304
0.0525928
-0.000280613
0.054318
-0.000269401
0.0561146
-0.000258629
0.0579621
-0.000248303
0.0598555
-0.000238367
0.061831
-0.000228858
0.0637799
-0.00103939
0.0174994
-0.000997739
0.0181585
-0.000957716
0.0188385
-0.000919272
0.0195385
-0.000882409
0.0202585
-0.000847029
0.021002
-0.000813034
0.0217681
-0.000780376
0.0225569
-0.000749107
0.0233706
-0.000719027
0.0242083
-0.000690188
0.0250723
-0.000662441
0.0259639
-0.000635937
0.0268809
-0.000610326
0.0278291
-0.00058591
0.028804
-0.000562339
0.0298115
-0.000539812
0.0308493
-0.000518182
0.0319198
-0.000497347
0.0330219
-0.000477409
0.0341603
-0.000458268
0.035334
-0.000439873
0.036543
-0.000422276
0.0377921
-0.000405275
0.039076
-0.000389073
0.0404081
-0.00037347
0.0417639
-0.000358525
0.0431767
-0.000344144
0.0446275
-0.000330361
0.0461288
-0.000317128
0.04768
-0.000304427
0.0492673
-0.000292234
0.0509135
-0.000280539
0.0525927
-0.000269321
0.0543179
-0.000258553
0.0561146
-0.000248219
0.057962
-0.000238306
0.0598554
-0.000228775
0.0618309
-0.000219644
0.0637798
-0.00103922
0.0168588
-0.00099759
0.0174993
-0.00095758
0.0181584
-0.000919146
0.0188384
-0.000882291
0.0195384
-0.000846919
0.0202584
-0.000812931
0.0210019
-0.000780279
0.021768
-0.000749014
0.0225568
-0.000718939
0.0233705
-0.000690104
0.0242082
-0.00066236
0.0250722
-0.000635858
0.0259639
-0.00061025
0.0268808
-0.000585835
0.0278291
-0.000562265
0.0288039
-0.00053974
0.0298114
-0.000518111
0.0308492
-0.000497277
0.0319197
-0.00047734
0.0330218
-0.000458199
0.0341603
-0.000439806
0.035334
-0.000422209
0.036543
-0.000405209
0.037792
-0.000389006
0.039076
-0.000373402
0.040408
-0.000358457
0.0417638
-0.000344076
0.0431766
-0.000330293
0.0446275
-0.000317062
0.0461288
-0.000304363
0.04768
-0.000292171
0.0492672
-0.000280472
0.0509134
-0.000269251
0.0525927
-0.000258476
0.0543178
-0.000248146
0.0561145
-0.000238226
0.0579619
-0.000228716
0.0598553
-0.000219564
0.0618309
-0.000210806
0.0637798
-0.00103905
0.0162366
-0.000997436
0.0168586
-0.000957438
0.0174991
-0.000919016
0.0181582
-0.000882171
0.0188383
-0.000846807
0.0195382
-0.000812826
0.0202583
-0.000780181
0.0210018
-0.000748921
0.0217679
-0.000718851
0.0225567
-0.000690019
0.0233704
-0.000662279
0.0242081
-0.00063578
0.0250721
-0.000610174
0.0259638
-0.000585762
0.0268807
-0.000562194
0.027829
-0.00053967
0.0288038
-0.000518042
0.0298113
-0.00049721
0.0308491
-0.000477273
0.0319196
-0.000458133
0.0330217
-0.00043974
0.0341602
-0.000422144
0.0353339
-0.000405145
0.0365429
-0.000388943
0.0377919
-0.000373338
0.0390759
-0.000358392
0.040408
-0.00034401
0.0417638
-0.000330227
0.0431766
-0.000316998
0.0446274
-0.0003043
0.0461287
-0.000292109
0.0476799
-0.000280411
0.0492672
-0.000269186
0.0509134
-0.000258408
0.0525926
-0.000248072
0.0543177
-0.000238156
0.0561144
-0.00022864
0.0579618
-0.000219508
0.0598553
-0.00021073
0.0618308
-0.000202315
0.0637798
-0.00103887
0.0156316
-0.000997274
0.0162364
-0.000957291
0.0168585
-0.000918881
0.017499
-0.000882047
0.0181581
-0.000846693
0.0188382
-0.00081272
0.0195381
-0.000780081
0.0202582
-0.000748828
0.0210017
-0.000718762
0.0217679
-0.000689935
0.0225566
-0.000662198
0.0233703
-0.000635703
0.024208
-0.0006101
0.0250721
-0.00058569
0.0259637
-0.000562123
0.0268807
-0.000539601
0.0278289
-0.000517975
0.0288038
-0.000497143
0.0298113
-0.000477208
0.0308491
-0.000458069
0.0319196
-0.000439676
0.0330217
-0.000422081
0.0341601
-0.000405082
0.0353338
-0.000388881
0.0365428
-0.000373277
0.0377919
-0.000358331
0.0390758
-0.000343948
0.0404079
-0.000330164
0.0417637
-0.000316935
0.0431765
-0.000304238
0.0446273
-0.00029205
0.0461287
-0.000280352
0.0476799
-0.000269127
0.0492671
-0.000258346
0.0509133
-0.000248007
0.0525925
-0.000238085
0.0543177
-0.000228572
0.0561144
-0.000219434
0.0579617
-0.000210676
0.0598552
-0.000202242
0.0618307
-0.000194176
0.0637797
-0.00103868
0.0150448
-0.000997103
0.0156314
-0.000957137
0.0162363
-0.000918741
0.0168583
-0.000881919
0.0174989
-0.000846575
0.018158
-0.00081261
0.018838
-0.000779979
0.019538
-0.000748732
0.0202581
-0.000718672
0.0210016
-0.00068985
0.0217678
-0.000662118
0.0225565
-0.000635626
0.0233703
-0.000610026
0.024208
-0.000585618
0.025072
-0.000562054
0.0259636
-0.000539534
0.0268806
-0.000517909
0.0278289
-0.000497079
0.0288037
-0.000477145
0.0298112
-0.000458007
0.030849
-0.000439615
0.0319195
-0.00042202
0.0330216
-0.000405022
0.0341601
-0.000388821
0.0353338
-0.000373218
0.0365428
-0.000358272
0.0377918
-0.000343889
0.0390758
-0.000330105
0.0404079
-0.000316874
0.0417637
-0.000304178
0.0431765
-0.00029199
0.0446273
-0.000280295
0.0461286
-0.000269071
0.0476798
-0.00025829
0.0492671
-0.000247947
0.0509133
-0.000238022
0.0525925
-0.000228504
0.0543176
-0.00021937
0.0561143
-0.000210606
0.0579617
-0.000202191
0.0598552
-0.000194106
0.0618306
-0.000186359
0.0637797
-0.00103848
0.0144749
-0.000996923
0.0150446
-0.000956975
0.0156312
-0.000918594
0.0162361
-0.000881786
0.0168582
-0.000846452
0.0174988
-0.000812498
0.0181579
-0.000779875
0.0188379
-0.000748635
0.0195379
-0.000718581
0.020258
-0.000689765
0.0210016
-0.000662037
0.0217677
-0.000635549
0.0225564
-0.000609952
0.0233702
-0.000585548
0.0242079
-0.000561986
0.0250719
-0.000539468
0.0259636
-0.000517844
0.0268805
-0.000497016
0.0278288
-0.000477083
0.0288037
-0.000457946
0.0298111
-0.000439555
0.0308489
-0.000421961
0.0319195
-0.000404964
0.0330215
-0.000388764
0.03416
-0.000373161
0.0353337
-0.000358216
0.0365427
-0.000343833
0.0377917
-0.000330048
0.0390757
-0.000316817
0.0404078
-0.00030412
0.0417636
-0.000291932
0.0431764
-0.000280238
0.0446272
-0.000269016
0.0461285
-0.000258236
0.0476798
-0.000247893
0.049267
-0.000237965
0.0509132
-0.000228444
0.0525924
-0.000219304
0.0543175
-0.000210544
0.0561142
-0.000202123
0.0579616
-0.000194057
0.0598551
-0.000186291
0.0618306
-0.000178852
0.0637797
-0.00103827
0.0139196
-0.000996731
0.0144747
-0.000956804
0.0150444
-0.00091844
0.0156311
-0.000881646
0.016236
-0.000846325
0.0168581
-0.000812382
0.0174986
-0.000779768
0.0181578
-0.000748536
0.0188378
-0.000718489
0.0195379
-0.000689678
0.0202579
-0.000661955
0.0210015
-0.000635472
0.0217676
-0.000609879
0.0225564
-0.000585477
0.0233701
-0.000561918
0.0242078
-0.000539403
0.0250719
-0.000517781
0.0259635
-0.000496954
0.0268805
-0.000477023
0.0278287
-0.000457887
0.0288036
-0.000439497
0.0298111
-0.000421904
0.0308489
-0.000404907
0.0319194
-0.000388708
0.0330215
-0.000373105
0.03416
-0.000358161
0.0353337
-0.000343779
0.0365427
-0.000329994
0.0377917
-0.000316763
0.0390757
-0.000304065
0.0404077
-0.000291876
0.0417635
-0.000280182
0.0431763
-0.000268961
0.0446272
-0.000258183
0.0461285
-0.000247841
0.0476797
-0.000237913
0.049267
-0.000228389
0.0509131
-0.000219246
0.0525923
-0.000210481
0.0543175
-0.000202064
0.0561142
-0.000193992
0.0579615
-0.000186244
0.0598551
-0.000178788
0.0618305
-0.000171657
0.0637796
-0.00103804
0.0133799
-0.000996527
0.0139194
-0.000956622
0.0144745
-0.000918278
0.0150443
-0.0008815
0.0156309
-0.000846193
0.0162358
-0.000812261
0.0168579
-0.000779657
0.0174985
-0.000748434
0.0181577
-0.000718394
0.0188377
-0.00068959
0.0195378
-0.000661872
0.0202578
-0.000635394
0.0210014
-0.000609805
0.0217675
-0.000585407
0.0225563
-0.000561851
0.0233701
-0.000539338
0.0242078
-0.000517718
0.0250718
-0.000496893
0.0259635
-0.000476963
0.0268804
-0.000457829
0.0278287
-0.00043944
0.0288035
-0.000421848
0.029811
-0.000404852
0.0308488
-0.000388653
0.0319193
-0.000373052
0.0330214
-0.000358108
0.0341599
-0.000343726
0.0353336
-0.000329942
0.0365426
-0.000316711
0.0377916
-0.000304013
0.0390756
-0.000291824
0.0404077
-0.000280128
0.0417635
-0.000268908
0.0431763
-0.00025813
0.0446271
-0.000247791