/*--------------------------------*- C++ -*----------------------------------*\
  =========                 |
  \\      /  F ield         | OpenFOAM: The Open Source CFD Toolbox
   \\    /   O peration     | Website:  https://openfoam.org
    \\  /    A nd           | Version:  7
     \\/     M anipulation  |
\*---------------------------------------------------------------------------*/
FoamFile
{
    version     2.0;
    format      ascii;
    class       volVectorField;
    location    "1800";
    object      U;
}
// * * * * * * * * * * * * * * * * * * * * * * * * * * * * * * * * * * * * * //

dimensions      [0 1 -1 0 0 0 0];

internalField   nonuniform List<vector> 
23023
(
(50.2605 12.369 0)
(50.2262 12.3762 0)
(50.2604 12.3689 0)
(50.2205 12.3637 0)
(50.2262 12.3761 0)
(50.2603 12.3689 0)
(50.1984 12.3559 0)
(50.2204 12.3636 0)
(50.2261 12.376 0)
(50.2603 12.3688 0)
(50.1984 12.3557 0)
(50.2204 12.3635 0)
(50.2261 12.3759 0)
(50.2602 12.3687 0)
(50.1853 12.3458 0)
(50.1983 12.3556 0)
(50.2204 12.3634 0)
(50.2261 12.3758 0)
(50.2601 12.3687 0)
(50.1691 12.3359 0)
(50.1853 12.3457 0)
(50.1983 12.3555 0)
(50.2204 12.3633 0)
(50.226 12.3757 0)
(50.2601 12.3686 0)
(50.1564 12.3245 0)
(50.1691 12.3358 0)
(50.1853 12.3456 0)
(50.1983 12.3554 0)
(50.2204 12.3632 0)
(50.226 12.3756 0)
(50.26 12.3686 0)
(50.1439 12.3116 0)
(50.1564 12.3244 0)
(50.1691 12.3357 0)
(50.1853 12.3455 0)
(50.1983 12.3553 0)
(50.2204 12.3632 0)
(50.226 12.3755 0)
(50.2599 12.3685 0)
(50.1327 12.297 0)
(50.1439 12.3116 0)
(50.1564 12.3243 0)
(50.1691 12.3356 0)
(50.1853 12.3454 0)
(50.1983 12.3552 0)
(50.2204 12.3631 0)
(50.2259 12.3754 0)
(50.2599 12.3685 0)
(50.1216 12.2809 0)
(50.1327 12.2969 0)
(50.1439 12.3115 0)
(50.1564 12.3242 0)
(50.1691 12.3355 0)
(50.1853 12.3453 0)
(50.1984 12.3551 0)
(50.2204 12.363 0)
(50.2259 12.3753 0)
(50.2598 12.3684 0)
(50.1216 12.2808 0)
(50.1327 12.2969 0)
(50.1439 12.3114 0)
(50.1563 12.3241 0)
(50.169 12.3354 0)
(50.1853 12.3452 0)
(50.1984 12.355 0)
(50.2204 12.363 0)
(50.2259 12.3752 0)
(50.2598 12.3684 0)
(50.1107 12.2634 0)
(50.1216 12.2807 0)
(50.1327 12.2968 0)
(50.1438 12.3113 0)
(50.1563 12.324 0)
(50.169 12.3353 0)
(50.1853 12.3452 0)
(50.1984 12.3549 0)
(50.2204 12.3629 0)
(50.2258 12.3751 0)
(50.2597 12.3684 0)
(50.0999 12.2451 0)
(50.1108 12.2633 0)
(50.1216 12.2806 0)
(50.1327 12.2967 0)
(50.1438 12.3112 0)
(50.1563 12.324 0)
(50.169 12.3352 0)
(50.1853 12.3451 0)
(50.1984 12.3549 0)
(50.2204 12.3628 0)
(50.2258 12.375 0)
(50.2597 12.3683 0)
(50.0894 12.226 0)
(50.1 12.245 0)
(50.1108 12.2633 0)
(50.1217 12.2806 0)
(50.1327 12.2966 0)
(50.1438 12.3112 0)
(50.1563 12.3239 0)
(50.169 12.3351 0)
(50.1853 12.345 0)
(50.1984 12.3548 0)
(50.2204 12.3628 0)
(50.2258 12.375 0)
(50.2596 12.3683 0)
(50.0794 12.2061 0)
(50.0895 12.226 0)
(50.1 12.245 0)
(50.1109 12.2632 0)
(50.1217 12.2805 0)
(50.1327 12.2966 0)
(50.1438 12.3111 0)
(50.1563 12.3238 0)
(50.169 12.3351 0)
(50.1853 12.345 0)
(50.1984 12.3547 0)
(50.2204 12.3627 0)
(50.2258 12.3749 0)
(50.2595 12.3682 0)
(50.0795 12.206 0)
(50.0896 12.2259 0)
(50.1001 12.2449 0)
(50.1109 12.2631 0)
(50.1217 12.2804 0)
(50.1327 12.2965 0)
(50.1438 12.311 0)
(50.1563 12.3237 0)
(50.169 12.335 0)
(50.1853 12.3449 0)
(50.1984 12.3546 0)
(50.2204 12.3627 0)
(50.2257 12.3748 0)
(50.2595 12.3682 0)
(50.07 12.185 0)
(50.0796 12.2059 0)
(50.0896 12.2258 0)
(50.1001 12.2448 0)
(50.1109 12.263 0)
(50.1217 12.2804 0)
(50.1327 12.2964 0)
(50.1438 12.311 0)
(50.1563 12.3237 0)
(50.169 12.3349 0)
(50.1854 12.3448 0)
(50.1984 12.3546 0)
(50.2204 12.3626 0)
(50.2257 12.3748 0)
(50.2594 12.3682 0)
(50.061 12.1629 0)
(50.0701 12.1849 0)
(50.0796 12.2059 0)
(50.0897 12.2257 0)
(50.1002 12.2447 0)
(50.111 12.263 0)
(50.1217 12.2803 0)
(50.1327 12.2964 0)
(50.1438 12.3109 0)
(50.1563 12.3236 0)
(50.1691 12.3349 0)
(50.1854 12.3448 0)
(50.1985 12.3545 0)
(50.2204 12.3626 0)
(50.2257 12.3747 0)
(50.2594 12.3682 0)
(50.0611 12.1628 0)
(50.0702 12.1849 0)
(50.0797 12.2058 0)
(50.0898 12.2257 0)
(50.1002 12.2447 0)
(50.111 12.2629 0)
(50.1217 12.2802 0)
(50.1327 12.2963 0)
(50.1438 12.3108 0)
(50.1563 12.3236 0)
(50.1691 12.3348 0)
(50.1854 12.3447 0)
(50.1985 12.3544 0)
(50.2204 12.3625 0)
(50.2257 12.3746 0)
(50.2593 12.3681 0)
(50.0525 12.1394 0)
(50.0612 12.1627 0)
(50.0703 12.1848 0)
(50.0798 12.2057 0)
(50.0898 12.2256 0)
(50.1003 12.2446 0)
(50.111 12.2628 0)
(50.1218 12.2802 0)
(50.1327 12.2963 0)
(50.1438 12.3108 0)
(50.1563 12.3235 0)
(50.1691 12.3348 0)
(50.1854 12.3447 0)
(50.1985 12.3544 0)
(50.2204 12.3625 0)
(50.2256 12.3746 0)
(50.2593 12.3681 0)
(50.0441 12.1148 0)
(50.0526 12.1393 0)
(50.0613 12.1626 0)
(50.0704 12.1847 0)
(50.0799 12.2056 0)
(50.0899 12.2255 0)
(50.1003 12.2445 0)
(50.111 12.2628 0)
(50.1218 12.2801 0)
(50.1327 12.2962 0)
(50.1438 12.3107 0)
(50.1563 12.3235 0)
(50.1691 12.3347 0)
(50.1854 12.3446 0)
(50.1985 12.3543 0)
(50.2204 12.3624 0)
(50.2256 12.3745 0)
(50.2593 12.3681 0)
(50.0359 12.0891 0)
(50.0442 12.1148 0)
(50.0527 12.1393 0)
(50.0614 12.1626 0)
(50.0704 12.1847 0)
(50.0799 12.2056 0)
(50.0899 12.2255 0)
(50.1004 12.2445 0)
(50.1111 12.2627 0)
(50.1218 12.2801 0)
(50.1327 12.2961 0)
(50.1437 12.3107 0)
(50.1563 12.3234 0)
(50.1691 12.3346 0)
(50.1855 12.3445 0)
(50.1986 12.3543 0)
(50.2204 12.3624 0)
(50.2256 12.3745 0)
(50.2592 12.368 0)
(50.028 12.0622 0)
(50.0361 12.089 0)
(50.0444 12.1147 0)
(50.0528 12.1392 0)
(50.0615 12.1625 0)
(50.0705 12.1846 0)
(50.08 12.2055 0)
(50.09 12.2254 0)
(50.1004 12.2444 0)
(50.1111 12.2627 0)
(50.1218 12.28 0)
(50.1327 12.2961 0)
(50.1437 12.3106 0)
(50.1563 12.3234 0)
(50.1691 12.3346 0)
(50.1855 12.3445 0)
(50.1986 12.3542 0)
(50.2204 12.3623 0)
(50.2256 12.3744 0)
(50.2592 12.368 0)
(50.0282 12.0621 0)
(50.0362 12.089 0)
(50.0445 12.1146 0)
(50.0529 12.1391 0)
(50.0616 12.1624 0)
(50.0706 12.1845 0)
(50.08 12.2055 0)
(50.09 12.2253 0)
(50.1004 12.2444 0)
(50.1111 12.2626 0)
(50.1218 12.28 0)
(50.1327 12.2961 0)
(50.1437 12.3106 0)
(50.1563 12.3233 0)
(50.1691 12.3345 0)
(50.1855 12.3444 0)
(50.1986 12.3542 0)
(50.2205 12.3623 0)
(50.2255 12.3744 0)
(50.2591 12.368 0)
(50.0205 12.034 0)
(50.0283 12.062 0)
(50.0364 12.0889 0)
(50.0446 12.1146 0)
(50.053 12.1391 0)
(50.0617 12.1624 0)
(50.0707 12.1845 0)
(50.0801 12.2054 0)
(50.0901 12.2253 0)
(50.1005 12.2443 0)
(50.1111 12.2626 0)
(50.1218 12.2799 0)
(50.1327 12.296 0)
(50.1437 12.3105 0)
(50.1563 12.3233 0)
(50.1691 12.3345 0)
(50.1856 12.3444 0)
(50.1986 12.3541 0)
(50.2205 12.3623 0)
(50.2255 12.3743 0)
(50.2591 12.368 0)
(50.013 12.0046 0)
(50.0207 12.0339 0)
(50.0285 12.062 0)
(50.0365 12.0888 0)
(50.0447 12.1145 0)
(50.0531 12.139 0)
(50.0617 12.1623 0)
(50.0707 12.1844 0)
(50.0801 12.2053 0)
(50.0901 12.2252 0)
(50.1005 12.2443 0)
(50.1112 12.2625 0)
(50.1218 12.2799 0)
(50.1327 12.296 0)
(50.1437 12.3105 0)
(50.1563 12.3232 0)
(50.1692 12.3344 0)
(50.1856 12.3444 0)
(50.1987 12.3541 0)
(50.2205 12.3622 0)
(50.2255 12.3743 0)
(50.259 12.3679 0)
(50.0132 12.0045 0)
(50.0209 12.0339 0)
(50.0287 12.0619 0)
(50.0366 12.0888 0)
(50.0448 12.1144 0)
(50.0532 12.1389 0)
(50.0618 12.1623 0)
(50.0708 12.1844 0)
(50.0802 12.2053 0)
(50.0902 12.2252 0)
(50.1006 12.2442 0)
(50.1112 12.2625 0)
(50.1218 12.2798 0)
(50.1327 12.2959 0)
(50.1437 12.3105 0)
(50.1563 12.3232 0)
(50.1692 12.3344 0)
(50.1856 12.3443 0)
(50.1987 12.354 0)
(50.2205 12.3622 0)
(50.2255 12.3742 0)
(50.259 12.3679 0)
(50.0059 11.9739 0)
(50.0134 12.0045 0)
(50.021 12.0338 0)
(50.0288 12.0619 0)
(50.0368 12.0887 0)
(50.0449 12.1144 0)
(50.0533 12.1389 0)
(50.0619 12.1622 0)
(50.0708 12.1843 0)
(50.0803 12.2052 0)
(50.0902 12.2251 0)
(50.1006 12.2442 0)
(50.1112 12.2624 0)
(50.1218 12.2798 0)
(50.1326 12.2959 0)
(50.1437 12.3104 0)
(50.1563 12.3231 0)
(50.1692 12.3344 0)
(50.1857 12.3443 0)
(50.1987 12.354 0)
(50.2205 12.3622 0)
(50.2254 12.3742 0)
(50.2589 12.3679 0)
(49.9988 11.9418 0)
(50.0062 11.9738 0)
(50.0136 12.0044 0)
(50.0212 12.0337 0)
(50.0289 12.0618 0)
(50.0369 12.0886 0)
(50.045 12.1143 0)
(50.0534 12.1388 0)
(50.062 12.1622 0)
(50.0709 12.1843 0)
(50.0803 12.2052 0)
(50.0903 12.2251 0)
(50.1006 12.2441 0)
(50.1112 12.2624 0)
(50.1218 12.2797 0)
(50.1326 12.2958 0)
(50.1437 12.3104 0)
(50.1563 12.3231 0)
(50.1692 12.3343 0)
(50.1857 12.3442 0)
(50.1988 12.3539 0)
(50.2205 12.3621 0)
(50.2254 12.3742 0)
(50.2589 12.3679 0)
(49.9991 11.9417 0)
(50.0064 11.9737 0)
(50.0138 12.0043 0)
(50.0214 12.0337 0)
(50.0291 12.0617 0)
(50.037 12.0886 0)
(50.0451 12.1143 0)
(50.0535 12.1388 0)
(50.062 12.1621 0)
(50.071 12.1842 0)
(50.0804 12.2051 0)
(50.0903 12.225 0)
(50.1007 12.2441 0)
(50.1113 12.2623 0)
(50.1218 12.2797 0)
(50.1326 12.2958 0)
(50.1437 12.3103 0)
(50.1563 12.3231 0)
(50.1693 12.3343 0)
(50.1857 12.3442 0)
(50.1988 12.3539 0)
(50.2205 12.3621 0)
(50.2254 12.3741 0)
(50.2589 12.3679 0)
(49.9921 11.9083 0)
(49.9993 11.9417 0)
(50.0066 11.9737 0)
(50.014 12.0043 0)
(50.0215 12.0336 0)
(50.0292 12.0617 0)
(50.0371 12.0885 0)
(50.0452 12.1142 0)
(50.0535 12.1387 0)
(50.0621 12.1621 0)
(50.071 12.1842 0)
(50.0804 12.2051 0)
(50.0903 12.225 0)
(50.1007 12.244 0)
(50.1113 12.2623 0)
(50.1218 12.2797 0)
(50.1326 12.2958 0)
(50.1437 12.3103 0)
(50.1563 12.323 0)
(50.1693 12.3342 0)
(50.1858 12.3442 0)
(50.1988 12.3538 0)
(50.2205 12.3621 0)
(50.2254 12.3741 0)
(50.2588 12.3678 0)
(49.9853 11.8734 0)
(49.9924 11.9082 0)
(49.9995 11.9416 0)
(50.0068 11.9736 0)
(50.0141 12.0042 0)
(50.0217 12.0336 0)
(50.0293 12.0616 0)
(50.0372 12.0885 0)
(50.0453 12.1142 0)
(50.0536 12.1387 0)
(50.0622 12.162 0)
(50.0711 12.1841 0)
(50.0805 12.2051 0)
(50.0904 12.2249 0)
(50.1007 12.244 0)
(50.1113 12.2623 0)
(50.1218 12.2796 0)
(50.1326 12.2957 0)
(50.1437 12.3103 0)
(50.1563 12.323 0)
(50.1693 12.3342 0)
(50.1858 12.3441 0)
(50.1989 12.3538 0)
(50.2206 12.362 0)
(50.2253 12.374 0)
(50.2588 12.3678 0)
(49.9856 11.8733 0)
(49.9927 11.9081 0)
(49.9998 11.9415 0)
(50.007 11.9735 0)
(50.0143 12.0042 0)
(50.0218 12.0335 0)
(50.0295 12.0616 0)
(50.0373 12.0884 0)
(50.0454 12.1141 0)
(50.0537 12.1386 0)
(50.0622 12.162 0)
(50.0711 12.1841 0)
(50.0805 12.205 0)
(50.0904 12.2249 0)
(50.1008 12.244 0)
(50.1113 12.2622 0)
(50.1218 12.2796 0)
(50.1326 12.2957 0)
(50.1437 12.3102 0)
(50.1563 12.323 0)
(50.1693 12.3342 0)
(50.1858 12.3441 0)
(50.1989 12.3538 0)
(50.2206 12.362 0)
(50.2253 12.374 0)
(50.2587 12.3678 0)
(49.979 11.8368 0)
(49.9859 11.8732 0)
(49.9929 11.9081 0)
(50 11.9415 0)
(50.0072 11.9735 0)
(50.0145 12.0041 0)
(50.0219 12.0335 0)
(50.0296 12.0615 0)
(50.0374 12.0884 0)
(50.0455 12.1141 0)
(50.0538 12.1386 0)
(50.0623 12.1619 0)
(50.0712 12.184 0)
(50.0805 12.205 0)
(50.0905 12.2249 0)
(50.1008 12.2439 0)
(50.1113 12.2622 0)
(50.1218 12.2796 0)
(50.1326 12.2957 0)
(50.1437 12.3102 0)
(50.1563 12.3229 0)
(50.1694 12.3341 0)
(50.1859 12.3441 0)
(50.1989 12.3537 0)
(50.2206 12.362 0)
(50.2253 12.374 0)
(50.2587 12.3678 0)
(49.9724 11.7988 0)
(49.9793 11.8368 0)
(49.9862 11.8732 0)
(49.9931 11.908 0)
(50.0002 11.9414 0)
(50.0073 11.9734 0)
(50.0146 12.0041 0)
(50.0221 12.0334 0)
(50.0297 12.0615 0)
(50.0375 12.0883 0)
(50.0456 12.114 0)
(50.0538 12.1386 0)
(50.0623 12.1619 0)
(50.0712 12.184 0)
(50.0806 12.2049 0)
(50.0905 12.2248 0)
(50.1008 12.2439 0)
(50.1113 12.2622 0)
(50.1218 12.2795 0)
(50.1326 12.2956 0)
(50.1437 12.3102 0)
(50.1563 12.3229 0)
(50.1694 12.3341 0)
(50.1859 12.344 0)
(50.199 12.3537 0)
(50.2206 12.362 0)
(50.2253 12.3739 0)
(50.2586 12.3678 0)
(49.9727 11.7987 0)
(49.9796 11.8367 0)
(49.9864 11.8731 0)
(49.9934 11.908 0)
(50.0004 11.9414 0)
(50.0075 11.9734 0)
(50.0148 12.004 0)
(50.0222 12.0334 0)
(50.0298 12.0614 0)
(50.0376 12.0883 0)
(50.0456 12.114 0)
(50.0539 12.1385 0)
(50.0624 12.1619 0)
(50.0713 12.184 0)
(50.0806 12.2049 0)
(50.0905 12.2248 0)
(50.1008 12.2438 0)
(50.1114 12.2621 0)
(50.1218 12.2795 0)
(50.1326 12.2956 0)
(50.1437 12.3101 0)
(50.1564 12.3229 0)
(50.1694 12.3341 0)
(50.186 12.344 0)
(50.199 12.3537 0)
(50.2206 12.3619 0)
(50.2252 12.3739 0)
(50.2586 12.3678 0)
(49.9662 11.759 0)
(49.973 11.7987 0)
(49.9798 11.8366 0)
(49.9867 11.873 0)
(49.9936 11.9079 0)
(50.0006 11.9413 0)
(50.0077 11.9733 0)
(50.0149 12.004 0)
(50.0223 12.0333 0)
(50.0299 12.0614 0)
(50.0377 12.0883 0)
(50.0457 12.114 0)
(50.0539 12.1385 0)
(50.0624 12.1618 0)
(50.0713 12.1839 0)
(50.0807 12.2049 0)
(50.0906 12.2248 0)
(50.1009 12.2438 0)
(50.1114 12.2621 0)
(50.1218 12.2795 0)
(50.1326 12.2956 0)
(50.1437 12.3101 0)
(50.1564 12.3228 0)
(50.1695 12.334 0)
(50.186 12.344 0)
(50.199 12.3536 0)
(50.2206 12.3619 0)
(50.2252 12.3739 0)
(50.2586 12.3678 0)
(49.9598 11.7175 0)
(49.9666 11.7589 0)
(49.9733 11.7986 0)
(49.9801 11.8366 0)
(49.9869 11.873 0)
(49.9938 11.9079 0)
(50.0008 11.9413 0)
(50.0078 11.9733 0)
(50.015 12.0039 0)
(50.0224 12.0333 0)
(50.03 12.0613 0)
(50.0378 12.0882 0)
(50.0458 12.1139 0)
(50.054 12.1384 0)
(50.0625 12.1618 0)
(50.0714 12.1839 0)
(50.0807 12.2048 0)
(50.0906 12.2247 0)
(50.1009 12.2438 0)
(50.1114 12.2621 0)
(50.1218 12.2794 0)
(50.1326 12.2956 0)
(50.1437 12.3101 0)
(50.1564 12.3228 0)
(50.1695 12.334 0)
(50.1861 12.3439 0)
(50.1991 12.3536 0)
(50.2206 12.3619 0)
(50.2252 12.3739 0)
(50.2585 12.3677 0)
(49.9533 11.6742 0)
(49.9601 11.7175 0)
(49.9669 11.7589 0)
(49.9736 11.7985 0)
(49.9804 11.8365 0)
(49.9872 11.8729 0)
(49.994 11.9078 0)
(50.0009 11.9412 0)
(50.008 11.9732 0)
(50.0152 12.0039 0)
(50.0225 12.0332 0)
(50.0301 12.0613 0)
(50.0379 12.0882 0)
(50.0459 12.1139 0)
(50.0541 12.1384 0)
(50.0625 12.1618 0)
(50.0714 12.1839 0)
(50.0807 12.2048 0)
(50.0906 12.2247 0)
(50.1009 12.2438 0)
(50.1114 12.262 0)
(50.1218 12.2794 0)
(50.1326 12.2955 0)
(50.1437 12.3101 0)
(50.1564 12.3228 0)
(50.1695 12.334 0)
(50.1861 12.3439 0)
(50.1991 12.3536 0)
(50.2206 12.3619 0)
(50.2251 12.3738 0)
(50.2585 12.3677 0)
(49.9468 11.629 0)
(49.9537 11.6742 0)
(49.9605 11.7174 0)
(49.9672 11.7588 0)
(49.9739 11.7985 0)
(49.9806 11.8365 0)
(49.9874 11.8729 0)
(49.9942 11.9078 0)
(50.0011 11.9412 0)
(50.0081 11.9732 0)
(50.0153 12.0038 0)
(50.0227 12.0332 0)
(50.0302 12.0613 0)
(50.038 12.0881 0)
(50.0459 12.1138 0)
(50.0541 12.1384 0)
(50.0626 12.1617 0)
(50.0714 12.1838 0)
(50.0808 12.2048 0)
(50.0907 12.2247 0)
(50.101 12.2437 0)
(50.1114 12.262 0)
(50.1218 12.2794 0)
(50.1326 12.2955 0)
(50.1436 12.31 0)
(50.1564 12.3228 0)
(50.1696 12.334 0)
(50.1862 12.3439 0)
(50.1992 12.3536 0)
(50.2207 12.3619 0)
(50.2251 12.3738 0)
(50.2584 12.3677 0)
(49.9403 11.5818 0)
(49.9473 11.629 0)
(49.9541 11.6741 0)
(49.9609 11.7173 0)
(49.9676 11.7587 0)
(49.9742 11.7984 0)
(49.9809 11.8364 0)
(49.9876 11.8728 0)
(49.9944 11.9077 0)
(50.0013 11.9411 0)
(50.0083 11.9731 0)
(50.0154 12.0038 0)
(50.0228 12.0331 0)
(50.0303 12.0612 0)
(50.038 12.0881 0)
(50.046 12.1138 0)
(50.0542 12.1383 0)
(50.0626 12.1617 0)
(50.0715 12.1838 0)
(50.0808 12.2047 0)
(50.0907 12.2246 0)
(50.101 12.2437 0)
(50.1114 12.262 0)
(50.1218 12.2794 0)
(50.1326 12.2955 0)
(50.1436 12.31 0)
(50.1564 12.3227 0)
(50.1696 12.3339 0)
(50.1862 12.3439 0)
(50.1992 12.3535 0)
(50.2207 12.3618 0)
(50.2251 12.3738 0)
(50.2584 12.3677 0)
(49.9337 11.5325 0)
(49.9408 11.5817 0)
(49.9477 11.6289 0)
(49.9545 11.674 0)
(49.9612 11.7173 0)
(49.9679 11.7587 0)
(49.9745 11.7984 0)
(49.9811 11.8364 0)
(49.9878 11.8728 0)
(49.9945 11.9077 0)
(50.0014 11.9411 0)
(50.0084 11.9731 0)
(50.0155 12.0038 0)
(50.0229 12.0331 0)
(50.0304 12.0612 0)
(50.0381 12.0881 0)
(50.0461 12.1138 0)
(50.0542 12.1383 0)
(50.0627 12.1617 0)
(50.0715 12.1838 0)
(50.0809 12.2047 0)
(50.0907 12.2246 0)
(50.101 12.2437 0)
(50.1114 12.262 0)
(50.1218 12.2793 0)
(50.1325 12.2955 0)
(50.1436 12.31 0)
(50.1565 12.3227 0)
(50.1696 12.3339 0)
(50.1863 12.3438 0)
(50.1992 12.3535 0)
(50.2207 12.3618 0)
(50.2251 12.3738 0)
(50.2584 12.3677 0)
(49.9343 11.5324 0)
(49.9413 11.5817 0)
(49.9482 11.6288 0)
(49.9549 11.674 0)
(49.9616 11.7172 0)
(49.9682 11.7586 0)
(49.9747 11.7983 0)
(49.9813 11.8363 0)
(49.988 11.8727 0)
(49.9947 11.9076 0)
(50.0016 11.941 0)
(50.0085 11.9731 0)
(50.0157 12.0037 0)
(50.023 12.0331 0)
(50.0305 12.0612 0)
(50.0382 12.088 0)
(50.0461 12.1137 0)
(50.0543 12.1383 0)
(50.0627 12.1616 0)
(50.0716 12.1837 0)
(50.0809 12.2047 0)
(50.0908 12.2246 0)
(50.101 12.2436 0)
(50.1115 12.2619 0)
(50.1218 12.2793 0)
(50.1325 12.2954 0)
(50.1436 12.31 0)
(50.1565 12.3227 0)
(50.1697 12.3339 0)
(50.1863 12.3438 0)
(50.1993 12.3535 0)
(50.2207 12.3618 0)
(50.225 12.3737 0)
(50.2583 12.3677 0)
(49.9276 11.4809 0)
(49.9348 11.5324 0)
(49.9418 11.5816 0)
(49.9486 11.6288 0)
(49.9553 11.6739 0)
(49.9619 11.7172 0)
(49.9684 11.7586 0)
(49.975 11.7983 0)
(49.9815 11.8363 0)
(49.9882 11.8727 0)
(49.9949 11.9076 0)
(50.0017 11.941 0)
(50.0087 11.973 0)
(50.0158 12.0037 0)
(50.023 12.033 0)
(50.0305 12.0611 0)
(50.0382 12.088 0)
(50.0462 12.1137 0)
(50.0543 12.1383 0)
(50.0628 12.1616 0)
(50.0716 12.1837 0)
(50.0809 12.2047 0)
(50.0908 12.2246 0)
(50.1011 12.2436 0)
(50.1115 12.2619 0)
(50.1218 12.2793 0)
(50.1325 12.2954 0)
(50.1437 12.3099 0)
(50.1565 12.3227 0)
(50.1697 12.3339 0)
(50.1864 12.3438 0)
(50.1993 12.3535 0)
(50.2207 12.3618 0)
(50.225 12.3737 0)
(50.2583 12.3677 0)
(49.9208 11.427 0)
(49.9282 11.4808 0)
(49.9353 11.5323 0)
(49.9422 11.5815 0)
(49.949 11.6287 0)
(49.9556 11.6739 0)
(49.9622 11.7171 0)
(49.9687 11.7585 0)
(49.9752 11.7982 0)
(49.9818 11.8362 0)
(49.9884 11.8727 0)
(49.995 11.9076 0)
(50.0018 11.941 0)
(50.0088 11.973 0)
(50.0159 12.0037 0)
(50.0231 12.033 0)
(50.0306 12.0611 0)
(50.0383 12.088 0)
(50.0462 12.1137 0)
(50.0544 12.1382 0)
(50.0628 12.1616 0)
(50.0716 12.1837 0)
(50.081 12.2046 0)
(50.0908 12.2245 0)
(50.1011 12.2436 0)
(50.1115 12.2619 0)
(50.1218 12.2793 0)
(50.1325 12.2954 0)
(50.1437 12.3099 0)
(50.1565 12.3226 0)
(50.1698 12.3338 0)
(50.1864 12.3438 0)
(50.1994 12.3534 0)
(50.2207 12.3618 0)
(50.2249 12.3737 0)
(50.2582 12.3677 0)
(49.9214 11.427 0)
(49.9287 11.4807 0)
(49.9358 11.5322 0)
(49.9426 11.5815 0)
(49.9494 11.6286 0)
(49.956 11.6738 0)
(49.9625 11.7171 0)
(49.969 11.7585 0)
(49.9754 11.7982 0)
(49.9819 11.8362 0)
(49.9885 11.8726 0)
(49.9952 11.9075 0)
(50.002 11.9409 0)
(50.0089 11.973 0)
(50.016 12.0036 0)
(50.0232 12.033 0)
(50.0307 12.0611 0)
(50.0384 12.088 0)
(50.0463 12.1137 0)
(50.0544 12.1382 0)
(50.0628 12.1616 0)
(50.0717 12.1837 0)
(50.081 12.2046 0)
(50.0909 12.2245 0)
(50.1011 12.2436 0)
(50.1115 12.2619 0)
(50.1218 12.2793 0)
(50.1325 12.2954 0)
(50.1437 12.3099 0)
(50.1565 12.3226 0)
(50.1698 12.3338 0)
(50.1865 12.3438 0)
(50.1994 12.3534 0)
(50.2207 12.3618 0)
(50.2249 12.3737 0)
(50.2582 12.3677 0)
(49.9145 11.3706 0)
(49.922 11.4269 0)
(49.9293 11.4807 0)
(49.9363 11.5321 0)
(49.9431 11.5814 0)
(49.9497 11.6286 0)
(49.9563 11.6737 0)
(49.9628 11.717 0)
(49.9692 11.7584 0)
(49.9757 11.7981 0)
(49.9821 11.8362 0)
(49.9887 11.8726 0)
(49.9953 11.9075 0)
(50.0021 11.9409 0)
(50.009 11.9729 0)
(50.0161 12.0036 0)
(50.0233 12.033 0)
(50.0308 12.061 0)
(50.0384 12.0879 0)
(50.0463 12.1136 0)
(50.0545 12.1382 0)
(50.0629 12.1615 0)
(50.0717 12.1836 0)
(50.081 12.2046 0)
(50.0909 12.2245 0)
(50.1011 12.2436 0)
(50.1115 12.2618 0)
(50.1218 12.2792 0)
(50.1325 12.2954 0)
(50.1437 12.3099 0)
(50.1566 12.3226 0)
(50.1699 12.3338 0)
(50.1865 12.3437 0)
(50.1994 12.3534 0)
(50.2207 12.3617 0)
(50.2249 12.3737 0)
(50.2581 12.3677 0)
(49.9074 11.3117 0)
(49.9152 11.3706 0)
(49.9226 11.4268 0)
(49.9298 11.4806 0)
(49.9367 11.5321 0)
(49.9435 11.5813 0)
(49.9501 11.6285 0)
(49.9566 11.6737 0)
(49.963 11.717 0)
(49.9694 11.7584 0)
(49.9759 11.7981 0)
(49.9823 11.8361 0)
(49.9889 11.8725 0)
(49.9955 11.9074 0)
(50.0022 11.9409 0)
(50.0091 11.9729 0)
(50.0162 12.0036 0)
(50.0234 12.0329 0)
(50.0308 12.061 0)
(50.0385 12.0879 0)
(50.0464 12.1136 0)
(50.0545 12.1382 0)
(50.0629 12.1615 0)
(50.0717 12.1836 0)
(50.0811 12.2046 0)
(50.0909 12.2245 0)
(50.1011 12.2435 0)
(50.1115 12.2618 0)
(50.1218 12.2792 0)
(50.1325 12.2953 0)
(50.1437 12.3099 0)
(50.1566 12.3226 0)
(50.1699 12.3338 0)
(50.1866 12.3437 0)
(50.1995 12.3534 0)
(50.2207 12.3617 0)
(50.2248 12.3736 0)
(50.2581 12.3676 0)
(49.9 11.2501 0)
(49.9081 11.3116 0)
(49.9158 11.3705 0)
(49.9232 11.4267 0)
(49.9303 11.4805 0)
(49.9371 11.532 0)
(49.9438 11.5813 0)
(49.9504 11.6285 0)
(49.9569 11.6737 0)
(49.9633 11.7169 0)
(49.9697 11.7584 0)
(49.9761 11.7981 0)
(49.9825 11.8361 0)
(49.989 11.8725 0)
(49.9956 11.9074 0)
(50.0023 11.9408 0)
(50.0092 11.9729 0)
(50.0163 12.0035 0)
(50.0235 12.0329 0)
(50.0309 12.061 0)
(50.0386 12.0879 0)
(50.0464 12.1136 0)
(50.0545 12.1381 0)
(50.0629 12.1615 0)
(50.0718 12.1836 0)
(50.0811 12.2045 0)
(50.091 12.2244 0)
(50.1012 12.2435 0)
(50.1115 12.2618 0)
(50.1218 12.2792 0)
(50.1325 12.2953 0)
(50.1437 12.3099 0)
(50.1566 12.3226 0)
(50.17 12.3338 0)
(50.1866 12.3437 0)
(50.1995 12.3534 0)
(50.2207 12.3617 0)
(50.2248 12.3736 0)
(50.258 12.3676 0)
(49.8924 11.1856 0)
(49.9008 11.25 0)
(49.9088 11.3116 0)
(49.9164 11.3704 0)
(49.9237 11.4267 0)
(49.9307 11.4805 0)
(49.9376 11.532 0)
(49.9442 11.5812 0)
(49.9507 11.6284 0)
(49.9572 11.6736 0)
(49.9635 11.7169 0)
(49.9699 11.7583 0)
(49.9763 11.798 0)
(49.9827 11.8361 0)
(49.9892 11.8725 0)
(49.9957 11.9074 0)
(50.0025 11.9408 0)
(50.0093 11.9728 0)
(50.0163 12.0035 0)
(50.0235 12.0329 0)
(50.031 12.061 0)
(50.0386 12.0879 0)
(50.0465 12.1136 0)
(50.0546 12.1381 0)
(50.063 12.1615 0)
(50.0718 12.1836 0)
(50.0811 12.2045 0)
(50.091 12.2244 0)
(50.1012 12.2435 0)
(50.1115 12.2618 0)
(50.1218 12.2792 0)
(50.1325 12.2953 0)
(50.1437 12.3098 0)
(50.1566 12.3226 0)
(50.17 12.3337 0)
(50.1867 12.3437 0)
(50.1995 12.3533 0)
(50.2207 12.3617 0)
(50.2247 12.3736 0)
(50.258 12.3676 0)
(49.8844 11.118 0)
(49.8933 11.1855 0)
(49.9016 11.2499 0)
(49.9095 11.3115 0)
(49.917 11.3703 0)
(49.9242 11.4266 0)
(49.9312 11.4804 0)
(49.938 11.5319 0)
(49.9446 11.5812 0)
(49.9511 11.6284 0)
(49.9574 11.6736 0)
(49.9638 11.7168 0)
(49.9701 11.7583 0)
(49.9764 11.798 0)
(49.9828 11.836 0)
(49.9893 11.8725 0)
(49.9959 11.9074 0)
(50.0026 11.9408 0)
(50.0094 11.9728 0)
(50.0164 12.0035 0)
(50.0236 12.0328 0)
(50.031 12.0609 0)
(50.0387 12.0878 0)
(50.0465 12.1135 0)
(50.0546 12.1381 0)
(50.063 12.1614 0)
(50.0718 12.1836 0)
(50.0812 12.2045 0)
(50.091 12.2244 0)
(50.1012 12.2435 0)
(50.1115 12.2618 0)
(50.1218 12.2792 0)
(50.1325 12.2953 0)
(50.1437 12.3098 0)
(50.1567 12.3225 0)
(50.1701 12.3337 0)
(50.1867 12.3437 0)
(50.1996 12.3533 0)
(50.2207 12.3617 0)
(50.2247 12.3736 0)
(50.258 12.3676 0)
(49.8761 11.0471 0)
(49.8854 11.1178 0)
(49.8941 11.1854 0)
(49.9023 11.2498 0)
(49.9101 11.3114 0)
(49.9176 11.3702 0)
(49.9247 11.4265 0)
(49.9316 11.4803 0)
(49.9384 11.5318 0)
(49.9449 11.5811 0)
(49.9514 11.6283 0)
(49.9577 11.6735 0)
(49.964 11.7168 0)
(49.9703 11.7582 0)
(49.9766 11.798 0)
(49.983 11.836 0)
(49.9894 11.8724 0)
(49.996 11.9073 0)
(50.0027 11.9408 0)
(50.0095 11.9728 0)
(50.0165 12.0035 0)
(50.0237 12.0328 0)
(50.0311 12.0609 0)
(50.0387 12.0878 0)
(50.0466 12.1135 0)
(50.0547 12.1381 0)
(50.063 12.1614 0)
(50.0719 12.1835 0)
(50.0812 12.2045 0)
(50.091 12.2244 0)
(50.1012 12.2435 0)
(50.1115 12.2618 0)
(50.1218 12.2792 0)
(50.1325 12.2953 0)
(50.1437 12.3098 0)
(50.1567 12.3225 0)
(50.1701 12.3337 0)
(50.1868 12.3437 0)
(50.1996 12.3533 0)
(50.2207 12.3617 0)
(50.2247 12.3736 0)
(50.2579 12.3676 0)
(49.8672 10.9729 0)
(49.8771 11.047 0)
(49.8862 11.1177 0)
(49.8949 11.1853 0)
(49.903 11.2497 0)
(49.9107 11.3113 0)
(49.9181 11.3702 0)
(49.9252 11.4265 0)
(49.9321 11.4803 0)
(49.9387 11.5318 0)
(49.9452 11.5811 0)
(49.9516 11.6283 0)
(49.958 11.6735 0)
(49.9642 11.7168 0)
(49.9705 11.7582 0)
(49.9768 11.7979 0)
(49.9831 11.836 0)
(49.9896 11.8724 0)
(49.9961 11.9073 0)
(50.0028 11.9407 0)
(50.0096 11.9728 0)
(50.0166 12.0034 0)
(50.0238 12.0328 0)
(50.0311 12.0609 0)
(50.0388 12.0878 0)
(50.0466 12.1135 0)
(50.0547 12.1381 0)
(50.0631 12.1614 0)
(50.0719 12.1835 0)
(50.0812 12.2045 0)
(50.0911 12.2244 0)
(50.1012 12.2434 0)
(50.1115 12.2617 0)
(50.1218 12.2791 0)
(50.1325 12.2953 0)
(50.1437 12.3098 0)
(50.1567 12.3225 0)
(50.1702 12.3337 0)
(50.1868 12.3437 0)
(50.1996 12.3533 0)
(50.2207 12.3617 0)
(50.2246 12.3736 0)
(50.2579 12.3676 0)
(49.8579 10.8949 0)
(49.8683 10.9727 0)
(49.878 11.0469 0)
(49.8871 11.1176 0)
(49.8956 11.1852 0)
(49.9036 11.2496 0)
(49.9113 11.3112 0)
(49.9186 11.3701 0)
(49.9257 11.4264 0)
(49.9325 11.4802 0)
(49.9391 11.5317 0)
(49.9456 11.5811 0)
(49.9519 11.6283 0)
(49.9582 11.6734 0)
(49.9645 11.7167 0)
(49.9707 11.7582 0)
(49.977 11.7979 0)
(49.9833 11.8359 0)
(49.9897 11.8724 0)
(49.9962 11.9073 0)
(50.0029 11.9407 0)
(50.0097 11.9727 0)
(50.0167 12.0034 0)
(50.0238 12.0328 0)
(50.0312 12.0609 0)
(50.0388 12.0878 0)
(50.0467 12.1135 0)
(50.0547 12.138 0)
(50.0631 12.1614 0)
(50.0719 12.1835 0)
(50.0812 12.2044 0)
(50.0911 12.2244 0)
(50.1013 12.2434 0)
(50.1115 12.2617 0)
(50.1218 12.2791 0)
(50.1325 12.2953 0)
(50.1437 12.3098 0)
(50.1568 12.3225 0)
(50.1702 12.3337 0)
(50.1869 12.3436 0)
(50.1997 12.3533 0)
(50.2207 12.3617 0)
(50.2246 12.3736 0)
(50.2578 12.3676 0)
(49.8479 10.8131 0)
(49.859 10.8948 0)
(49.8694 10.9726 0)
(49.8789 11.0468 0)
(49.8879 11.1175 0)
(49.8963 11.1851 0)
(49.9043 11.2496 0)
(49.9119 11.3112 0)
(49.9191 11.3701 0)
(49.9261 11.4263 0)
(49.9328 11.4802 0)
(49.9394 11.5317 0)
(49.9459 11.581 0)
(49.9522 11.6282 0)
(49.9584 11.6734 0)
(49.9647 11.7167 0)
(49.9709 11.7582 0)
(49.9771 11.7979 0)
(49.9834 11.8359 0)
(49.9898 11.8723 0)
(49.9963 11.9072 0)
(50.003 11.9407 0)
(50.0098 11.9727 0)
(50.0167 12.0034 0)
(50.0239 12.0328 0)
(50.0313 12.0609 0)
(50.0389 12.0878 0)
(50.0467 12.1135 0)
(50.0548 12.138 0)
(50.0631 12.1614 0)
(50.0719 12.1835 0)
(50.0813 12.2044 0)
(50.0911 12.2243 0)
(50.1013 12.2434 0)
(50.1115 12.2617 0)
(50.1218 12.2791 0)
(50.1325 12.2952 0)
(50.1437 12.3098 0)
(50.1568 12.3225 0)
(50.1703 12.3337 0)
(50.1869 12.3436 0)
(50.1997 12.3533 0)
(50.2207 12.3617 0)
(50.2245 12.3735 0)
(50.2578 12.3676 0)
(49.8372 10.7272 0)
(49.8492 10.813 0)
(49.8602 10.8946 0)
(49.8704 10.9725 0)
(49.8798 11.0467 0)
(49.8887 11.1174 0)
(49.897 11.185 0)
(49.9049 11.2495 0)
(49.9124 11.3111 0)
(49.9196 11.37 0)
(49.9265 11.4263 0)
(49.9332 11.4801 0)
(49.9398 11.5317 0)
(49.9461 11.581 0)
(49.9524 11.6282 0)
(49.9587 11.6734 0)
(49.9649 11.7167 0)
(49.9711 11.7581 0)
(49.9773 11.7978 0)
(49.9836 11.8359 0)
(49.9899 11.8723 0)
(49.9964 11.9072 0)
(50.0031 11.9407 0)
(50.0098 11.9727 0)
(50.0168 12.0034 0)
(50.0239 12.0327 0)
(50.0313 12.0608 0)
(50.0389 12.0877 0)
(50.0467 12.1134 0)
(50.0548 12.138 0)
(50.0632 12.1614 0)
(50.072 12.1835 0)
(50.0813 12.2044 0)
(50.0911 12.2243 0)
(50.1013 12.2434 0)
(50.1115 12.2617 0)
(50.1218 12.2791 0)
(50.1324 12.2952 0)
(50.1437 12.3097 0)
(50.1568 12.3225 0)
(50.1703 12.3336 0)
(50.187 12.3436 0)
(50.1997 12.3533 0)
(50.2207 12.3616 0)
(50.2245 12.3735 0)
(50.2577 12.3676 0)
(49.8257 10.6369 0)
(49.8386 10.727 0)
(49.8504 10.8128 0)
(49.8613 10.8945 0)
(49.8713 10.9723 0)
(49.8807 11.0466 0)
(49.8894 11.1174 0)
(49.8977 11.1849 0)
(49.9055 11.2494 0)
(49.9129 11.3111 0)
(49.92 11.3699 0)
(49.9269 11.4262 0)
(49.9336 11.4801 0)
(49.9401 11.5316 0)
(49.9464 11.5809 0)
(49.9527 11.6281 0)
(49.9589 11.6733 0)
(49.965 11.7166 0)
(49.9712 11.7581 0)
(49.9774 11.7978 0)
(49.9837 11.8358 0)
(49.9901 11.8723 0)
(49.9965 11.9072 0)
(50.0032 11.9406 0)
(50.0099 11.9727 0)
(50.0169 12.0034 0)
(50.024 12.0327 0)
(50.0314 12.0608 0)
(50.0389 12.0877 0)
(50.0468 12.1134 0)
(50.0548 12.138 0)
(50.0632 12.1613 0)
(50.072 12.1835 0)
(50.0813 12.2044 0)
(50.0912 12.2243 0)
(50.1013 12.2434 0)
(50.1115 12.2617 0)
(50.1218 12.2791 0)
(50.1324 12.2952 0)
(50.1437 12.3097 0)
(50.1569 12.3225 0)
(50.1704 12.3336 0)
(50.1871 12.3436 0)
(50.1998 12.3532 0)
(50.2207 12.3616 0)
(50.2244 12.3735 0)
(50.2577 12.3676 0)
(49.8132 10.5419 0)
(49.8272 10.6367 0)
(49.8399 10.7269 0)
(49.8516 10.8127 0)
(49.8623 10.8944 0)
(49.8722 10.9722 0)
(49.8815 11.0465 0)
(49.8902 11.1173 0)
(49.8983 11.1848 0)
(49.906 11.2494 0)
(49.9134 11.311 0)
(49.9205 11.3699 0)
(49.9273 11.4262 0)
(49.9339 11.4801 0)
(49.9404 11.5316 0)
(49.9467 11.5809 0)
(49.9529 11.6281 0)
(49.9591 11.6733 0)
(49.9652 11.7166 0)
(49.9714 11.7581 0)
(49.9776 11.7978 0)
(49.9838 11.8358 0)
(49.9902 11.8723 0)
(49.9966 11.9072 0)
(50.0032 11.9406 0)
(50.01 11.9727 0)
(50.0169 12.0033 0)
(50.0241 12.0327 0)
(50.0314 12.0608 0)
(50.039 12.0877 0)
(50.0468 12.1134 0)
(50.0549 12.138 0)
(50.0632 12.1613 0)
(50.072 12.1834 0)
(50.0814 12.2044 0)
(50.0912 12.2243 0)
(50.1013 12.2434 0)
(50.1115 12.2617 0)
(50.1218 12.2791 0)
(50.1324 12.2952 0)
(50.1437 12.3097 0)
(50.1569 12.3224 0)
(50.1704 12.3336 0)
(50.1871 12.3436 0)
(50.1998 12.3532 0)
(50.2207 12.3616 0)
(50.2244 12.3735 0)
(50.2576 12.3676 0)
(49.7997 10.4419 0)
(49.8149 10.5417 0)
(49.8287 10.6365 0)
(49.8412 10.7267 0)
(49.8527 10.8125 0)
(49.8633 10.8943 0)
(49.8731 10.9721 0)
(49.8823 11.0464 0)
(49.8908 11.1172 0)
(49.8989 11.1848 0)
(49.9066 11.2493 0)
(49.9139 11.3109 0)
(49.9209 11.3698 0)
(49.9277 11.4261 0)
(49.9343 11.48 0)
(49.9407 11.5315 0)
(49.947 11.5809 0)
(49.9531 11.6281 0)
(49.9593 11.6733 0)
(49.9654 11.7166 0)
(49.9715 11.758 0)
(49.9777 11.7978 0)
(49.9839 11.8358 0)
(49.9903 11.8722 0)
(49.9967 11.9072 0)
(50.0033 11.9406 0)
(50.0101 11.9726 0)
(50.017 12.0033 0)
(50.0241 12.0327 0)
(50.0315 12.0608 0)
(50.039 12.0877 0)
(50.0468 12.1134 0)
(50.0549 12.138 0)
(50.0632 12.1613 0)
(50.0721 12.1834 0)
(50.0814 12.2044 0)
(50.0912 12.2243 0)
(50.1013 12.2434 0)
(50.1115 12.2617 0)
(50.1217 12.2791 0)
(50.1324 12.2952 0)
(50.1437 12.3097 0)
(50.1569 12.3224 0)
(50.1705 12.3336 0)
(50.1872 12.3436 0)
(50.1998 12.3532 0)
(50.2207 12.3616 0)
(50.2243 12.3735 0)
(50.2576 12.3676 0)
(49.785 10.3365 0)
(49.8016 10.4416 0)
(49.8165 10.5414 0)
(49.8301 10.6363 0)
(49.8425 10.7265 0)
(49.8538 10.8124 0)
(49.8643 10.8941 0)
(49.874 10.972 0)
(49.883 11.0463 0)
(49.8915 11.1171 0)
(49.8995 11.1847 0)
(49.9071 11.2492 0)
(49.9144 11.3109 0)
(49.9213 11.3698 0)
(49.928 11.4261 0)
(49.9346 11.48 0)
(49.9409 11.5315 0)
(49.9472 11.5808 0)
(49.9534 11.628 0)
(49.9595 11.6733 0)
(49.9656 11.7165 0)