/*--------------------------------*- C++ -*----------------------------------*\
  =========                 |
  \\      /  F ield         | OpenFOAM: The Open Source CFD Toolbox
   \\    /   O peration     | Website:  https://openfoam.org
    \\  /    A nd           | Version:  7
     \\/     M anipulation  |
\*---------------------------------------------------------------------------*/
FoamFile
{
    version     2.0;
    format      ascii;
    class       volScalarField;
    location    "200";
    object      nut;
}
// * * * * * * * * * * * * * * * * * * * * * * * * * * * * * * * * * * * * * //

dimensions      [0 2 -1 0 0 0 0];

internalField   nonuniform List<scalar> 
23064
(
5.2071e-06
5.20813e-06
5.2071e-06
5.20912e-06
5.20813e-06
5.2071e-06
5.21007e-06
5.20911e-06
5.20813e-06
5.2071e-06
5.21099e-06
5.21006e-06
5.20911e-06
5.20812e-06
5.2071e-06
5.21188e-06
5.21099e-06
5.21006e-06
5.2091e-06
5.20812e-06
5.2071e-06
5.21275e-06
5.21188e-06
5.21098e-06
5.21005e-06
5.2091e-06
5.20811e-06
5.2071e-06
5.21358e-06
5.21274e-06
5.21187e-06
5.21097e-06
5.21005e-06
5.20909e-06
5.20811e-06
5.20709e-06
5.21438e-06
5.21358e-06
5.21274e-06
5.21187e-06
5.21097e-06
5.21004e-06
5.20908e-06
5.20811e-06
5.20709e-06
5.21515e-06
5.21438e-06
5.21357e-06
5.21273e-06
5.21186e-06
5.21096e-06
5.21003e-06
5.20908e-06
5.2081e-06
5.20709e-06
5.21589e-06
5.21515e-06
5.21438e-06
5.21357e-06
5.21273e-06
5.21185e-06
5.21095e-06
5.21002e-06
5.20907e-06
5.2081e-06
5.20709e-06
5.2166e-06
5.21589e-06
5.21515e-06
5.21438e-06
5.21357e-06
5.21272e-06
5.21185e-06
5.21094e-06
5.21001e-06
5.20906e-06
5.20809e-06
5.20709e-06
5.21729e-06
5.21661e-06
5.2159e-06
5.21515e-06
5.21437e-06
5.21356e-06
5.21272e-06
5.21184e-06
5.21093e-06
5.21e-06
5.20905e-06
5.20808e-06
5.20709e-06
5.21794e-06
5.21729e-06
5.21661e-06
5.2159e-06
5.21515e-06
5.21437e-06
5.21356e-06
5.21271e-06
5.21183e-06
5.21092e-06
5.20999e-06
5.20904e-06
5.20808e-06
5.20708e-06
5.21857e-06
5.21795e-06
5.2173e-06
5.21662e-06
5.2159e-06
5.21515e-06
5.21437e-06
5.21355e-06
5.2127e-06
5.21182e-06
5.21091e-06
5.20998e-06
5.20903e-06
5.20807e-06
5.20708e-06
5.21917e-06
5.21858e-06
5.21796e-06
5.21731e-06
5.21662e-06
5.21591e-06
5.21515e-06
5.21437e-06
5.21355e-06
5.21269e-06
5.21181e-06
5.2109e-06
5.20997e-06
5.20902e-06
5.20806e-06
5.20708e-06
5.21975e-06
5.21919e-06
5.2186e-06
5.21797e-06
5.21732e-06
5.21663e-06
5.21591e-06
5.21515e-06
5.21436e-06
5.21354e-06
5.21268e-06
5.2118e-06
5.21089e-06
5.20995e-06
5.20901e-06
5.20805e-06
5.20708e-06
5.2203e-06
5.21977e-06
5.2192e-06
5.21861e-06
5.21798e-06
5.21732e-06
5.21663e-06
5.21591e-06
5.21515e-06
5.21436e-06
5.21353e-06
5.21267e-06
5.21179e-06
5.21087e-06
5.20994e-06
5.209e-06
5.20805e-06
5.20707e-06
5.22084e-06
5.22032e-06
5.21978e-06
5.21922e-06
5.21862e-06
5.21799e-06
5.21733e-06
5.21664e-06
5.21591e-06
5.21515e-06
5.21436e-06
5.21353e-06
5.21266e-06
5.21177e-06
5.21086e-06
5.20993e-06
5.20898e-06
5.20804e-06
5.20707e-06
5.22134e-06
5.22086e-06
5.22034e-06
5.2198e-06
5.21923e-06
5.21863e-06
5.218e-06
5.21734e-06
5.21664e-06
5.21591e-06
5.21515e-06
5.21435e-06
5.21352e-06
5.21265e-06
5.21176e-06
5.21084e-06
5.20991e-06
5.20897e-06
5.20802e-06
5.20707e-06
5.22183e-06
5.22137e-06
5.22088e-06
5.22036e-06
5.21982e-06
5.21925e-06
5.21865e-06
5.21801e-06
5.21735e-06
5.21665e-06
5.21591e-06
5.21515e-06
5.21435e-06
5.21351e-06
5.21264e-06
5.21175e-06
5.21083e-06
5.20989e-06
5.20895e-06
5.20801e-06
5.20706e-06
5.2223e-06
5.22186e-06
5.22139e-06
5.2209e-06
5.22038e-06
5.21984e-06
5.21926e-06
5.21866e-06
5.21802e-06
5.21735e-06
5.21665e-06
5.21592e-06
5.21514e-06
5.21434e-06
5.2135e-06
5.21263e-06
5.21173e-06
5.21081e-06
5.20988e-06
5.20894e-06
5.208e-06
5.20706e-06
5.22275e-06
5.22233e-06
5.22188e-06
5.22142e-06
5.22092e-06
5.2204e-06
5.21985e-06
5.21928e-06
5.21867e-06
5.21803e-06
5.21736e-06
5.21666e-06
5.21592e-06
5.21514e-06
5.21433e-06
5.21349e-06
5.21262e-06
5.21172e-06
5.21079e-06
5.20986e-06
5.20892e-06
5.20799e-06
5.20706e-06
5.22318e-06
5.22278e-06
5.22236e-06
5.22191e-06
5.22144e-06
5.22094e-06
5.22042e-06
5.21987e-06
5.21929e-06
5.21868e-06
5.21804e-06
5.21737e-06
5.21666e-06
5.21592e-06
5.21514e-06
5.21433e-06
5.21348e-06
5.2126e-06
5.2117e-06
5.21077e-06
5.20984e-06
5.2089e-06
5.20798e-06
5.20705e-06
5.22359e-06
5.22321e-06
5.22281e-06
5.22238e-06
5.22194e-06
5.22146e-06
5.22097e-06
5.22044e-06
5.21989e-06
5.21931e-06
5.2187e-06
5.21805e-06
5.21737e-06
5.21666e-06
5.21592e-06
5.21514e-06
5.21432e-06
5.21347e-06
5.21259e-06
5.21168e-06
5.21075e-06
5.20981e-06
5.20888e-06
5.20796e-06
5.20704e-06
5.22399e-06
5.22363e-06
5.22324e-06
5.22284e-06
5.22241e-06
5.22196e-06
5.22149e-06
5.22099e-06
5.22046e-06
5.21991e-06
5.21932e-06
5.21871e-06
5.21806e-06
5.21738e-06
5.21667e-06
5.21592e-06
5.21513e-06
5.21431e-06
5.21346e-06
5.21257e-06
5.21166e-06
5.21073e-06
5.20979e-06
5.20886e-06
5.20794e-06
5.20704e-06
5.22437e-06
5.22402e-06
5.22366e-06
5.22327e-06
5.22287e-06
5.22244e-06
5.22199e-06
5.22151e-06
5.22101e-06
5.22048e-06
5.21993e-06
5.21934e-06
5.21872e-06
5.21807e-06
5.21739e-06
5.21667e-06
5.21592e-06
5.21513e-06
5.2143e-06
5.21344e-06
5.21256e-06
5.21164e-06
5.21071e-06
5.20977e-06
5.20884e-06
5.20793e-06
5.20703e-06
5.22474e-06
5.22441e-06
5.22406e-06
5.22369e-06
5.2233e-06
5.2229e-06
5.22247e-06
5.22201e-06
5.22154e-06
5.22103e-06
5.2205e-06
5.21994e-06
5.21935e-06
5.21873e-06
5.21808e-06
5.21739e-06
5.21667e-06
5.21591e-06
5.21512e-06
5.21429e-06
5.21343e-06
5.21254e-06
5.21162e-06
5.21068e-06
5.20974e-06
5.20881e-06
5.20791e-06
5.20703e-06
5.22509e-06
5.22477e-06
5.22444e-06
5.22409e-06
5.22372e-06
5.22334e-06
5.22293e-06
5.2225e-06
5.22204e-06
5.22156e-06
5.22106e-06
5.22052e-06
5.21996e-06
5.21937e-06
5.21875e-06
5.21809e-06
5.2174e-06
5.21668e-06
5.21591e-06
5.21512e-06
5.21428e-06
5.21342e-06
5.21252e-06
5.21159e-06
5.21065e-06
5.20971e-06
5.20879e-06
5.20789e-06
5.20702e-06
5.22543e-06
5.22513e-06
5.22481e-06
5.22448e-06
5.22413e-06
5.22376e-06
5.22337e-06
5.22296e-06
5.22252e-06
5.22207e-06
5.22159e-06
5.22108e-06
5.22054e-06
5.21998e-06
5.21939e-06
5.21876e-06
5.2181e-06
5.21741e-06
5.21668e-06
5.21591e-06
5.21511e-06
5.21427e-06
5.2134e-06
5.2125e-06
5.21157e-06
5.21063e-06
5.20968e-06
5.20876e-06
5.20787e-06
5.20701e-06
5.22576e-06
5.22547e-06
5.22517e-06
5.22485e-06
5.22451e-06
5.22416e-06
5.22379e-06
5.2234e-06
5.22299e-06
5.22255e-06
5.2221e-06
5.22161e-06
5.2211e-06
5.22057e-06
5.22e-06
5.2194e-06
5.21877e-06
5.21811e-06
5.21741e-06
5.21668e-06
5.21591e-06
5.2151e-06
5.21426e-06
5.21339e-06
5.21248e-06
5.21154e-06
5.2106e-06
5.20965e-06
5.20873e-06
5.20784e-06
5.207e-06
0.000137367
5.22607e-06
5.2258e-06
5.22551e-06
5.22521e-06
5.22489e-06
5.22455e-06
5.2242e-06
5.22382e-06
5.22343e-06
5.22302e-06
5.22258e-06
5.22212e-06
5.22164e-06
5.22113e-06
5.22059e-06
5.22002e-06
5.21942e-06
5.21879e-06
5.21812e-06
5.21742e-06
5.21668e-06
5.21591e-06
5.2151e-06
5.21425e-06
5.21337e-06
5.21246e-06
5.21152e-06
5.21057e-06
5.20962e-06
5.2087e-06
5.20782e-06
5.20699e-06
0.000178111
0.000145076
5.22637e-06
5.22611e-06
5.22584e-06
5.22555e-06
5.22524e-06
5.22492e-06
5.22459e-06
5.22423e-06
5.22386e-06
5.22347e-06
5.22305e-06
5.22261e-06
5.22215e-06
5.22167e-06
5.22115e-06
5.22061e-06
5.22004e-06
5.21944e-06
5.2188e-06
5.21813e-06
5.21743e-06
5.21669e-06
5.21591e-06
5.21509e-06
5.21424e-06
5.21335e-06
5.21243e-06
5.21149e-06
5.21053e-06
5.20958e-06
5.20866e-06
5.20779e-06
5.20698e-06
0.00039153
0.000184082
0.000152139
5.22667e-06
5.22642e-06
5.22615e-06
5.22588e-06
5.22559e-06
5.22528e-06
5.22496e-06
5.22462e-06
5.22427e-06
5.22389e-06
5.2235e-06
5.22308e-06
5.22264e-06
5.22218e-06
5.22169e-06
5.22118e-06
5.22063e-06
5.22006e-06
5.21945e-06
5.21881e-06
5.21814e-06
5.21743e-06
5.21669e-06
5.2159e-06
5.21508e-06
5.21423e-06
5.21333e-06
5.21241e-06
5.21146e-06
5.2105e-06
5.20955e-06
5.20863e-06
5.20776e-06
5.20697e-06
0.000658152
0.000403366
0.000189187
0.00015859
5.22695e-06
5.22671e-06
5.22646e-06
5.2262e-06
5.22592e-06
5.22563e-06
5.22532e-06
5.225e-06
5.22466e-06
5.22431e-06
5.22393e-06
5.22353e-06
5.22312e-06
5.22267e-06
5.22221e-06
5.22172e-06
5.2212e-06
5.22065e-06
5.22008e-06
5.21947e-06
5.21883e-06
5.21815e-06
5.21744e-06
5.21669e-06
5.2159e-06
5.21508e-06
5.21421e-06
5.21331e-06
5.21238e-06
5.21143e-06
5.21046e-06
5.20951e-06
5.20859e-06
5.20773e-06
5.20695e-06
0.000978554
0.000677993
0.000413533
0.000193573
0.00016445
5.22722e-06
5.22699e-06
5.22675e-06
5.2265e-06
5.22624e-06
5.22596e-06
5.22567e-06
5.22536e-06
5.22504e-06
5.2247e-06
5.22434e-06
5.22396e-06
5.22357e-06
5.22315e-06
5.22271e-06
5.22224e-06
5.22175e-06
5.22123e-06
5.22068e-06
5.2201e-06
5.21949e-06
5.21884e-06
5.21816e-06
5.21745e-06
5.21669e-06
5.2159e-06
5.21507e-06
5.2142e-06
5.21329e-06
5.21235e-06
5.21139e-06
5.21042e-06
5.20946e-06
5.20855e-06
5.2077e-06
5.20694e-06
0.00134747
0.00100841
0.000695084
0.000422207
0.000197316
0.000169668
5.22749e-06
5.22727e-06
5.22704e-06
5.2268e-06
5.22655e-06
5.22628e-06
5.226e-06
5.22571e-06
5.2254e-06
5.22508e-06
5.22474e-06
5.22438e-06
5.224e-06
5.2236e-06
5.22318e-06
5.22274e-06
5.22227e-06
5.22177e-06
5.22125e-06
5.2207e-06
5.22012e-06
5.2195e-06
5.21886e-06
5.21817e-06
5.21745e-06
5.21669e-06
5.2159e-06
5.21506e-06
5.21418e-06
5.21327e-06
5.21232e-06
5.21136e-06
5.21038e-06
5.20942e-06
5.2085e-06
5.20766e-06
5.20692e-06
0.00176337
0.0013893
0.00103411
0.000709768
0.000429544
0.000200549
0.000174332
5.22774e-06
5.22753e-06
5.22731e-06
5.22708e-06
5.22684e-06
5.22659e-06
5.22633e-06
5.22605e-06
5.22575e-06
5.22544e-06
5.22512e-06
5.22478e-06
5.22442e-06
5.22404e-06
5.22364e-06
5.22322e-06
5.22277e-06
5.2223e-06
5.2218e-06
5.22128e-06
5.22072e-06
5.22014e-06
5.21952e-06
5.21887e-06
5.21818e-06
5.21746e-06
5.2167e-06
5.21589e-06
5.21505e-06
5.21417e-06
5.21325e-06
5.21229e-06
5.21132e-06
5.21034e-06
5.20937e-06
5.20845e-06
5.20762e-06
5.20691e-06
0.0022255
0.00181909
0.00142538
0.00105624
0.000722298
0.000435893
0.000203346
0.000178426
5.22799e-06
5.22779e-06
5.22758e-06
5.22736e-06
5.22713e-06
5.22689e-06
5.22664e-06
5.22637e-06
5.22609e-06
5.22579e-06
5.22549e-06
5.22516e-06
5.22482e-06
5.22446e-06
5.22407e-06
5.22367e-06
5.22325e-06
5.2228e-06
5.22233e-06
5.22183e-06
5.2213e-06
5.22075e-06
5.22016e-06
5.21954e-06
5.21889e-06
5.2182e-06
5.21747e-06
5.2167e-06
5.21589e-06
5.21504e-06
5.21415e-06
5.21322e-06
5.21226e-06
5.21128e-06
5.21029e-06
5.20932e-06
5.2084e-06
5.20758e-06
5.20689e-06
0.00273349
0.00229704
0.00186724
0.00145654
0.00107532
0.000733136
0.000441438
0.000205859
0.000182011
5.22823e-06
5.22804e-06
5.22784e-06
5.22763e-06
5.22741e-06
5.22718e-06
5.22693e-06
5.22668e-06
5.22641e-06
5.22613e-06
5.22584e-06
5.22553e-06
5.2252e-06
5.22486e-06
5.22449e-06
5.22411e-06
5.22371e-06
5.22328e-06
5.22284e-06
5.22236e-06
5.22186e-06
5.22133e-06
5.22077e-06
5.22018e-06
5.21956e-06
5.2189e-06
5.21821e-06
5.21747e-06
5.2167e-06
5.21589e-06
5.21503e-06
5.21413e-06
5.2132e-06
5.21223e-06
5.21124e-06
5.21024e-06
5.20927e-06
5.20835e-06
5.20754e-06
5.20687e-06
0.00328719
0.00282288
0.00235903
0.00190893
0.00148349
0.00109197
0.000742666
0.000446425
0.000208128
0.000185088
5.22846e-06
5.22828e-06
5.22809e-06
5.22788e-06
5.22767e-06
5.22745e-06
5.22722e-06
5.22698e-06
5.22673e-06
5.22646e-06
5.22618e-06
5.22588e-06
5.22557e-06
5.22524e-06
5.2249e-06
5.22453e-06
5.22415e-06
5.22375e-06
5.22332e-06
5.22287e-06
5.22239e-06
5.22189e-06
5.22136e-06
5.2208e-06
5.22021e-06
5.21958e-06
5.21892e-06
5.21822e-06
5.21748e-06
5.2167e-06
5.21588e-06
5.21502e-06
5.21411e-06
5.21317e-06
5.21219e-06
5.21119e-06
5.21019e-06
5.20921e-06
5.20829e-06
5.20749e-06
5.20685e-06
0.00388659
0.00339661
0.00290057
0.00241283
0.0019451
0.0015071
0.00110666
0.000751344
0.000451031
0.000210225
0.000187631
5.22869e-06
5.22851e-06
5.22833e-06
5.22813e-06
5.22793e-06
5.22772e-06
5.2275e-06
5.22727e-06
5.22703e-06
5.22677e-06
5.2265e-06
5.22622e-06
5.22592e-06
5.22561e-06
5.22528e-06
5.22494e-06
5.22457e-06
5.22419e-06
5.22378e-06
5.22336e-06
5.2229e-06
5.22243e-06
5.22192e-06
5.22139e-06
5.22083e-06
5.22023e-06
5.2196e-06
5.21893e-06
5.21823e-06
5.21749e-06
5.2167e-06
5.21588e-06
5.21501e-06
5.21409e-06
5.21314e-06
5.21216e-06
5.21115e-06
5.21014e-06
5.20915e-06
5.20823e-06
5.20744e-06
5.20682e-06
0.0045319
0.00401836
0.00349196
0.00296814
0.0024596
0.00197689
0.00152802
0.00112009
0.000759416
0.000455354
0.000212194
0.000189731
5.22891e-06
5.22874e-06
5.22856e-06
5.22838e-06
5.22818e-06
5.22798e-06
5.22777e-06
5.22755e-06
5.22732e-06
5.22707e-06
5.22682e-06
5.22655e-06
5.22627e-06
5.22597e-06
5.22566e-06
5.22533e-06
5.22498e-06
5.22461e-06
5.22423e-06
5.22382e-06
5.22339e-06
5.22294e-06
5.22246e-06
5.22195e-06
5.22142e-06
5.22085e-06
5.22025e-06
5.21962e-06
5.21895e-06
5.21824e-06
5.21749e-06
5.2167e-06
5.21587e-06
5.21499e-06
5.21407e-06
5.21311e-06
5.21212e-06
5.2111e-06
5.21008e-06
5.20908e-06
5.20817e-06
5.20738e-06
5.2068e-06
0.00522349
0.00468851
0.00413346
0.00357512
0.00302704
0.00250084
0.00200511
0.00154715
0.0011326
0.00076703
0.000459554
0.00021416
0.000191344
5.22912e-06
5.22896e-06
5.22879e-06
5.22861e-06
5.22843e-06
5.22823e-06
5.22803e-06
5.22782e-06
5.2276e-06
5.22736e-06
5.22712e-06
5.22686e-06
5.22659e-06
5.22631e-06
5.22601e-06
5.2257e-06
5.22537e-06
5.22502e-06
5.22466e-06
5.22427e-06
5.22386e-06
5.22343e-06
5.22298e-06
5.22249e-06
5.22199e-06
5.22145e-06
5.22088e-06
5.22028e-06
5.21964e-06
5.21897e-06
5.21825e-06
5.2175e-06
5.21671e-06
5.21587e-06
5.21498e-06
5.21405e-06
5.21308e-06
5.21208e-06
5.21105e-06
5.21002e-06
5.20902e-06
5.2081e-06
5.20732e-06
5.20677e-06
0.00596174
0.00540757
0.00482566
0.00423412
0.00364775
0.00307911
0.00253762
0.00203099
0.00156502
0.00114446
0.000774417
0.000463756
0.000216095
0.000192415
5.22933e-06
5.22917e-06
5.22901e-06
5.22884e-06
5.22866e-06
5.22848e-06
5.22828e-06
5.22808e-06
5.22787e-06
5.22765e-06
5.22741e-06
5.22717e-06
5.22691e-06
5.22664e-06
5.22636e-06
5.22606e-06
5.22574e-06
5.22541e-06
5.22506e-06
5.2247e-06
5.22431e-06
5.2239e-06
5.22347e-06
5.22301e-06
5.22253e-06
5.22202e-06
5.22148e-06
5.22091e-06
5.2203e-06
5.21966e-06
5.21898e-06
5.21827e-06
5.21751e-06
5.21671e-06
5.21586e-06
5.21497e-06
5.21403e-06
5.21305e-06
5.21204e-06
5.211e-06
5.20995e-06
5.20894e-06
5.20802e-06
5.20726e-06
5.20674e-06
0.0067472
0.00617612
0.00556917
0.00494587
0.00432235
0.00371215
0.00312571
0.00257134
0.00205523
0.00158202
0.00115601
0.000781804
0.000467998
0.000217977
0.000192947
5.22953e-06
5.22938e-06
5.22922e-06
5.22906e-06
5.22889e-06
5.22871e-06
5.22853e-06
5.22833e-06
5.22813e-06
5.22792e-06
5.22769e-06
5.22746e-06
5.22722e-06
5.22696e-06
5.22669e-06
5.2264e-06
5.2261e-06
5.22579e-06
5.22546e-06
5.22511e-06
5.22474e-06
5.22435e-06
5.22394e-06
5.22351e-06
5.22305e-06
5.22256e-06
5.22205e-06
5.22151e-06
5.22094e-06
5.22033e-06
5.21968e-06
5.219e-06
5.21828e-06
5.21752e-06
5.21671e-06
5.21586e-06
5.21496e-06
5.21401e-06
5.21302e-06
5.21199e-06
5.21094e-06
5.20989e-06
5.20887e-06
5.20795e-06
5.20719e-06
5.2067e-06
0.00758025
0.00699478
0.00636476
0.00571122
0.00505155
0.00440068
0.00376994
0.00316848
0.00260298
0.00207829
0.0015986
0.00116746
0.000789216
0.000472285
0.000219931
0.000192872
5.22972e-06
5.22958e-06
5.22943e-06
5.22928e-06
5.22911e-06
5.22894e-06
5.22876e-06
5.22858e-06
5.22838e-06
5.22818e-06
5.22797e-06
5.22774e-06
5.22751e-06
5.22726e-06
5.22701e-06
5.22673e-06
5.22645e-06
5.22615e-06
5.22583e-06
5.2255e-06
5.22515e-06
5.22478e-06
5.22439e-06
5.22398e-06
5.22355e-06
5.22309e-06
5.2226e-06
5.22209e-06
5.22154e-06
5.22097e-06
5.22035e-06
5.21971e-06
5.21902e-06
5.2183e-06
5.21753e-06
5.21671e-06
5.21585e-06
5.21494e-06
5.21399e-06
5.21298e-06
5.21195e-06
5.21088e-06
5.20981e-06
5.20879e-06
5.20786e-06
5.20711e-06
5.20666e-06
0.00846029
0.00786398
0.00721327
0.00653104
0.00583638
0.00514561
0.00447112
0.00382303
0.00320858
0.00263317
0.00210082
0.00161509
0.00117892
0.000796684
0.000476746
0.000221964
0.000192015
5.22992e-06
5.22978e-06
5.22963e-06
5.22948e-06
5.22933e-06
5.22916e-06
5.22899e-06
5.22882e-06
5.22863e-06
5.22843e-06
5.22823e-06
5.22802e-06
5.22779e-06
5.22756e-06
5.22731e-06
5.22705e-06
5.22678e-06
5.2265e-06
5.2262e-06
5.22588e-06
5.22555e-06
5.2252e-06
5.22483e-06
5.22444e-06
5.22402e-06
5.22359e-06
5.22313e-06
5.22264e-06
5.22212e-06
5.22158e-06
5.221e-06
5.22038e-06
5.21973e-06
5.21904e-06
5.21831e-06
5.21754e-06
5.21672e-06
5.21585e-06
5.21493e-06
5.21396e-06
5.21295e-06
5.2119e-06
5.21082e-06
5.20974e-06
5.2087e-06
5.20777e-06
5.20703e-06
5.20663e-06
0.00938433
0.00878264
0.00811496
0.0074063
0.00667796
0.00594801
0.00523032
0.0045359
0.00387287
0.00324697
0.00266265
0.00212329
0.00163157
0.00119045
0.000804362
0.000481234
0.000223996
0.000190279
5.2301e-06
5.22997e-06
5.22983e-06
5.22969e-06
5.22954e-06
5.22938e-06
5.22922e-06
5.22905e-06
5.22887e-06
5.22868e-06
5.22848e-06
5.22828e-06
5.22807e-06
5.22784e-06
5.22761e-06
5.22736e-06
5.2271e-06
5.22683e-06
5.22655e-06
5.22624e-06
5.22593e-06
5.2256e-06
5.22524e-06
5.22487e-06
5.22448e-06
5.22407e-06
5.22363e-06
5.22317e-06
5.22268e-06
5.22216e-06
5.22161e-06
5.22103e-06
5.22041e-06
5.21976e-06
5.21906e-06
5.21833e-06
5.21755e-06
5.21672e-06
5.21584e-06
5.21491e-06
5.21394e-06
5.21291e-06
5.21185e-06
5.21076e-06
5.20966e-06
5.20861e-06
5.20768e-06
5.20694e-06
5.20662e-06
0.0103451
0.00974618
0.00906802
0.00833708
0.00757727
0.00680919
0.00604888
0.00530835
0.00459685
0.00392058
0.00328447
0.00269202
0.00214578
0.00164822
0.00120217
0.000812132
0.000485755
0.000226052
0.000187586
5.23028e-06
5.23016e-06
5.23002e-06
5.22989e-06
5.22974e-06
5.22959e-06
5.22943e-06
5.22927e-06
5.2291e-06
5.22892e-06
5.22873e-06
5.22854e-06
5.22833e-06
5.22812e-06
5.22789e-06
5.22766e-06
5.22741e-06
5.22715e-06
5.22688e-06
5.22659e-06
5.22629e-06
5.22598e-06
5.22564e-06
5.22529e-06
5.22492e-06
5.22453e-06
5.22411e-06
5.22367e-06
5.22321e-06
5.22272e-06
5.2222e-06
5.22164e-06
5.22106e-06
5.22044e-06
5.21978e-06
5.21908e-06
5.21834e-06
5.21756e-06
5.21672e-06
5.21584e-06
5.2149e-06
5.21391e-06
5.21287e-06
5.2118e-06
5.21069e-06
5.20958e-06
5.20851e-06
5.20757e-06
5.20687e-06
5.20663e-06
0.0113322
0.0107452
0.0100661
0.00932057
0.0085341
0.00773017
0.00692808
0.00614183
0.00538183
0.00465525
0.00396724
0.00332182
0.0027215
0.00216852
0.00166519
0.00121398
0.000819957
0.000490421
0.000228157
0.000183597
5.23046e-06
5.23034e-06
5.23021e-06
5.23008e-06
5.22994e-06
5.22979e-06
5.22964e-06
5.22949e-06
5.22932e-06
5.22915e-06
5.22897e-06
5.22878e-06
5.22859e-06
5.22838e-06
5.22817e-06
5.22794e-06
5.22771e-06
5.22746e-06
5.2272e-06
5.22693e-06
5.22664e-06
5.22634e-06
5.22602e-06
5.22569e-06
5.22534e-06
5.22497e-06
5.22457e-06
5.22416e-06
5.22372e-06
5.22325e-06
5.22276e-06
5.22223e-06
5.22168e-06
5.22109e-06
5.22047e-06
5.21981e-06
5.2191e-06
5.21836e-06
5.21757e-06
5.21672e-06
5.21583e-06
5.21488e-06
5.21389e-06
5.21284e-06
5.21174e-06
5.21062e-06
5.20949e-06
5.20841e-06
5.20746e-06
5.20683e-06
5.20667e-06
0.0123342
0.0117671
0.0110976
0.0103486
0.00954445
0.00871043
0.00786892
0.00703775
0.00622938
0.00545228
0.00471227
0.00401376
0.0033594
0.00275138
0.00219178
0.00168236
0.00122584
0.000827906
0.00049519
0.000230295
0.000178219
5.23063e-06
5.23051e-06
5.23039e-06
5.23026e-06
5.23013e-06
5.22999e-06
5.22985e-06
5.2297e-06
5.22954e-06
5.22937e-06
5.2292e-06
5.22902e-06
5.22883e-06
5.22864e-06
5.22843e-06
5.22822e-06
5.228e-06
5.22776e-06
5.22751e-06
5.22725e-06
5.22698e-06
5.22669e-06
5.22639e-06
5.22607e-06
5.22574e-06
5.22539e-06
5.22501e-06
5.22462e-06
5.2242e-06
5.22376e-06
5.22329e-06
5.2228e-06
5.22227e-06
5.22172e-06
5.22113e-06
5.2205e-06
5.21983e-06
5.21913e-06
5.21838e-06
5.21758e-06
5.21673e-06
5.21583e-06
5.21487e-06
5.21386e-06
5.21279e-06
5.21169e-06
5.21054e-06
5.2094e-06
5.2083e-06
5.20735e-06
5.20682e-06
5.20672e-06
0.0133414
0.0127998
0.0121488
0.0114078
0.0105984
0.00974463
0.0088704
0.00799709
0.00714108
0.00631338
0.00552105
0.00476915
0.00406054
0.0033975
0.00278198
0.00221542
0.00169973
0.00123772
0.000835866
0.000499871
0.000232924
0.000171216
5.2308e-06
5.23069e-06
5.23057e-06
5.23045e-06
5.23032e-06
5.23019e-06
5.23005e-06
5.2299e-06
5.22975e-06
5.22959e-06
5.22943e-06
5.22925e-06
5.22907e-06
5.22889e-06
5.22869e-06
5.22849e-06
5.22827e-06
5.22805e-06
5.22781e-06
5.22756e-06
5.2273e-06
5.22703e-06
5.22674e-06
5.22644e-06
5.22612e-06
5.22579e-06
5.22544e-06
5.22506e-06
5.22467e-06
5.22425e-06
5.22381e-06
5.22334e-06
5.22284e-06
5.22231e-06
5.22175e-06
5.22116e-06
5.22053e-06
5.21986e-06
5.21915e-06
5.21839e-06
5.21759e-06
5.21673e-06
5.21582e-06
5.21485e-06
5.21383e-06
5.21275e-06
5.21163e-06
5.21047e-06
5.2093e-06
5.20819e-06
5.20725e-06
5.20684e-06
5.20678e-06
0.0143464
0.0138335
0.0132071
0.0124835
0.0116811
0.0108211
0.00992597
0.0090181
0.00811778
0.00724022
0.00639541
0.00558956
0.00482636
0.00410802
0.00343656
0.00281326
0.0022395
0.00171731
0.00124947
0.000843552
0.00050491
0.000237958
0.000163017
5.23096e-06
5.23085e-06
5.23074e-06
5.23062e-06
5.2305e-06
5.23037e-06
5.23024e-06
5.2301e-06
5.22996e-06
5.2298e-06
5.22964e-06
5.22948e-06
5.22931e-06
5.22913e-06
5.22894e-06
5.22874e-06
5.22854e-06
5.22832e-06
5.2281e-06
5.22786e-06
5.22762e-06
5.22736e-06
5.22708e-06
5.2268e-06
5.22649e-06
5.22618e-06
5.22584e-06
5.22549e-06
5.22511e-06
5.22472e-06
5.2243e-06
5.22385e-06
5.22338e-06
5.22288e-06
5.22236e-06
5.22179e-06
5.2212e-06
5.22056e-06
5.21989e-06
5.21917e-06
5.21841e-06
5.2176e-06
5.21674e-06
5.21582e-06
5.21484e-06
5.2138e-06
5.21271e-06
5.21157e-06
5.21039e-06
5.2092e-06
5.20807e-06
5.20715e-06
5.20689e-06
5.20685e-06
0.0153445
0.0148613
0.0142632
0.0135635
0.0127777
0.0119242
0.0110225
0.0100931
0.00915707
0.00823352
0.00733702
0.00647698
0.00565857
0.00488444
0.0041567
0.0034766
0.00284523
0.0022641
0.00173489
0.00126067
0.000851833
0.000510385
0.000247243
0.000152663
5.23112e-06
5.23102e-06
5.23091e-06
5.2308e-06
5.23068e-06
5.23056e-06
5.23043e-06
5.23029e-06
5.23015e-06
5.23001e-06
5.22986e-06
5.2297e-06
5.22953e-06
5.22936e-06
5.22918e-06
5.22899e-06
5.2288e-06
5.22859e-06
5.22838e-06
5.22815e-06
5.22792e-06
5.22767e-06
5.22741e-06
5.22714e-06
5.22685e-06
5.22655e-06
5.22623e-06
5.22589e-06
5.22554e-06
5.22516e-06
5.22477e-06
5.22434e-06
5.2239e-06
5.22343e-06
5.22293e-06
5.2224e-06
5.22183e-06
5.22124e-06
5.2206e-06
5.21992e-06
5.2192e-06
5.21843e-06
5.21761e-06
5.21674e-06
5.21581e-06
5.21482e-06
5.21377e-06
5.21267e-06
5.2115e-06
5.21031e-06
5.2091e-06
5.20794e-06
5.20709e-06
5.20698e-06
5.20694e-06
0.0163334
0.0158791
0.0153108
0.0146388
0.0138764
0.0130392
0.0121437
0.0112079
0.0102502
0.00929035
0.00834645
0.00743321
0.00655909
0.00572862
0.00494404
0.00420671
0.0035177
0.00287808
0.00228898
0.00175203
0.00127295
0.000860195
0.000516749
0.000259509
0.000140531
5.23128e-06
5.23118e-06
5.23107e-06
5.23096e-06
5.23085e-06
5.23073e-06
5.23061e-06
5.23048e-06
5.23035e-06
5.23021e-06
5.23006e-06
5.22991e-06
5.22975e-06
5.22959e-06
5.22941e-06
5.22923e-06
5.22905e-06
5.22885e-06
5.22865e-06
5.22843e-06
5.22821e-06
5.22797e-06
5.22772e-06
5.22746e-06
5.22719e-06
5.2269e-06
5.2266e-06
5.22628e-06
5.22594e-06
5.22559e-06
5.22521e-06
5.22482e-06
5.2244e-06
5.22395e-06
5.22348e-06
5.22298e-06
5.22244e-06
5.22188e-06
5.22127e-06
5.22063e-06
5.21995e-06
5.21923e-06
5.21845e-06
5.21763e-06
5.21675e-06
5.21581e-06
5.21481e-06
5.21374e-06
5.21262e-06
5.21144e-06
5.21022e-06
5.20898e-06
5.20781e-06
5.20706e-06
5.20708e-06
5.20703e-06
0.0173124
0.0168852
0.0163463
0.0157038
0.0149687
0.0141545
0.0132751
0.0123458
0.011382
0.0104009
0.00942041
0.0084587
0.0075299
0.00664255
0.00580047
0.00500538
0.00425828
0.00356013
0.00291163
0.00231362
0.00176912
0.00128485
0.000869402
0.000523896
0.000272485
0.000126182
5.23143e-06
5.23133e-06
5.23123e-06
5.23113e-06
5.23102e-06
5.23091e-06
5.23079e-06
5.23067e-06
5.23054e-06
5.2304e-06
5.23026e-06
5.23012e-06
5.22996e-06
5.22981e-06
5.22964e-06
5.22947e-06
5.22929e-06
5.2291e-06
5.22891e-06
5.2287e-06
5.22849e-06
5.22826e-06
5.22802e-06
5.22778e-06
5.22752e-06
5.22724e-06
5.22696e-06
5.22665e-06
5.22633e-06
5.226e-06
5.22564e-06
5.22527e-06
5.22487e-06
5.22445e-06
5.224e-06
5.22353e-06
5.22302e-06
5.22249e-06
5.22192e-06
5.22132e-06
5.22067e-06
5.21999e-06
5.21926e-06
5.21848e-06
5.21764e-06
5.21675e-06
5.2158e-06
5.21479e-06
5.21372e-06
5.21257e-06
5.21137e-06
5.21013e-06
5.20886e-06
5.20769e-06
5.20707e-06
5.20721e-06
5.20713e-06
0.0182824
0.0178794
0.0173685
0.0167556
0.0160496
0.0152623
0.0144057
0.0134925
0.0125358
0.0115493
0.0105481
0.00954969
0.00857158
0.00762823
0.00672812
0.00587447
0.00506872
0.00431161
0.00360371
0.00294527
0.0023382
0.00178503
0.00129772
0.000879597
0.000536057
0.000286605
0.000113187
5.23157e-06
5.23148e-06
5.23139e-06
5.23129e-06
5.23118e-06
5.23108e-06
5.23096e-06
5.23084e-06
5.23072e-06
5.23059e-06
5.23046e-06
5.23032e-06
5.23017e-06
5.23002e-06
5.22986e-06
5.22969e-06
5.22952e-06
5.22934e-06
5.22916e-06
5.22896e-06
5.22875e-06
5.22854e-06
5.22831e-06
5.22808e-06
5.22783e-06
5.22757e-06
5.2273e-06
5.22701e-06
5.22671e-06
5.22639e-06
5.22605e-06
5.2257e-06
5.22532e-06
5.22492e-06
5.2245e-06
5.22405e-06
5.22358e-06
5.22307e-06
5.22254e-06
5.22196e-06
5.22136e-06
5.22071e-06
5.22002e-06
5.21929e-06
5.2185e-06
5.21766e-06
5.21676e-06
5.2158e-06
5.21478e-06
5.21369e-06
5.21253e-06
5.21131e-06
5.21004e-06
5.20874e-06
5.20757e-06
5.20711e-06
5.20736e-06
5.20725e-06
0.0192452
0.0188629
0.0183777
0.0177931
0.0171166
0.0163581
0.0155281
0.0146377
0.0136976
0.0127188
0.0117131
0.0106947
0.00967982
0.00868625
0.00772907
0.00681621
0.00595102
0.00513434
0.00436667
0.00364786
0.00297919
0.00236157
0.00180233
0.00131172
0.000893889
0.0005609
0.000291696
0.000104232
5.23171e-06
5.23163e-06
5.23154e-06
5.23144e-06
5.23134e-06
5.23124e-06
5.23113e-06
5.23102e-06
5.2309e-06
5.23077e-06
5.23065e-06
5.23051e-06
5.23037e-06
5.23023e-06
5.23007e-06
5.22991e-06
5.22975e-06
5.22958e-06
5.2294e-06
5.22921e-06
5.22901e-06
5.22881e-06
5.22859e-06
5.22837e-06
5.22813e-06
5.22789e-06
5.22763e-06
5.22735e-06
5.22707e-06
5.22676e-06
5.22645e-06
5.22611e-06
5.22575e-06
5.22538e-06
5.22498e-06
5.22455e-06
5.2241e-06
5.22363e-06
5.22312e-06
5.22258e-06
5.22201e-06
5.2214e-06
5.22075e-06
5.22006e-06
5.21932e-06
5.21852e-06
5.21768e-06
5.21677e-06
5.2158e-06
5.21476e-06
5.21366e-06
5.21248e-06
5.21124e-06
5.20994e-06
5.20861e-06
5.20747e-06
5.20719e-06
5.20753e-06
5.20738e-06
0.0202034
0.0198379
0.0193752
0.018817
0.0181691
0.0174398
0.0166384
0.0157746
0.0148573
0.0138956
0.0128985
0.0118766
0.0108425
0.0098122
0.00880398
0.00783294
0.00690748
0.00603045
0.00520239
0.00442293
0.00369287
0.00301226
0.00238534
0.0018207
0.00133046
0.000913628
0.000583359
0.000280931
0.000119807
5.23185e-06
5.23177e-06
5.23168e-06
5.23159e-06
5.2315e-06
5.2314e-06
5.23129e-06
5.23119e-06
5.23107e-06
5.23095e-06
5.23083e-06
5.2307e-06
5.23057e-06
5.23043e-06
5.23028e-06
5.23013e-06
5.22997e-06
5.2298e-06
5.22963e-06
5.22945e-06
5.22927e-06
5.22907e-06
5.22887e-06
5.22865e-06
5.22843e-06
5.22819e-06
5.22794e-06
5.22768e-06
5.22741e-06
5.22712e-06
5.22682e-06
5.2265e-06
5.22617e-06
5.22581e-06
5.22543e-06
5.22503e-06
5.22461e-06
5.22416e-06
5.22368e-06
5.22317e-06
5.22263e-06
5.22206e-06
5.22145e-06
5.22079e-06
5.22009e-06
5.21935e-06
5.21855e-06
5.2177e-06
5.21678e-06
5.2158e-06
5.21475e-06
5.21363e-06
5.21243e-06
5.21116e-06
5.20984e-06
5.20848e-06
5.20739e-06
5.2073e-06
5.20773e-06
5.20752e-06
0.0211598
0.0208069
0.0203633
0.0198289
0.0192077
0.018507
0.0177346
0.0168992
0.0160085
0.01507
0.0140908
0.0130785
0.012042
0.0109934
0.0099484
0.00892547
0.00794064
0.00700239
0.00611309
0.00527235
0.00448073
0.0037376
0.00304588
0.00240876
0.00184496
0.00135445
0.000941025
0.000587886
0.000277896
0.000152587
5.23199e-06
5.23191e-06
5.23183e-06
5.23174e-06
5.23165e-06
5.23155e-06
5.23145e-06
5.23135e-06
5.23124e-06
5.23113e-06
5.23101e-06
5.23088e-06
5.23076e-06
5.23062e-06
5.23048e-06
5.23033e-06
5.23018e-06
5.23002e-06
5.22986e-06
5.22969e-06
5.22951e-06
5.22932e-06
5.22913e-06
5.22892e-06
5.22871e-06
5.22848e-06
5.22825e-06
5.228e-06
5.22774e-06
5.22747e-06
5.22718e-06
5.22688e-06
5.22656e-06
5.22622e-06
5.22587e-06
5.22549e-06
5.22509e-06
5.22467e-06
5.22422e-06
5.22374e-06
5.22323e-06
5.22269e-06
5.22211e-06
5.22149e-06
5.22084e-06
5.22013e-06
5.21938e-06
5.21858e-06
5.21772e-06
5.21679e-06
5.2158e-06
5.21474e-06
5.2136e-06
5.21238e-06
5.21109e-06
5.20973e-06
5.20834e-06
5.20734e-06
5.20743e-06
5.20794e-06
5.20768e-06
0.0221175
0.021773
0.0213447
0.020831
0.0202343
0.0195606
0.0188166
0.0180101
0.0171478
0.016236
0.0152805
0.014287
0.0132613
0.0122116
0.0111492
0.0100893
0.00905161
0.00805275
0.00710137
0.00619847
0.00534471
0.00453904
0.00378346
0.00307912
0.00243971
0.00187534
0.00139014
0.000969895
0.000602614
0.000274027
0.000204652
5.23211e-06
5.23204e-06
5.23196e-06
5.23188e-06
5.2318e-06
5.2317e-06
5.23161e-06
5.23151e-06
5.2314e-06
5.23129e-06
5.23118e-06
5.23106e-06
5.23094e-06
5.23081e-06
5.23068e-06
5.23053e-06
5.23039e-06
5.23024e-06
5.23008e-06
5.22991e-06
5.22974e-06
5.22956e-06
5.22938e-06
5.22918e-06
5.22898e-06
5.22876e-06
5.22854e-06
5.22831e-06
5.22806e-06
5.2278e-06
5.22753e-06
5.22724e-06
5.22694e-06
5.22662e-06
5.22628e-06
5.22593e-06
5.22555e-06
5.22515e-06
5.22472e-06
5.22427e-06
5.22379e-06
5.22328e-06
5.22274e-06
5.22216e-06
5.22154e-06
5.22088e-06
5.22018e-06
5.21942e-06
5.21861e-06
5.21774e-06
5.2168e-06
5.2158e-06
5.21472e-06
5.21357e-06
5.21233e-06
5.21102e-06
5.20962e-06
5.20821e-06
5.20732e-06
5.2076e-06
5.20817e-06
5.20786e-06
0.0230795
0.0227391
0.0223222
0.0218258
0.0212509
0.0206022
0.0198854
0.0191072
0.0182738
0.0173905
0.016462
0.015493
0.0144871
0.0134495
0.0123874
0.011311
0.0102361
0.00918306
0.00816991
0.00720406
0.00628731
0.00541859
0.00459942
0.00382963
0.00311802
0.00247782
0.00192078
0.00143481
0.00100393
0.000598866
0.000272502
0.000285807
5.23224e-06
5.23217e-06
5.2321e-06
5.23202e-06
5.23194e-06
5.23185e-06
5.23176e-06
5.23166e-06
5.23156e-06
5.23146e-06
5.23135e-06
5.23124e-06
5.23112e-06
5.23099e-06
5.23086e-06
5.23073e-06
5.23059e-06
5.23044e-06
5.23029e-06
5.23013e-06
5.22997e-06
5.2298e-06
5.22962e-06
5.22943e-06
5.22924e-06
5.22904e-06
5.22882e-06
5.2286e-06