/*--------------------------------*- C++ -*----------------------------------*\
  =========                 |
  \\      /  F ield         | OpenFOAM: The Open Source CFD Toolbox
   \\    /   O peration     | Website:  https://openfoam.org
    \\  /    A nd           | Version:  7
     \\/     M anipulation  |
\*---------------------------------------------------------------------------*/
FoamFile
{
    version     2.0;
    format      ascii;
    class       volScalarField;
    location    "200";
    object      nuTilda;
}
// * * * * * * * * * * * * * * * * * * * * * * * * * * * * * * * * * * * * * //

dimensions      [0 2 -1 0 0 0 0];

internalField   nonuniform List<scalar> 
23064
(
3.4322e-05
3.43239e-05
3.4322e-05
3.43257e-05
3.43239e-05
3.4322e-05
3.43275e-05
3.43257e-05
3.43239e-05
3.4322e-05
3.43292e-05
3.43275e-05
3.43257e-05
3.43239e-05
3.4322e-05
3.43309e-05
3.43292e-05
3.43275e-05
3.43257e-05
3.43239e-05
3.4322e-05
3.43325e-05
3.43309e-05
3.43292e-05
3.43275e-05
3.43257e-05
3.43239e-05
3.4322e-05
3.4334e-05
3.43325e-05
3.43309e-05
3.43292e-05
3.43275e-05
3.43257e-05
3.43239e-05
3.4322e-05
3.43355e-05
3.4334e-05
3.43325e-05
3.43308e-05
3.43292e-05
3.43275e-05
3.43257e-05
3.43239e-05
3.4322e-05
3.43369e-05
3.43355e-05
3.4334e-05
3.43325e-05
3.43308e-05
3.43292e-05
3.43274e-05
3.43257e-05
3.43239e-05
3.4322e-05
3.43383e-05
3.43369e-05
3.43355e-05
3.4334e-05
3.43324e-05
3.43308e-05
3.43291e-05
3.43274e-05
3.43257e-05
3.43238e-05
3.4322e-05
3.43396e-05
3.43383e-05
3.43369e-05
3.43355e-05
3.4334e-05
3.43324e-05
3.43308e-05
3.43291e-05
3.43274e-05
3.43256e-05
3.43238e-05
3.4322e-05
3.43409e-05
3.43396e-05
3.43383e-05
3.43369e-05
3.43355e-05
3.4334e-05
3.43324e-05
3.43308e-05
3.43291e-05
3.43274e-05
3.43256e-05
3.43238e-05
3.4322e-05
3.43421e-05
3.43409e-05
3.43396e-05
3.43383e-05
3.43369e-05
3.43355e-05
3.4334e-05
3.43324e-05
3.43308e-05
3.43291e-05
3.43274e-05
3.43256e-05
3.43238e-05
3.4322e-05
3.43433e-05
3.43421e-05
3.43409e-05
3.43397e-05
3.43383e-05
3.43369e-05
3.43355e-05
3.4334e-05
3.43324e-05
3.43308e-05
3.43291e-05
3.43273e-05
3.43256e-05
3.43238e-05
3.4322e-05
3.43444e-05
3.43433e-05
3.43421e-05
3.43409e-05
3.43397e-05
3.43383e-05
3.43369e-05
3.43355e-05
3.4334e-05
3.43324e-05
3.43307e-05
3.4329e-05
3.43273e-05
3.43256e-05
3.43238e-05
3.4322e-05
3.43455e-05
3.43444e-05
3.43433e-05
3.43422e-05
3.4341e-05
3.43397e-05
3.43383e-05
3.43369e-05
3.43355e-05
3.4334e-05
3.43324e-05
3.43307e-05
3.4329e-05
3.43273e-05
3.43255e-05
3.43238e-05
3.4322e-05
3.43465e-05
3.43455e-05
3.43444e-05
3.43433e-05
3.43422e-05
3.4341e-05
3.43397e-05
3.43383e-05
3.43369e-05
3.43355e-05
3.43339e-05
3.43323e-05
3.43307e-05
3.4329e-05
3.43273e-05
3.43255e-05
3.43238e-05
3.43219e-05
3.43475e-05
3.43465e-05
3.43455e-05
3.43445e-05
3.43434e-05
3.43422e-05
3.4341e-05
3.43397e-05
3.43383e-05
3.43369e-05
3.43355e-05
3.43339e-05
3.43323e-05
3.43307e-05
3.4329e-05
3.43272e-05
3.43255e-05
3.43237e-05
3.43219e-05
3.43484e-05
3.43475e-05
3.43466e-05
3.43456e-05
3.43445e-05
3.43434e-05
3.43422e-05
3.4341e-05
3.43397e-05
3.43384e-05
3.43369e-05
3.43355e-05
3.43339e-05
3.43323e-05
3.43306e-05
3.43289e-05
3.43272e-05
3.43255e-05
3.43237e-05
3.43219e-05
3.43493e-05
3.43485e-05
3.43475e-05
3.43466e-05
3.43456e-05
3.43445e-05
3.43434e-05
3.43422e-05
3.4341e-05
3.43397e-05
3.43384e-05
3.43369e-05
3.43354e-05
3.43339e-05
3.43323e-05
3.43306e-05
3.43289e-05
3.43272e-05
3.43254e-05
3.43237e-05
3.43219e-05
3.43502e-05
3.43494e-05
3.43485e-05
3.43476e-05
3.43466e-05
3.43456e-05
3.43446e-05
3.43434e-05
3.43423e-05
3.4341e-05
3.43397e-05
3.43384e-05
3.43369e-05
3.43354e-05
3.43339e-05
3.43323e-05
3.43306e-05
3.43289e-05
3.43271e-05
3.43254e-05
3.43237e-05
3.43219e-05
3.4351e-05
3.43502e-05
3.43494e-05
3.43485e-05
3.43476e-05
3.43467e-05
3.43457e-05
3.43446e-05
3.43435e-05
3.43423e-05
3.4341e-05
3.43397e-05
3.43384e-05
3.43369e-05
3.43354e-05
3.43339e-05
3.43322e-05
3.43306e-05
3.43289e-05
3.43271e-05
3.43254e-05
3.43236e-05
3.43219e-05
3.43518e-05
3.43511e-05
3.43503e-05
3.43495e-05
3.43486e-05
3.43477e-05
3.43467e-05
3.43457e-05
3.43446e-05
3.43435e-05
3.43423e-05
3.4341e-05
3.43397e-05
3.43384e-05
3.43369e-05
3.43354e-05
3.43338e-05
3.43322e-05
3.43305e-05
3.43288e-05
3.43271e-05
3.43253e-05
3.43236e-05
3.43219e-05
3.43526e-05
3.43519e-05
3.43511e-05
3.43503e-05
3.43495e-05
3.43486e-05
3.43477e-05
3.43467e-05
3.43457e-05
3.43446e-05
3.43435e-05
3.43423e-05
3.43411e-05
3.43397e-05
3.43384e-05
3.43369e-05
3.43354e-05
3.43338e-05
3.43322e-05
3.43305e-05
3.43288e-05
3.4327e-05
3.43253e-05
3.43236e-05
3.43219e-05
3.43533e-05
3.43526e-05
3.43519e-05
3.43512e-05
3.43504e-05
3.43496e-05
3.43487e-05
3.43478e-05
3.43468e-05
3.43458e-05
3.43447e-05
3.43435e-05
3.43423e-05
3.43411e-05
3.43397e-05
3.43384e-05
3.43369e-05
3.43354e-05
3.43338e-05
3.43322e-05
3.43305e-05
3.43287e-05
3.4327e-05
3.43253e-05
3.43236e-05
3.43219e-05
3.4354e-05
3.43534e-05
3.43527e-05
3.4352e-05
3.43512e-05
3.43504e-05
3.43496e-05
3.43487e-05
3.43478e-05
3.43468e-05
3.43458e-05
3.43447e-05
3.43436e-05
3.43423e-05
3.43411e-05
3.43398e-05
3.43384e-05
3.43369e-05
3.43354e-05
3.43338e-05
3.43321e-05
3.43304e-05
3.43287e-05
3.43269e-05
3.43252e-05
3.43235e-05
3.43219e-05
3.43547e-05
3.43541e-05
3.43534e-05
3.43528e-05
3.4352e-05
3.43513e-05
3.43505e-05
3.43497e-05
3.43488e-05
3.43478e-05
3.43469e-05
3.43458e-05
3.43447e-05
3.43436e-05
3.43424e-05
3.43411e-05
3.43398e-05
3.43384e-05
3.43369e-05
3.43353e-05
3.43337e-05
3.43321e-05
3.43304e-05
3.43286e-05
3.43269e-05
3.43252e-05
3.43235e-05
3.43219e-05
3.43553e-05
3.43548e-05
3.43541e-05
3.43535e-05
3.43528e-05
3.43521e-05
3.43513e-05
3.43505e-05
3.43497e-05
3.43488e-05
3.43479e-05
3.43469e-05
3.43459e-05
3.43448e-05
3.43436e-05
3.43424e-05
3.43411e-05
3.43398e-05
3.43384e-05
3.43369e-05
3.43353e-05
3.43337e-05
3.43321e-05
3.43303e-05
3.43286e-05
3.43268e-05
3.43251e-05
3.43235e-05
3.43218e-05
3.4356e-05
3.43554e-05
3.43548e-05
3.43542e-05
3.43536e-05
3.43529e-05
3.43522e-05
3.43514e-05
3.43506e-05
3.43498e-05
3.43489e-05
3.43479e-05
3.43469e-05
3.43459e-05
3.43448e-05
3.43436e-05
3.43424e-05
3.43411e-05
3.43398e-05
3.43383e-05
3.43369e-05
3.43353e-05
3.43337e-05
3.4332e-05
3.43303e-05
3.43285e-05
3.43268e-05
3.43251e-05
3.43234e-05
3.43218e-05
3.43566e-05
3.4356e-05
3.43555e-05
3.43549e-05
3.43543e-05
3.43536e-05
3.43529e-05
3.43522e-05
3.43515e-05
3.43507e-05
3.43498e-05
3.43489e-05
3.4348e-05
3.4347e-05
3.43459e-05
3.43448e-05
3.43436e-05
3.43424e-05
3.43411e-05
3.43398e-05
3.43383e-05
3.43369e-05
3.43353e-05
3.43337e-05
3.4332e-05
3.43302e-05
3.43285e-05
3.43267e-05
3.4325e-05
3.43234e-05
3.43218e-05
0.000147004
3.43572e-05
3.43567e-05
3.43561e-05
3.43556e-05
3.4355e-05
3.43543e-05
3.43537e-05
3.4353e-05
3.43523e-05
3.43515e-05
3.43507e-05
3.43499e-05
3.4349e-05
3.4348e-05
3.4347e-05
3.4346e-05
3.43448e-05
3.43437e-05
3.43424e-05
3.43411e-05
3.43398e-05
3.43383e-05
3.43368e-05
3.43353e-05
3.43336e-05
3.43319e-05
3.43302e-05
3.43284e-05
3.43267e-05
3.4325e-05
3.43233e-05
3.43218e-05
0.000184394
0.000153942
3.43577e-05
3.43572e-05
3.43567e-05
3.43562e-05
3.43556e-05
3.4355e-05
3.43544e-05
3.43538e-05
3.43531e-05
3.43523e-05
3.43516e-05
3.43508e-05
3.43499e-05
3.4349e-05
3.43481e-05
3.43471e-05
3.4346e-05
3.43449e-05
3.43437e-05
3.43425e-05
3.43412e-05
3.43398e-05
3.43383e-05
3.43368e-05
3.43352e-05
3.43336e-05
3.43319e-05
3.43301e-05
3.43284e-05
3.43266e-05
3.43249e-05
3.43233e-05
3.43218e-05
0.000392956
0.000190026
0.000160365
3.43583e-05
3.43578e-05
3.43573e-05
3.43568e-05
3.43563e-05
3.43557e-05
3.43551e-05
3.43545e-05
3.43538e-05
3.43531e-05
3.43524e-05
3.43516e-05
3.43508e-05
3.435e-05
3.43491e-05
3.43481e-05
3.43471e-05
3.4346e-05
3.43449e-05
3.43437e-05
3.43425e-05
3.43412e-05
3.43398e-05
3.43383e-05
3.43368e-05
3.43352e-05
3.43336e-05
3.43318e-05
3.43301e-05
3.43283e-05
3.43265e-05
3.43248e-05
3.43232e-05
3.43217e-05
0.000658661
0.000404712
0.00019486
0.000166283
3.43588e-05
3.43583e-05
3.43579e-05
3.43574e-05
3.43569e-05
3.43563e-05
3.43558e-05
3.43552e-05
3.43546e-05
3.43539e-05
3.43532e-05
3.43525e-05
3.43517e-05
3.43509e-05
3.435e-05
3.43491e-05
3.43481e-05
3.43471e-05
3.43461e-05
3.43449e-05
3.43437e-05
3.43425e-05
3.43412e-05
3.43398e-05
3.43383e-05
3.43368e-05
3.43352e-05
3.43335e-05
3.43318e-05
3.433e-05
3.43282e-05
3.43265e-05
3.43248e-05
3.43232e-05
3.43217e-05
0.000978784
0.000678474
0.000414817
0.000199027
0.000171697
3.43593e-05
3.43589e-05
3.43584e-05
3.4358e-05
3.43575e-05
3.4357e-05
3.43564e-05
3.43559e-05
3.43553e-05
3.43546e-05
3.4354e-05
3.43533e-05
3.43525e-05
3.43518e-05
3.43509e-05
3.43501e-05
3.43492e-05
3.43482e-05
3.43472e-05
3.43461e-05
3.4345e-05
3.43438e-05
3.43425e-05
3.43412e-05
3.43398e-05
3.43383e-05
3.43368e-05
3.43352e-05
3.43335e-05
3.43317e-05
3.433e-05
3.43282e-05
3.43264e-05
3.43247e-05
3.43231e-05
3.43217e-05
0.00134759
0.00100862
0.000695542
0.000423442
0.000202593
0.000176546
3.43598e-05
3.43594e-05
3.4359e-05
3.43585e-05
3.4358e-05
3.43576e-05
3.4357e-05
3.43565e-05
3.43559e-05
3.43553e-05
3.43547e-05
3.4354e-05
3.43533e-05
3.43526e-05
3.43518e-05
3.4351e-05
3.43501e-05
3.43492e-05
3.43482e-05
3.43472e-05
3.43461e-05
3.4345e-05
3.43438e-05
3.43425e-05
3.43412e-05
3.43398e-05
3.43383e-05
3.43368e-05
3.43351e-05
3.43334e-05
3.43317e-05
3.43299e-05
3.43281e-05
3.43263e-05
3.43246e-05
3.4323e-05
3.43217e-05
0.00176344
0.00138942
0.00103431
0.000710208
0.000430739
0.000205679
0.000180901
3.43603e-05
3.43599e-05
3.43595e-05
3.4359e-05
3.43586e-05
3.43581e-05
3.43576e-05
3.43571e-05
3.43566e-05
3.4356e-05
3.43554e-05
3.43548e-05
3.43541e-05
3.43534e-05
3.43527e-05
3.43519e-05
3.43511e-05
3.43502e-05
3.43493e-05
3.43483e-05
3.43473e-05
3.43462e-05
3.4345e-05
3.43438e-05
3.43426e-05
3.43412e-05
3.43398e-05
3.43383e-05
3.43367e-05
3.43351e-05
3.43334e-05
3.43316e-05
3.43298e-05
3.4328e-05
3.43262e-05
3.43245e-05
3.4323e-05
3.43216e-05
0.00222555
0.00181916
0.00142549
0.00105644
0.000722723
0.000437054
0.000208353
0.000184738
3.43607e-05
3.43603e-05
3.436e-05
3.43596e-05
3.43591e-05
3.43587e-05
3.43582e-05
3.43577e-05
3.43572e-05
3.43567e-05
3.43561e-05
3.43555e-05
3.43548e-05
3.43542e-05
3.43535e-05
3.43527e-05
3.43519e-05
3.43511e-05
3.43502e-05
3.43493e-05
3.43483e-05
3.43473e-05
3.43462e-05
3.43451e-05
3.43439e-05
3.43426e-05
3.43412e-05
3.43398e-05
3.43383e-05
3.43367e-05
3.43351e-05
3.43334e-05
3.43316e-05
3.43298e-05
3.43279e-05
3.43261e-05
3.43244e-05
3.43229e-05
3.43216e-05
0.00273352
0.00229708
0.00186731
0.00145665
0.00107552
0.000733549
0.000442571
0.00021076
0.000188109
3.43612e-05
3.43608e-05
3.43604e-05
3.436e-05
3.43596e-05
3.43592e-05
3.43588e-05
3.43583e-05
3.43578e-05
3.43573e-05
3.43567e-05
3.43562e-05
3.43556e-05
3.43549e-05
3.43542e-05
3.43535e-05
3.43528e-05
3.4352e-05
3.43512e-05
3.43503e-05
3.43494e-05
3.43484e-05
3.43474e-05
3.43463e-05
3.43451e-05
3.43439e-05
3.43426e-05
3.43412e-05
3.43398e-05
3.43383e-05
3.43367e-05
3.4335e-05
3.43333e-05
3.43315e-05
3.43297e-05
3.43278e-05
3.4326e-05
3.43243e-05
3.43228e-05
3.43216e-05
0.00328721
0.00282291
0.00235907
0.00190899
0.00148359
0.00109215
0.000743069
0.000447534
0.000212934
0.000191008
3.43616e-05
3.43613e-05
3.43609e-05
3.43605e-05
3.43601e-05
3.43597e-05
3.43593e-05
3.43588e-05
3.43584e-05
3.43579e-05
3.43574e-05
3.43568e-05
3.43562e-05
3.43556e-05
3.4355e-05
3.43543e-05
3.43536e-05
3.43529e-05
3.43521e-05
3.43512e-05
3.43504e-05
3.43494e-05
3.43484e-05
3.43474e-05
3.43463e-05
3.43451e-05
3.43439e-05
3.43426e-05
3.43412e-05
3.43398e-05
3.43383e-05
3.43367e-05
3.4335e-05
3.43333e-05
3.43315e-05
3.43296e-05
3.43277e-05
3.43259e-05
3.43242e-05
3.43227e-05
3.43215e-05
0.00388661
0.00339662
0.0029006
0.00241287
0.00194516
0.00150719
0.00110684
0.000751737
0.000452118
0.000214946
0.000193409
3.4362e-05
3.43617e-05
3.43613e-05
3.4361e-05
3.43606e-05
3.43602e-05
3.43598e-05
3.43594e-05
3.43589e-05
3.43585e-05
3.4358e-05
3.43574e-05
3.43569e-05
3.43563e-05
3.43557e-05
3.43551e-05
3.43544e-05
3.43537e-05
3.43529e-05
3.43521e-05
3.43513e-05
3.43504e-05
3.43495e-05
3.43485e-05
3.43474e-05
3.43463e-05
3.43452e-05
3.43439e-05
3.43426e-05
3.43413e-05
3.43398e-05
3.43383e-05
3.43367e-05
3.4335e-05
3.43332e-05
3.43314e-05
3.43295e-05
3.43276e-05
3.43258e-05
3.43241e-05
3.43226e-05
3.43215e-05
0.00453191
0.00401837
0.00349198
0.00296817
0.00245964
0.00197694
0.00152811
0.00112027
0.000759802
0.000456421
0.000216837
0.000195393
3.43624e-05
3.43621e-05
3.43618e-05
3.43614e-05
3.43611e-05
3.43607e-05
3.43603e-05
3.43599e-05
3.43595e-05
3.4359e-05
3.43585e-05
3.4358e-05
3.43575e-05
3.4357e-05
3.43564e-05
3.43558e-05
3.43551e-05
3.43545e-05
3.43538e-05
3.4353e-05
3.43522e-05
3.43514e-05
3.43505e-05
3.43495e-05
3.43485e-05
3.43475e-05
3.43464e-05
3.43452e-05
3.4344e-05
3.43427e-05
3.43413e-05
3.43398e-05
3.43383e-05
3.43366e-05
3.43349e-05
3.43332e-05
3.43313e-05
3.43294e-05
3.43275e-05
3.43257e-05
3.4324e-05
3.43225e-05
3.43214e-05
0.00522349
0.00468852
0.00413347
0.00357513
0.00302706
0.00250088
0.00200516
0.00154724
0.00113277
0.000767408
0.000460603
0.000218726
0.000196917
3.43628e-05
3.43625e-05
3.43622e-05
3.43619e-05
3.43615e-05
3.43612e-05
3.43608e-05
3.43604e-05
3.436e-05
3.43596e-05
3.43591e-05
3.43586e-05
3.43581e-05
3.43576e-05
3.43571e-05
3.43565e-05
3.43559e-05
3.43552e-05
3.43545e-05
3.43538e-05
3.43531e-05
3.43523e-05
3.43514e-05
3.43505e-05
3.43496e-05
3.43486e-05
3.43475e-05
3.43464e-05
3.43453e-05
3.4344e-05
3.43427e-05
3.43413e-05
3.43398e-05
3.43383e-05
3.43366e-05
3.43349e-05
3.43331e-05
3.43312e-05
3.43293e-05
3.43274e-05
3.43256e-05
3.43239e-05
3.43224e-05
3.43214e-05
0.00596175
0.00540758
0.00482567
0.00423414
0.00364777
0.00307913
0.00253765
0.00203105
0.00156511
0.00114463
0.000774788
0.000464786
0.000220587
0.000197927
3.43632e-05
3.43629e-05
3.43626e-05
3.43623e-05
3.4362e-05
3.43616e-05
3.43613e-05
3.43609e-05
3.43605e-05
3.43601e-05
3.43596e-05
3.43592e-05
3.43587e-05
3.43582e-05
3.43577e-05
3.43571e-05
3.43566e-05
3.43559e-05
3.43553e-05
3.43546e-05
3.43539e-05
3.43531e-05
3.43523e-05
3.43515e-05
3.43506e-05
3.43497e-05
3.43487e-05
3.43476e-05
3.43465e-05
3.43453e-05
3.4344e-05
3.43427e-05
3.43413e-05
3.43398e-05
3.43383e-05
3.43366e-05
3.43349e-05
3.4333e-05
3.43312e-05
3.43292e-05
3.43273e-05
3.43254e-05
3.43237e-05
3.43223e-05
3.43213e-05
0.0067472
0.00617613
0.00556918
0.00494588
0.00432236
0.00371217
0.00312574
0.00257137
0.00205528
0.00158211
0.00115617
0.000782168
0.00046901
0.000222399
0.000198424
3.43636e-05
3.43633e-05
3.4363e-05
3.43627e-05
3.43624e-05
3.43621e-05
3.43617e-05
3.43614e-05
3.4361e-05
3.43606e-05
3.43602e-05
3.43597e-05
3.43593e-05
3.43588e-05
3.43583e-05
3.43578e-05
3.43572e-05
3.43566e-05
3.4356e-05
3.43554e-05
3.43547e-05
3.4354e-05
3.43532e-05
3.43524e-05
3.43516e-05
3.43507e-05
3.43497e-05
3.43487e-05
3.43477e-05
3.43465e-05
3.43453e-05
3.43441e-05
3.43427e-05
3.43413e-05
3.43398e-05
3.43382e-05
3.43366e-05
3.43348e-05
3.4333e-05
3.43311e-05
3.43291e-05
3.43272e-05
3.43253e-05
3.43236e-05
3.43222e-05
3.43213e-05
0.00758025
0.00699478
0.00636476
0.00571122
0.00505156
0.00440069
0.00376995
0.0031685
0.00260301
0.00207834
0.00159868
0.00116763
0.000789573
0.000473279
0.000224282
0.000198342
3.43639e-05
3.43637e-05
3.43634e-05
3.43631e-05
3.43628e-05
3.43625e-05
3.43622e-05
3.43618e-05
3.43614e-05
3.43611e-05
3.43607e-05
3.43603e-05
3.43598e-05
3.43594e-05
3.43589e-05
3.43584e-05
3.43579e-05
3.43573e-05
3.43567e-05
3.43561e-05
3.43555e-05
3.43548e-05
3.43541e-05
3.43533e-05
3.43525e-05
3.43516e-05
3.43507e-05
3.43498e-05
3.43488e-05
3.43477e-05
3.43466e-05
3.43454e-05
3.43441e-05
3.43428e-05
3.43413e-05
3.43398e-05
3.43382e-05
3.43365e-05
3.43348e-05
3.43329e-05
3.4331e-05
3.4329e-05
3.4327e-05
3.43251e-05
3.43234e-05
3.4322e-05
3.43212e-05
0.00846029
0.00786398
0.00721327
0.00653104
0.00583639
0.00514561
0.00447113
0.00382304
0.00320861
0.0026332
0.00210087
0.00161517
0.00117908
0.000797035
0.000477721
0.000226242
0.000197515
3.43643e-05
3.4364e-05
3.43638e-05
3.43635e-05
3.43632e-05
3.43629e-05
3.43626e-05
3.43622e-05
3.43619e-05
3.43615e-05
3.43612e-05
3.43608e-05
3.43604e-05
3.43599e-05
3.43595e-05
3.4359e-05
3.43585e-05
3.4358e-05
3.43574e-05
3.43568e-05
3.43562e-05
3.43555e-05
3.43549e-05
3.43541e-05
3.43534e-05
3.43526e-05
3.43517e-05
3.43508e-05
3.43498e-05
3.43488e-05
3.43478e-05
3.43466e-05
3.43454e-05
3.43441e-05
3.43428e-05
3.43414e-05
3.43398e-05
3.43382e-05
3.43365e-05
3.43347e-05
3.43329e-05
3.43309e-05
3.43289e-05
3.43269e-05
3.4325e-05
3.43232e-05
3.43219e-05
3.43211e-05
0.00938433
0.00878264
0.00811497
0.0074063
0.00667796
0.00594802
0.00523033
0.00453591
0.00387289
0.00324699
0.00266268
0.00212334
0.00163166
0.00119061
0.000804706
0.000482191
0.000228201
0.000195851
3.43646e-05
3.43644e-05
3.43641e-05
3.43639e-05
3.43636e-05
3.43633e-05
3.4363e-05
3.43627e-05
3.43623e-05
3.4362e-05
3.43616e-05
3.43613e-05
3.43609e-05
3.43604e-05
3.436e-05
3.43596e-05
3.43591e-05
3.43586e-05
3.4358e-05
3.43575e-05
3.43569e-05
3.43563e-05
3.43556e-05
3.43549e-05
3.43542e-05
3.43535e-05
3.43526e-05
3.43518e-05
3.43509e-05
3.43499e-05
3.43489e-05
3.43478e-05
3.43467e-05
3.43455e-05
3.43442e-05
3.43428e-05
3.43414e-05
3.43398e-05
3.43382e-05
3.43365e-05
3.43347e-05
3.43328e-05
3.43308e-05
3.43288e-05
3.43268e-05
3.43248e-05
3.43231e-05
3.43217e-05
3.43211e-05
0.0103451
0.00974618
0.00906802
0.00833708
0.00757728
0.0068092
0.00604889
0.00530836
0.00459687
0.00392059
0.00328449
0.00269205
0.00214582
0.0016483
0.00120232
0.00081247
0.000486694
0.000230187
0.000193279
3.4365e-05
3.43647e-05
3.43645e-05
3.43642e-05
3.4364e-05
3.43637e-05
3.43634e-05
3.43631e-05
3.43628e-05
3.43624e-05
3.43621e-05
3.43617e-05
3.43614e-05
3.4361e-05
3.43605e-05
3.43601e-05
3.43596e-05
3.43592e-05
3.43587e-05
3.43581e-05
3.43576e-05
3.4357e-05
3.43564e-05
3.43557e-05
3.4355e-05
3.43543e-05
3.43535e-05
3.43527e-05
3.43519e-05
3.43509e-05
3.435e-05
3.4349e-05
3.43479e-05
3.43467e-05
3.43455e-05
3.43442e-05
3.43428e-05
3.43414e-05
3.43398e-05
3.43382e-05
3.43365e-05
3.43346e-05
3.43327e-05
3.43307e-05
3.43287e-05
3.43266e-05
3.43246e-05
3.43229e-05
3.43216e-05
3.43211e-05
0.0113322
0.0107452
0.0100661
0.00932057
0.00853411
0.00773017
0.00692808
0.00614184
0.00538184
0.00465526
0.00396725
0.00332184
0.00272153
0.00216857
0.00166527
0.00121413
0.000820288
0.000491343
0.000232219
0.000189481
3.43653e-05
3.43651e-05
3.43648e-05
3.43646e-05
3.43643e-05
3.43641e-05
3.43638e-05
3.43635e-05
3.43632e-05
3.43629e-05
3.43625e-05
3.43622e-05
3.43618e-05
3.43614e-05
3.43611e-05
3.43606e-05
3.43602e-05
3.43597e-05
3.43593e-05
3.43588e-05
3.43582e-05
3.43577e-05
3.43571e-05
3.43565e-05
3.43558e-05
3.43551e-05
3.43544e-05
3.43536e-05
3.43528e-05
3.43519e-05
3.4351e-05
3.43501e-05
3.4349e-05
3.43479e-05
3.43468e-05
3.43456e-05
3.43443e-05
3.43429e-05
3.43414e-05
3.43398e-05
3.43382e-05
3.43364e-05
3.43346e-05
3.43326e-05
3.43306e-05
3.43285e-05
3.43264e-05
3.43244e-05
3.43227e-05
3.43215e-05
3.43212e-05
0.0123342
0.0117671
0.0110976
0.0103486
0.00954445
0.00871043
0.00786892
0.00703776
0.00622938
0.00545229
0.00471228
0.00401377
0.00335942
0.00275141
0.00219182
0.00168243
0.00122599
0.000828231
0.000496093
0.000234288
0.000184383
3.43656e-05
3.43654e-05
3.43652e-05
3.43649e-05
3.43647e-05
3.43644e-05
3.43642e-05
3.43639e-05
3.43636e-05
3.43633e-05
3.4363e-05
3.43626e-05
3.43623e-05
3.43619e-05
3.43615e-05
3.43611e-05
3.43607e-05
3.43603e-05
3.43598e-05
3.43594e-05
3.43588e-05
3.43583e-05
3.43578e-05
3.43572e-05
3.43566e-05
3.43559e-05
3.43552e-05
3.43545e-05
3.43537e-05
3.43529e-05
3.4352e-05
3.43511e-05
3.43501e-05
3.43491e-05
3.4348e-05
3.43468e-05
3.43456e-05
3.43443e-05
3.43429e-05
3.43414e-05
3.43399e-05
3.43382e-05
3.43364e-05
3.43345e-05
3.43326e-05
3.43305e-05
3.43284e-05
3.43263e-05
3.43242e-05
3.43225e-05
3.43215e-05
3.43213e-05
0.0133414
0.0127998
0.0121488
0.0114078
0.0105984
0.00974463
0.0088704
0.0079971
0.00714108
0.00631338
0.00552106
0.00476916
0.00406055
0.00339752
0.00278201
0.00221547
0.00169981
0.00123787
0.000836184
0.000500758
0.000236845
0.000177789
3.43659e-05
3.43657e-05
3.43655e-05
3.43653e-05
3.4365e-05
3.43648e-05
3.43645e-05
3.43643e-05
3.4364e-05
3.43637e-05
3.43634e-05
3.43631e-05
3.43627e-05
3.43624e-05
3.4362e-05
3.43616e-05
3.43612e-05
3.43608e-05
3.43604e-05
3.43599e-05
3.43595e-05
3.43589e-05
3.43584e-05
3.43579e-05
3.43573e-05
3.43566e-05
3.4356e-05
3.43553e-05
3.43546e-05
3.43538e-05
3.4353e-05
3.43521e-05
3.43512e-05
3.43502e-05
3.43492e-05
3.43481e-05
3.43469e-05
3.43457e-05
3.43443e-05
3.43429e-05
3.43414e-05
3.43399e-05
3.43382e-05
3.43364e-05
3.43345e-05
3.43325e-05
3.43304e-05
3.43282e-05
3.43261e-05
3.4324e-05
3.43223e-05
3.43215e-05
3.43214e-05
0.0143464
0.0138335
0.0132071
0.0124835
0.0116811
0.0108211
0.00992597
0.0090181
0.00811778
0.00724023
0.00639542
0.00558957
0.00482637
0.00410803
0.00343658
0.00281328
0.00223954
0.00171739
0.00124961
0.000843865
0.000505779
0.000241773
0.000170122
3.43662e-05
3.4366e-05
3.43658e-05
3.43656e-05
3.43654e-05
3.43651e-05
3.43649e-05
3.43646e-05
3.43644e-05
3.43641e-05
3.43638e-05
3.43635e-05
3.43632e-05
3.43628e-05
3.43625e-05
3.43621e-05
3.43617e-05
3.43613e-05
3.43609e-05
3.43605e-05
3.436e-05
3.43595e-05
3.4359e-05
3.43585e-05
3.43579e-05
3.43574e-05
3.43567e-05
3.43561e-05
3.43554e-05
3.43547e-05
3.43539e-05
3.43531e-05
3.43522e-05
3.43513e-05
3.43503e-05
3.43492e-05
3.43481e-05
3.4347e-05
3.43457e-05
3.43444e-05
3.4343e-05
3.43415e-05
3.43399e-05
3.43382e-05
3.43363e-05
3.43344e-05
3.43324e-05
3.43303e-05
3.43281e-05
3.43259e-05
3.43238e-05
3.43221e-05
3.43216e-05
3.43215e-05
0.0153445
0.0148613
0.0142632
0.0135635
0.0127777
0.0119242
0.0110225
0.0100931
0.00915707
0.00823353
0.00733702
0.00647698
0.00565858
0.00488445
0.00415672
0.00347662
0.00284526
0.00226415
0.00173497
0.00126081
0.00085214
0.000511237
0.000250836
0.000160509
3.43665e-05
3.43663e-05
3.43661e-05
3.43659e-05
3.43657e-05
3.43655e-05
3.43652e-05
3.4365e-05
3.43647e-05
3.43645e-05
3.43642e-05
3.43639e-05
3.43636e-05
3.43633e-05
3.43629e-05
3.43626e-05
3.43622e-05
3.43618e-05
3.43614e-05
3.4361e-05
3.43606e-05
3.43601e-05
3.43596e-05
3.43591e-05
3.43586e-05
3.4358e-05
3.43575e-05
3.43568e-05
3.43562e-05
3.43555e-05
3.43547e-05
3.4354e-05
3.43531e-05
3.43523e-05
3.43513e-05
3.43504e-05
3.43493e-05
3.43482e-05
3.4347e-05
3.43458e-05
3.43444e-05
3.4343e-05
3.43415e-05
3.43399e-05
3.43382e-05
3.43363e-05
3.43344e-05
3.43323e-05
3.43302e-05
3.43279e-05
3.43257e-05
3.43236e-05
3.4322e-05
3.43218e-05
3.43217e-05
0.0163334
0.0158791
0.0153108
0.0146388
0.0138764
0.0130392
0.0121437
0.0112079
0.0102502
0.00929035
0.00834646
0.00743321
0.0065591
0.00572863
0.00494405
0.00420673
0.00351771
0.00287811
0.00228902
0.0017521
0.00127309
0.000860495
0.000517581
0.000262794
0.00014939
3.43668e-05
3.43666e-05
3.43664e-05
3.43662e-05
3.4366e-05
3.43658e-05
3.43656e-05
3.43653e-05
3.43651e-05
3.43648e-05
3.43646e-05
3.43643e-05
3.4364e-05
3.43637e-05
3.43634e-05
3.4363e-05
3.43627e-05
3.43623e-05
3.43619e-05
3.43615e-05
3.43611e-05
3.43607e-05
3.43602e-05
3.43597e-05
3.43592e-05
3.43587e-05
3.43581e-05
3.43576e-05
3.43569e-05
3.43563e-05
3.43556e-05
3.43548e-05
3.43541e-05
3.43532e-05
3.43524e-05
3.43514e-05
3.43504e-05
3.43494e-05
3.43483e-05
3.43471e-05
3.43458e-05
3.43445e-05
3.4343e-05
3.43415e-05
3.43399e-05
3.43381e-05
3.43363e-05
3.43343e-05
3.43322e-05
3.433e-05
3.43278e-05
3.43255e-05
3.43233e-05
3.43219e-05
3.4322e-05
3.43219e-05
0.0173124
0.0168852
0.0163463
0.0157038
0.0149687
0.0141545
0.0132751
0.0123458
0.011382
0.0104009
0.00942042
0.0084587
0.0075299
0.00664256
0.00580048
0.00500539
0.00425829
0.00356015
0.00291165
0.00231366
0.00176919
0.00128499
0.000869697
0.000524706
0.000275485
0.000136516
3.43671e-05
3.43669e-05
3.43667e-05
3.43665e-05
3.43663e-05
3.43661e-05
3.43659e-05
3.43657e-05
3.43654e-05
3.43652e-05
3.43649e-05
3.43647e-05
3.43644e-05
3.43641e-05
3.43638e-05
3.43635e-05
3.43631e-05
3.43628e-05
3.43624e-05
3.4362e-05
3.43616e-05
3.43612e-05
3.43608e-05
3.43603e-05
3.43598e-05
3.43593e-05
3.43588e-05
3.43582e-05
3.43577e-05
3.4357e-05
3.43564e-05
3.43557e-05
3.43549e-05
3.43542e-05
3.43533e-05
3.43524e-05
3.43515e-05
3.43505e-05
3.43495e-05
3.43484e-05
3.43472e-05
3.43459e-05
3.43445e-05
3.43431e-05
3.43415e-05
3.43399e-05
3.43381e-05
3.43363e-05
3.43343e-05
3.43322e-05
3.43299e-05
3.43276e-05
3.43253e-05
3.43231e-05
3.43219e-05
3.43222e-05
3.43221e-05
0.0182824
0.0178794
0.0173685
0.0167556
0.0160496
0.0152623
0.0144057
0.0134925
0.0125358
0.0115493
0.0105481
0.00954969
0.00857158
0.00762823
0.00672812
0.00587448
0.00506873
0.00431163
0.00360373
0.0029453
0.00233824
0.0017851
0.00129786
0.000879884
0.000536839
0.000289326
0.000125204
3.43674e-05
3.43672e-05
3.4367e-05
3.43668e-05
3.43666e-05
3.43664e-05
3.43662e-05
3.4366e-05
3.43658e-05
3.43655e-05
3.43653e-05
3.4365e-05
3.43648e-05
3.43645e-05
3.43642e-05
3.43639e-05
3.43636e-05
3.43632e-05
3.43629e-05
3.43625e-05
3.43621e-05
3.43617e-05
3.43613e-05
3.43609e-05
3.43604e-05
3.43599e-05
3.43594e-05
3.43589e-05
3.43583e-05
3.43578e-05
3.43571e-05
3.43565e-05
3.43558e-05
3.4355e-05
3.43543e-05
3.43534e-05
3.43525e-05
3.43516e-05
3.43506e-05
3.43496e-05
3.43484e-05
3.43472e-05
3.4346e-05
3.43446e-05
3.43431e-05
3.43416e-05
3.43399e-05
3.43381e-05
3.43362e-05
3.43342e-05
3.43321e-05
3.43298e-05
3.43274e-05
3.4325e-05
3.43229e-05
3.4322e-05
3.43225e-05
3.43223e-05
0.0192452
0.0188629
0.0183777
0.0177931
0.0171166
0.0163581
0.0155281
0.0146377
0.0136976
0.0127188
0.0117131
0.0106947
0.00967983
0.00868626
0.00772908
0.00681621
0.00595102
0.00513435
0.00436668
0.00364788
0.00297922
0.00236161
0.0018024
0.00131185
0.000894169
0.000561627
0.000294275
0.00011794
3.43676e-05
3.43675e-05
3.43673e-05
3.43671e-05
3.43669e-05
3.43667e-05
3.43665e-05
3.43663e-05
3.43661e-05
3.43659e-05
3.43656e-05
3.43654e-05
3.43651e-05
3.43649e-05
3.43646e-05
3.43643e-05
3.4364e-05
3.43637e-05
3.43633e-05
3.4363e-05
3.43626e-05
3.43622e-05
3.43618e-05
3.43614e-05
3.4361e-05
3.43605e-05
3.43601e-05
3.43595e-05
3.4359e-05
3.43585e-05
3.43579e-05
3.43572e-05
3.43566e-05
3.43559e-05
3.43551e-05
3.43544e-05
3.43535e-05
3.43526e-05
3.43517e-05
3.43507e-05
3.43496e-05
3.43485e-05
3.43473e-05
3.4346e-05
3.43446e-05
3.43432e-05
3.43416e-05
3.43399e-05
3.43381e-05
3.43362e-05
3.43342e-05
3.4332e-05
3.43297e-05
3.43273e-05
3.43248e-05
3.43227e-05
3.43222e-05
3.43228e-05
3.43225e-05
0.0202034
0.0198379
0.0193752
0.018817
0.0181691
0.0174398
0.0166384
0.0157746
0.0148573
0.0138956
0.0128985
0.0118766
0.0108425
0.0098122
0.00880398
0.00783295
0.00690748
0.00603045
0.00520239
0.00442295
0.00369289
0.00301228
0.00238538
0.00182076
0.00133059
0.000913897
0.000584026
0.000283648
0.000132089
3.43679e-05
3.43677e-05
3.43676e-05
3.43674e-05
3.43672e-05
3.4367e-05
3.43669e-05
3.43666e-05
3.43664e-05
3.43662e-05
3.4366e-05
3.43658e-05
3.43655e-05
3.43652e-05
3.4365e-05
3.43647e-05
3.43644e-05
3.43641e-05
3.43638e-05
3.43634e-05
3.43631e-05
3.43627e-05
3.43623e-05
3.43619e-05
3.43615e-05
3.43611e-05
3.43606e-05
3.43602e-05
3.43597e-05
3.43591e-05
3.43586e-05
3.4358e-05
3.43573e-05
3.43567e-05
3.4356e-05
3.43552e-05
3.43545e-05
3.43536e-05
3.43527e-05
3.43518e-05
3.43508e-05
3.43497e-05
3.43486e-05
3.43474e-05
3.43461e-05
3.43447e-05
3.43432e-05
3.43416e-05
3.43399e-05
3.43381e-05
3.43362e-05
3.43341e-05
3.43319e-05
3.43295e-05
3.43271e-05
3.43246e-05
3.43225e-05
3.43224e-05
3.43232e-05
3.43228e-05
0.0211598
0.0208069
0.0203633
0.0198289
0.0192077
0.018507
0.0177346
0.0168992
0.0160085
0.01507
0.0140908
0.0130785
0.012042
0.0109934
0.0099484
0.00892547
0.00794064
0.0070024
0.00611309
0.00527236
0.00448074
0.00373761
0.0030459
0.0024088
0.00184503
0.00135457
0.00094128
0.000588535
0.000280778
0.000161674
3.43681e-05
3.4368e-05
3.43678e-05
3.43677e-05
3.43675e-05
3.43673e-05
3.43671e-05
3.4367e-05
3.43668e-05
3.43665e-05
3.43663e-05
3.43661e-05
3.43659e-05
3.43656e-05
3.43653e-05
3.43651e-05
3.43648e-05
3.43645e-05
3.43642e-05
3.43639e-05
3.43635e-05
3.43632e-05
3.43628e-05
3.43625e-05
3.43621e-05
3.43616e-05
3.43612e-05
3.43607e-05
3.43603e-05
3.43598e-05
3.43592e-05
3.43587e-05
3.43581e-05
3.43574e-05
3.43568e-05
3.43561e-05
3.43553e-05
3.43546e-05
3.43537e-05
3.43528e-05
3.43519e-05
3.43509e-05
3.43498e-05
3.43487e-05
3.43475e-05
3.43462e-05
3.43448e-05
3.43433e-05
3.43417e-05
3.434e-05
3.43381e-05
3.43362e-05
3.4334e-05
3.43318e-05
3.43294e-05
3.43269e-05
3.43243e-05
3.43224e-05
3.43226e-05
3.43235e-05
3.43231e-05
0.0221175
0.021773
0.0213447
0.020831
0.0202343
0.0195606
0.0188166
0.0180101
0.0171478
0.016236
0.0152805
0.014287
0.0132613
0.0122116
0.0111492
0.0100893
0.00905161
0.00805276
0.00710138
0.00619847
0.00534471
0.00453905
0.00378347
0.00307914
0.00243975
0.0018754
0.00139026
0.000970136
0.000603245
0.000277049
0.000210341
3.43684e-05
3.43682e-05
3.43681e-05
3.43679e-05
3.43678e-05
3.43676e-05
3.43674e-05
3.43673e-05
3.43671e-05
3.43669e-05
3.43666e-05
3.43664e-05
3.43662e-05
3.4366e-05
3.43657e-05
3.43654e-05
3.43652e-05
3.43649e-05
3.43646e-05
3.43643e-05
3.4364e-05
3.43636e-05
3.43633e-05
3.43629e-05
3.43626e-05
3.43622e-05
3.43617e-05
3.43613e-05
3.43609e-05
3.43604e-05
3.43599e-05
3.43593e-05
3.43588e-05
3.43582e-05
3.43576e-05
3.43569e-05
3.43562e-05
3.43555e-05
3.43547e-05
3.43538e-05
3.43529e-05
3.4352e-05
3.4351e-05
3.43499e-05
3.43488e-05
3.43475e-05
3.43462e-05
3.43448e-05
3.43433e-05
3.43417e-05
3.434e-05
3.43381e-05
3.43361e-05
3.4334e-05
3.43317e-05
3.43293e-05
3.43267e-05
3.43241e-05
3.43224e-05
3.43229e-05
3.4324e-05
3.43234e-05
0.0230795
0.0227391
0.0223222
0.0218258
0.0212509
0.0206022
0.0198854
0.0191072
0.0182738
0.0173905
0.016462
0.015493
0.0144871
0.0134495
0.0123874
0.011311
0.0102361
0.00918307
0.00816991
0.00720407
0.00628731
0.0054186
0.00459943
0.00382964
0.00311804
0.00247785
0.00192084
0.00143492
0.00100415
0.000599519
0.000275669
0.000288844
3.43686e-05
3.43685e-05
3.43683e-05
3.43682e-05
3.4368e-05
3.43679e-05
3.43677e-05
3.43675e-05
3.43674e-05
3.43672e-05
3.4367e-05
3.43667e-05
3.43665e-05
3.43663e-05
3.43661e-05
3.43658e-05
3.43655e-05
3.43653e-05
3.4365e-05
3.43647e-05
3.43644e-05
3.43641e-05
3.43638e-05
3.43634e-05
3.4363e-05
3.43627e-05