/*--------------------------------*- C++ -*----------------------------------*\
  =========                 |
  \\      /  F ield         | OpenFOAM: The Open Source CFD Toolbox
   \\    /   O peration     | Website:  https://openfoam.org
    \\  /    A nd           | Version:  7
     \\/     M anipulation  |
\*---------------------------------------------------------------------------*/
FoamFile
{
    version     2.0;
    format      ascii;
    class       volScalarField;
    location    "200";
    object      p;
}
// * * * * * * * * * * * * * * * * * * * * * * * * * * * * * * * * * * * * * //

dimensions      [0 2 -2 0 0 0 0];

internalField   nonuniform List<scalar> 
23064
(
-5.29939
-5.31574
-5.5462
-5.30821
-5.55818
-5.79277
-5.4643
-5.54638
-5.79971
-6.03919
-5.66077
-5.71102
-5.78334
-6.04019
-6.28539
-5.87109
-5.91579
-5.95694
-6.01902
-6.27946
-6.53125
-6.11831
-6.1338
-6.17014
-6.20198
-6.2532
-6.51738
-6.77658
-6.40302
-6.39033
-6.39583
-6.42372
-6.44589
-6.48579
-6.75378
-7.02125
-6.71923
-6.68566
-6.66181
-6.65717
-6.67631
-6.68866
-6.71669
-6.98857
-7.26543
-7.06581
-7.01334
-6.96791
-6.93273
-6.91765
-6.92792
-6.9302
-6.94574
-7.22155
-7.50884
-7.44262
-7.37243
-7.30716
-7.24961
-7.20287
-7.17716
-7.17834
-7.17026
-7.17281
-7.4526
-7.75141
-7.84857
-7.76283
-7.67888
-7.60056
-7.53067
-7.47214
-7.43555
-7.42741
-7.40888
-7.39775
-7.68143
-7.99305
-8.28272
-8.18338
-8.08295
-7.98498
-7.89342
-7.81101
-7.74048
-7.69273
-7.67511
-7.64577
-7.62038
-7.90801
-8.23356
-8.74442
-8.63314
-8.51816
-8.40281
-8.29067
-8.18566
-8.09054
-8.00774
-7.94862
-7.92128
-7.88099
-7.84063
-8.13208
-8.47314
-9.23321
-9.11148
-8.98362
-8.85279
-8.72234
-8.59581
-8.47717
-8.36906
-8.27388
-8.20304
-8.16575
-8.1142
-8.05827
-8.35349
-8.71121
-9.74878
-9.61803
-9.4787
-9.334
-9.18716
-9.0414
-8.90029
-8.76779
-8.64656
-8.53862
-8.4558
-8.40831
-8.34537
-8.27322
-8.572
-8.94791
-10.2909
-10.1524
-10.003
-9.84591
-9.68422
-9.52114
-9.3599
-9.20402
-9.05745
-8.92279
-8.80196
-8.70683
-8.64901
-8.57442
-8.48525
-8.78742
-9.18315
-10.8592
-10.7143
-10.5562
-10.3881
-10.213
-10.0341
-9.85465
-9.67771
-9.50684
-9.346
-9.19777
-9.06365
-8.95604
-8.88762
-8.80113
-8.69428
-8.99964
-9.41666
-11.4539
-11.3038
-11.1382
-10.9602
-10.7731
-10.5798
-10.3836
-10.1875
-9.99471
-9.80864
-9.6333
-9.47119
-9.32367
-9.20321
-9.1239
-9.02532
-8.9001
-9.20832
-9.64851
-12.0748
-11.9207
-11.7487
-11.5622
-11.3642
-11.1579
-10.9463
-10.7325
-10.5197
-10.3108
-10.1093
-9.91926
-9.74314
-9.58187
-9.44829
-9.35775
-9.24689
-9.10251
-9.41331
-9.87841
-12.722
-12.565
-12.3879
-12.1939
-11.9862
-11.768
-11.5424
-11.3123
-11.0808
-10.851
-10.6258
-10.4087
-10.2037
-10.0133
-9.83815
-9.69102
-9.58911
-9.46572
-9.30143
-9.61437
-10.1061
-13.3957
-13.2369
-13.0558
-12.8554
-12.6392
-12.4102
-12.1716
-11.9264
-11.6776
-11.4282
-11.1812
-10.9396
-10.7067
-10.4866
-10.2816
-10.0922
-9.93135
-9.8178
-9.68171
-9.49667
-9.81126
-10.3313
-14.0961
-13.9366
-13.7524
-13.5468
-13.3231
-13.0844
-12.834
-12.5748
-12.3099
-12.0422
-11.7747
-11.5104
-11.2521
-11.0032
-10.7677
-10.548
-10.3441
-10.1691
-10.0435
-9.89447
-9.68807
-10.0038
-10.5544
-14.8233
-14.6643
-14.4781
-14.2683
-14.038
-13.7907
-13.5295
-13.2574
-12.9775
-12.6927
-12.406
-12.1202
-11.8383
-11.5632
-11.298
-11.0468
-10.8121
-10.5935
-10.404
-10.2662
-10.1041
-9.87543
-10.1917
-10.7749
-15.5779
-15.4203
-15.2332
-15.02
-14.7843
-14.5293
-14.2582
-13.9742
-13.6802
-13.3794
-13.0746
-12.7686
-12.4644
-12.1648
-11.8726
-11.591
-11.324
-11.074
-10.8404
-10.6362
-10.4857
-10.3102
-10.0585
-10.3748
-10.9927
-16.3601
-16.2051
-16.018
-15.8026
-15.5622
-15.3004
-15.0204
-14.7254
-14.4184
-14.1025
-13.7806
-13.4555
-13.1301
-12.8073
-12.4898
-12.1803
-11.8821
-11.599
-11.3335
-11.0846
-10.8653
-10.7018
-10.5128
-10.2373
-10.5526
-11.2075
-17.1704
-17.019
-16.833
-16.6162
-16.3722
-16.1044
-15.8164
-15.5113
-15.1921
-14.862
-14.5239
-14.1808
-13.8353
-13.4904
-13.1487
-12.8131
-12.4862
-12.1711
-11.8716
-11.5904
-11.326
-11.0911
-10.9144
-10.7118
-10.4115
-10.7251
-11.4191
-18.0093
-17.8627
-17.6788
-17.4615
-17.2147
-16.942
-16.6466
-16.3321
-16.0016
-15.6582
-15.3048
-14.9444
-14.5798
-14.2138
-13.8491
-13.4885
-13.1346
-12.79
-12.4578
-12.1418
-11.8446
-11.5643
-11.3135
-11.1233
-10.9068
-10.581
-10.8919
-11.6274
-18.8774
-18.7366
-18.5559
-18.3391
-18.0904
-17.8133
-17.5116
-17.1885
-16.8474
-16.4913
-16.1234
-15.7466
-15.3637
-14.9775
-14.5908
-14.2063
-13.8265
-13.4541
-13.0917
-12.7422
-12.4094
-12.096
-11.7995
-11.5325
-11.3282
-11.0977
-10.7456
-11.0528
-11.8321
-19.7752
-19.6414
-19.4649
-19.2496
-18.9999
-18.7193
-18.4119
-18.081
-17.73
-17.362
-16.9803
-16.5877
-16.1873
-15.7818
-15.3739
-14.9663
-14.5617
-14.1625
-13.7715
-13.3911
-13.024
-12.6742
-12.3443
-12.0314
-11.7478
-11.5291
-11.2843
-10.9051
-11.2075
-12.0329
-20.7031
-20.5777
-20.4065
-20.1938
-19.9438
-19.6607
-19.3483
-19.0102
-18.6499
-18.2707
-17.8758
-17.4682
-17.0509
-16.6267
-16.1984
-15.7686
-15.34
-14.9151
-14.4965
-14.0867
-13.688
-13.3032
-12.9361
-12.5894
-12.2598
-11.9593
-11.7257
-11.4666
-11.0594
-11.3557
-12.2298
-576.4
-21.662
-21.5462
-21.3814
-21.1722
-20.923
-20.6382
-20.3215
-19.9769
-19.608
-19.2181
-18.8106
-18.3885
-17.955
-17.5127
-17.0647
-16.6134
-16.1616
-15.7118
-15.2666
-14.8283
-14.3994
-13.9824
-13.5796
-13.1949
-12.8312
-12.4846
-12.1666
-11.9178
-11.6443
-11.2083
-11.4971
-12.4226
-576.462
-600.751
-22.6524
-22.5475
-22.3904
-22.1858
-21.9384
-21.6526
-21.3325
-20.9821
-20.605
-20.205
-19.7854
-19.3494
-18.9001
-18.4404
-17.9731
-17.5009
-17.0266
-16.5526
-16.0816
-15.6158
-15.1577
-14.7096
-14.2739
-13.853
-13.4505
-13.0695
-12.7057
-12.3698
-12.1053
-11.8171
-11.3515
-11.6314
-12.6112
-576.539
-600.81
-625.015
-23.6749
-23.5824
-23.4342
-23.2353
-22.9907
-22.7049
-22.382
-22.0265
-21.642
-21.2324
-20.8012
-20.3517
-19.887
-19.4102
-18.9242
-18.4317
-17.9354
-17.4379
-16.9416
-16.4491
-15.9626
-15.4845
-15.0172
-14.5626
-14.1233
-13.7028
-13.3041
-12.9227
-12.5687
-12.2881
-11.9849
-11.4889
-11.7583
-12.7948
-576.626
-600.88
-625.068
-649.004
-24.7304
-24.6517
-24.5137
-24.3218
-24.0809
-23.7959
-23.4712
-23.1111
-22.7199
-22.3012
-21.8588
-21.3962
-20.9166
-20.4231
-19.9187
-19.4063
-18.8885
-18.3679
-17.847
-17.3284
-16.8142
-16.307
-15.8087
-15.3218
-14.8483
-14.3903
-13.9515
-13.5349
-13.1357
-12.7631
-12.4658
-12.1476
-11.6205
-11.8775
-12.9733
-576.727
-600.963
-625.132
-649.049
-672.467
-25.8195
-25.7562
-25.6298
-25.446
-25.21
-24.9267
-24.6009
-24.2372
-23.8396
-23.4124
-22.9594
-22.484
-21.9898
-21.48
-20.9575
-20.4255
-19.8865
-19.3432
-18.7982
-18.2539
-17.7127
-17.1769
-16.6486
-16.1301
-15.6234
-15.1307
-14.6539
-14.1965
-13.7618
-13.3444
-12.9527
-12.6383
-12.305
-11.746
-11.9887
-13.1463
-576.84
-601.057
-625.207
-649.106
-672.506
-695.261
-26.9429
-26.8966
-26.7833
-26.6089
-26.3789
-26.0983
-25.7723
-25.4055
-25.0025
-24.5673
-24.104
-23.6163
-23.1078
-22.5818
-22.0416
-21.4901
-20.9301
-20.3645
-19.7957
-19.2262
-18.6583
-18.0944
-17.5368
-16.9874
-16.4484
-15.9219
-15.4097
-14.9139
-14.4377
-13.9845
-13.5486
-13.1374
-12.8054
-12.4567
-11.8651
-12.0915
-13.3142
-576.965
-601.163
-625.295
-649.174
-672.554
-695.292
-717.182
-28.1013
-28.0737
-27.9751
-27.8115
-27.5887
-27.3119
-26.9867
-26.6176
-26.2096
-25.767
-25.2938
-24.7942
-24.2717
-23.7298
-23.172
-22.6013
-22.0205
-21.4326
-20.8402
-20.2457
-19.6516
-19.0601
-18.4734
-17.8938
-17.3232
-16.7636
-16.217
-15.6853
-15.1701
-14.6749
-14.2029
-13.7482
-13.3172
-12.9669
-12.6028
-11.9778
-12.1858
-13.4765
-577.104
-601.282
-625.392
-649.251
-672.614
-695.33
-717.204
-738.127
-29.2954
-29.2885
-29.2061
-29.0547
-28.8404
-28.5686
-28.2451
-27.8747
-27.4623
-27.0128
-26.5303
-26.0189
-25.4827
-24.9252
-24.3498
-23.7601
-23.1587
-22.5487
-21.9327
-21.3134
-20.6931
-20.0743
-19.4591
-18.8495
-18.2478
-17.6558
-17.0755
-16.5087
-15.9572
-15.4225
-14.9079
-14.4169
-13.9431
-13.4917
-13.1227
-12.7429
-12.0839
-12.2711
-13.6325
-577.256
-601.413
-625.503
-649.341
-672.682
-695.38
-717.235
-738.142
-757.923
-30.5261
-30.5416
-30.4773
-30.3398
-30.1353
-29.8697
-29.5487
-29.1777
-28.7618
-28.306
-27.8146
-27.292
-26.7423
-26.1694
-25.5767
-24.9678
-24.3458
-23.7136
-23.0742
-22.4301
-21.7839
-21.1378
-20.4941
-19.855
-19.2225
-18.5986
-17.9851
-17.3839
-16.7967
-16.2252
-15.6708
-15.1367
-14.6263
-14.1331
-13.6609
-13.2725
-12.8769
-12.1834
-12.347
-13.7816
-577.422
-601.557
-625.624
-649.439
-672.759
-695.438
-717.276
-738.164
-757.929
-776.456
-31.7941
-31.8341
-31.7897
-31.6677
-31.4744
-31.2162
-30.8989
-30.5283
-30.1096
-29.6481
-29.1482
-28.6148
-28.0519
-27.4637
-26.8538
-26.2259
-25.5833
-24.9289
-24.266
-23.597
-22.9247
-22.2514
-21.5794
-20.9109
-20.2478
-19.5922
-18.946
-18.3109
-17.6886
-17.0809
-16.4892
-15.9149
-15.3609
-14.8309
-14.3179
-13.8245
-13.4161
-13.0047
-12.2759
-12.4132
-13.9242
-577.601
-601.713
-625.758
-649.549
-672.848
-695.504
-717.323
-738.193
-757.942
-776.455
-793.548
-33.1002
-33.167
-33.1443
-33.0393
-32.8588
-32.6093
-32.2969
-31.9276
-31.507
-31.0403
-30.5328
-29.9887
-29.413
-28.8097
-28.1827
-27.5358
-26.8725
-26.1959
-25.5093
-24.8154
-24.1169
-23.4162
-22.7158
-22.0178
-21.3244
-20.6373
-19.9585
-19.2899
-18.6331
-17.9896
-17.3611
-16.7491
-16.1547
-15.5805
-15.0305
-14.4975
-13.9825
-13.5533
-13.1258
-12.3614
-12.4696
-14.0598
-577.795
-601.883
-625.903
-649.67
-672.945
-695.579
-717.377
-738.229
-757.961
-776.457
-793.536
-809.006
-34.4452
-34.541
-34.5421
-34.456
-34.2898
-34.0504
-33.7442
-33.3772
-32.9556
-32.4846
-31.9695
-31.4156
-30.8271
-30.209
-29.565
-28.8992
-28.215
-27.5162
-26.8057
-26.0866
-25.3617
-24.6335
-23.9045
-23.1769
-22.4528
-21.7344
-21.0232
-20.3212
-19.63
-18.9513
-18.2866
-17.6373
-17.0047
-16.3899
-15.7954
-15.2251
-14.6717
-14.1346
-13.6841
-13.2403
-12.4398
-12.5156
-14.187
-578.003
-602.066
-626.061
-649.803
-673.053
-695.664
-717.44
-738.272
-757.987
-776.467
-793.53
-808.986
-822.543
-35.8301
-35.957
-35.984
-35.9189
-35.7689
-35.5409
-35.2421
-34.8787
-34.4568
-33.9822
-33.4605
-32.8968
-32.2963
-31.6633
-31.0024
-30.3176
-29.6127
-28.8913
-28.1567
-27.4122
-26.6607
-25.9046
-25.1468
-24.3893
-23.6345
-22.8843
-22.1407
-21.4054
-20.68
-19.9663
-19.2657
-18.5795
-17.9091
-17.2558
-16.6204
-16.0053
-15.4144
-14.8403
-14.2807
-13.8081
-13.3479
-12.5109
-12.551
-14.3073
-578.225
-602.263
-626.232
-649.947
-673.171
-695.757
-717.512
-738.323
-758.019
-776.482
-793.53
-808.97
-822.515
-833.873
-37.2553
-37.4161
-37.4713
-37.429
-37.2968
-37.0822
-36.792
-36.4332
-36.0123
-35.5349
-35.0072
-34.4344
-33.822
-33.1745
-32.4967
-31.7931
-31.0671
-30.323
-29.5642
-28.794
-28.0153
-27.2311
-26.444
-25.6563
-24.8704
-24.0883
-23.312
-22.5432
-21.7837
-21.0349
-20.2985
-19.5758
-18.8681
-18.1766
-17.5024
-16.8462
-16.2101
-15.5983
-15.0032
-14.4207
-13.9252
-13.4484
-12.5746
-12.5752
-14.4192
-578.462
-602.474
-626.415
-650.102
-673.301
-695.861
-717.591
-738.379
-758.056
-776.502
-793.535
-808.961
-822.49
-833.836
-842.51
-38.722
-38.919
-39.0049
-38.9876
-38.8751
-38.6755
-38.3957
-38.0426
-37.6235
-37.1443
-36.6112
-36.03
-35.406
-34.7443
-34.0499
-33.327
-32.5802
-31.8132
-31.0298
-30.2335
-29.4274
-28.6146
-27.7978
-26.9795
-26.162
-25.3476
-24.5382
-23.7357
-22.9417
-22.1579
-21.3857
-20.6266
-19.8817
-19.1523
-18.4394
-17.7442
-17.067
-16.4097
-15.7767
-15.1602
-14.5543
-14.0353
-13.5416
-12.6308
-12.5883
-14.5216
-578.715
-602.7
-626.612
-650.271
-673.44
-695.973
-717.679
-738.446
-758.102
-776.529
-793.544
-808.955
-822.472
-833.802
-842.464
-847.966
-40.231
-40.4672
-40.5859
-40.5959
-40.5052
-40.3221
-40.0542
-39.7085
-39.2923
-38.8122
-38.2747
-37.6853
-37.0502
-36.3748
-35.6637
-34.9219
-34.1537
-33.3638
-32.5555
-31.7327
-30.8988
-30.0569
-29.2099
-28.3604
-27.5109
-26.6636
-25.8206
-24.9839
-24.1552
-23.3359
-22.5278
-21.7321
-20.9502
-20.1831
-19.4319
-18.6976
-17.9811
-17.2826
-16.604
-15.9493
-15.3112
-14.6814
-14.138
-13.6273
-12.6795
-12.5898
-14.6157
-578.982
-602.94
-626.822
-650.45
-673.591
-696.097
-717.777
-738.519
-758.153
-776.562
-793.559
-808.955
-822.456
-833.774
-842.421
-847.911
-849.45
-41.7829
-42.061
-42.2156
-42.2551
-42.1883
-42.0238
-41.7691
-41.4323
-41.0205
-40.5404
-39.999
-39.4026
-38.7568
-38.0676
-37.3403
-36.5795
-35.7903
-34.9767
-34.1434
-33.2939
-32.4316
-31.56
-30.6822
-29.8009
-28.9187
-28.038
-27.1608
-26.2893
-25.4252
-24.5703
-23.7258
-22.8934
-22.0741
-21.2692
-20.4798
-19.7067
-18.9508
-18.2129
-17.493
-16.7927
-16.1161
-15.456
-14.802
-14.2334
-13.7053
-12.7205
-12.5793
-14.7008
-579.263
-603.193
-627.046
-650.643
-673.754
-696.23
-717.884
-738.601
-758.214
-776.601
-793.58
-808.958
-822.445
-833.749
-842.383
-847.859
-849.387
-846.252
-43.3792
-43.7021
-43.8948
-43.9667
-43.9259
-43.7819
-43.5426
-43.2157
-42.8096
-42.3308
-41.7865
-41.1835
-40.5277
-39.8252
-39.0814
-38.302
-37.4913
-36.6545
-35.7956
-34.9188
-34.0278
-33.126
-32.2168
-31.303
-30.3873
-29.4724
-28.5604
-27.6535
-26.7534
-25.862
-24.9807
-24.1111
-23.2543
-22.4114
-21.5836
-20.7718
-19.9767
-19.1991
-18.4395
-17.6981
-16.9758
-16.277
-15.5945
-14.9159
-14.3212
-13.7755
-12.7538
-12.5565
-14.776
-579.557
-603.46
-627.283
-650.848
-673.929
-696.375
-718
-738.692
-758.282
-776.648
-793.608
-808.969
-822.439
-833.727
-842.348
-847.812
-849.325
-846.18
-836.991
-45.0204
-45.3914
-45.6253
-45.7315
-45.7195
-45.5978
-45.3757
-45.0608
-44.6615
-44.1852
-43.6392
-43.0302
-42.3647
-41.6496
-40.8898
-40.0915
-39.2595
-38.3989
-37.5143
-36.6098
-35.6895
-34.757
-33.8157
-32.8687
-31.9189
-30.969
-30.0214
-29.0781
-28.1413
-27.2128
-26.294
-25.3865
-24.4916
-23.6104
-22.7439
-21.8931
-21.0588
-20.2416
-19.4421
-18.6608
-17.8975
-17.153
-16.4317
-15.7266
-15.0229
-14.4013
-13.8376
-12.7794
-12.5212
-14.8392
-579.862
-603.739
-627.532
-651.066
-674.115
-696.53
-718.128
-738.792
-758.358
-776.703
-793.643
-808.985
-822.439
-833.711
-842.317
-847.767
-849.268
-846.108
-836.911
-820.908
-46.7074
-47.1298
-47.4078
-47.5515
-47.57
-47.4734
-47.27
-46.9691
-46.5782
-46.1054
-45.5586
-44.9447
-44.2705
-43.5426
-42.7674
-41.9504
-41.0969
-40.2126
-39.3018
-38.3693
-37.419
-36.4552
-35.4811
-34.5003
-33.5155
-32.5298
-31.5456
-30.5652
-29.5908
-28.6242
-27.6671
-26.721
-25.7873
-24.8671
-23.9615
-23.0714
-22.1976
-21.3407
-20.5013
-19.6799
-18.8767
-18.0913
-17.3244
-16.5802
-15.852
-15.1229
-14.4735
-13.8915
-12.7973
-12.4729
-14.8926
-580.177
-604.027
-627.792
-651.295
-674.312
-696.697
-718.265
-738.901
-758.443
-776.765
-793.684
-809.009
-822.445
-833.7
-842.291
-847.726
-849.213
-846.04
-836.83
-820.82
-795.627
-48.4419
-48.9189
-49.2438
-49.4278
-49.4798
-49.4102
-49.2279
-48.9421
-48.5613
-48.0939
-47.5473
-46.9291
-46.2469
-45.5073
-44.7163
-43.881
-43.0062
-42.0978
-41.1607
-40.1996
-39.2191
-38.2231
-37.2157
-36.1999
-35.1794
-34.157
-33.1352
-32.1168
-31.1038
-30.0982
-29.1018
-28.1163
-27.1429
-26.1829
-25.2375
-24.3075
-23.3937
-22.4968
-21.6173
-20.7557
-19.9121
-19.0869
-18.2793
-17.4897
-16.7223
-15.9708
-15.2159
-14.5376
-13.937
-12.8074
-12.4114
-14.9346
-580.5
-604.325
-628.062
-651.534
-674.521
-696.874
-718.412
-739.021
-758.537
-776.836
-793.735
-809.04
-822.458
-833.697
-842.271
-847.691
-849.162
-845.975
-836.752
-820.729
-795.532
-761.027
-50.2247
-50.7593
-51.135
-51.3615
-51.45
-51.4101
-51.2511
-50.9824
-50.6132
-50.1521
-49.6071
-48.9858
-48.2962
-47.5453
-46.7396
-45.8855
-44.9897
-44.057
-43.0932
-42.1033
-41.0919
-40.0633
-39.0214
-37.9703
-36.9131
-35.8529
-34.7927
-33.7351
-32.6824
-31.6368
-30.6001
-29.574
-28.56
-27.5593
-26.5732
-25.6025
-24.6482
-23.7107
-22.7907
-21.8886
-21.0046
-20.1388
-19.2913
-18.4614
-17.6489
-16.8579
-16.0827
-15.3017
-14.5937
-13.9738
-12.8098
-12.3365
-14.9648
-580.828
-604.629
-628.338
-651.781
-674.737
-697.06
-718.569
-739.149
-758.64
-776.916
-793.793
-809.078
-822.48
-833.701
-842.258
-847.663
-849.118
-845.915
-836.677
-820.64
-795.432
-760.927
-713.209
-52.057
-52.653
-53.0818
-53.3547
-53.4823
-53.4743
-53.3409
-53.0916
-52.736
-52.2825
-51.7403
-51.1171
-50.4212
-49.6592
-48.839
-47.9672
-47.0497
-46.0929
-45.1022
-44.0831
-43.0402
-41.978
-40.9014
-39.8136
-38.7189
-37.6202
-36.5204
-35.4225
-34.329
-33.2422
-32.1639
-31.0962
-30.0404
-28.998
-27.9702
-26.9579
-25.9621
-24.9833
-24.0222
-23.0791
-22.1543
-21.2479
-20.3598
-19.49
-18.6375
-17.8018
-16.9869
-16.1877
-15.3802
-14.6416
-14.0019
-12.8045
-12.2478
-14.9818
-581.162
-604.938
-628.62
-652.035
-674.962
-697.255
-718.736
-739.288
-758.753
-777.005
-793.861
-809.126
-822.509
-833.713
-842.254
-847.642
-849.081
-845.861
-836.608
-820.556
-795.332
-760.817
-713.104
-655.148
-53.9398
-54.6011
-55.0867
-55.409
-55.5784
-55.605
-55.4992
-55.2714
-54.9314
-54.4875
-53.9493
-53.3255
-52.6238
-51.8521
-51.0176
-50.1278
-49.1894
-48.2083
-47.1902
-46.1412
-45.0665
-43.9706
-42.858
-41.7333
-40.5997
-39.4612
-38.3209
-37.1816
-36.046
-34.9168
-33.7958
-32.6851
-31.5863
-30.5009
-29.4302
-28.3753
-27.3369
-26.316
-25.3128
-24.328
-23.3618
-22.4143
-21.4854
-20.5749
-19.6826
-18.8074
-17.9483
-17.1093
-16.2857
-15.4514
-14.6811
-14.0211
-12.7916
-12.1452
-14.9862
-581.501
-605.251
-628.908
-652.293
-675.192
-697.456
-718.909
-739.435
-758.876
-777.104
-793.937
-809.183
-822.548
-833.733
-842.258
-847.63
-849.053
-845.816
-836.546
-820.477
-795.238
-760.709
-712.985
-655.045
-581.477
-55.8745
-56.6046
-57.1511
-57.5259
-57.7399
-57.8039
-57.7284
-57.5243
-57.2014
-56.7692
-56.2365
-55.6129
-54.9065
-54.1257
-53.2778
-52.3707
-51.4109
-50.4057
-49.3603
-48.2814
-47.1738
-46.0433
-44.8943
-43.7312
-42.5582
-41.3788
-40.1967
-39.0149
-37.836
-36.6631
-35.498
-34.343
-33.1999
-32.0702
-30.9553
-29.8564
-28.7744
-27.71
-26.6639
-25.6365
-24.6281
-23.6388
-22.6685
-21.7171
-20.7841
-19.8692
-18.971
-18.0884
-17.2248
-16.3766
-15.5152
-14.7123
-14.0312
-12.7712
-12.0285
-14.9772
-581.842
-605.569
-629.199
-652.558
-675.428
-697.664
-719.09
-739.59
-759.007
-777.212
-794.023
-809.249
-822.596
-833.765
-842.272
-847.628
-849.034
-845.781
-836.493
-820.407
-795.149
-760.603
-712.864
-654.917
-581.373
-504.417
-57.8627
-58.6658
-59.2764
-59.7067
-59.9687
-60.0727
-60.0304
-59.8527
-59.5487
-59.1294
-58.6042
-57.9824
-57.2724
-56.483
-55.6223
-54.6982
-53.7177
-52.6877
-51.6151
-50.5054
-49.3653
-48.1994
-47.0131
-45.811
-44.5973
-43.376
-42.1508
-40.925
-39.7017
-38.4836
-37.2731
-36.0724
-34.8836
-33.7081
-32.5477
-31.4034
-30.2763
-29.1673
-28.077
-27.0059
-25.9543
-24.9222
-23.9098
-22.9167
-21.9427
-20.9872
-20.0495
-19.1283
-18.2219
-17.3336
-16.4603
-15.5716
-14.735
-14.032
-12.7435
-11.8976
-14.9547
-582.186
-605.889
-629.494
-652.826
-675.668
-697.876
-719.277
-739.751
-759.145
-777.329
-794.119
-809.325
-822.655
-833.806
-842.297
-847.637
-849.027
-845.758
-836.453
-820.349
-795.071
-760.508
-712.751
-654.793
-581.247
-504.329
-419.625
-59.9056
-60.7854
-61.4641
-61.9539
-62.2671
-62.4143
-62.4074
-62.2582
-61.9755
-61.5716
-61.055
-60.4361
-59.724
-58.927
-58.0542
-57.1132
-56.1122
-55.0581
-53.9576
-52.8175
-51.6435
-50.4419
-49.2174
-47.9752
-46.7199
-45.4557
-44.1862
-42.9154
-41.6461
-40.3813
-39.1239
-37.876
-36.6399
-35.4172
-34.2097
-33.0185
-31.8449
-30.6898
-29.5539
-28.4378
-27.3417
-26.2658
-25.2102
-24.1746
-23.1589
-22.1622
-21.1841
-20.2236
-19.2792
-18.3488
-17.4353
-16.5367
-15.6205
-14.7493
-14.0234
-12.7086
-11.7523
-14.9175
-582.532
-606.213
-629.793
-653.097
-675.913
-698.095
-719.469
-739.919
-759.29
-777.453
-794.224
-809.411
-822.723
-833.858
-842.333
-847.658
-849.033
-845.747
-836.425
-820.303
-795.005
-760.421
-712.641
-654.666
-581.106
-504.199
-419.555
-360.986
-62.0054
-62.9658
-63.716
-64.2688
-64.6364
-64.83
-64.8619
-64.7432
-64.4843
-64.0973
-63.5917
-62.9768
-62.2636
-61.4604
-60.576
-59.6189
-58.5975
-57.5191
-56.391
-55.2199
-54.0122
-52.7738
-51.5106
-50.2273
-48.9294
-47.6207
-46.306
-44.9885
-43.6719
-42.3591
-41.0532
-39.7567
-38.4715
-37.2
-35.9437
-34.704
-33.4823
-32.2796
-31.0966
-29.934
-28.792
-27.6711
-26.5711
-25.4919
-24.4333
-23.3948
-22.3755
-21.3746
-20.3912
-19.4235
-18.4689
-17.5301
-16.6058
-15.6619
-14.7552
-14.0053
-12.6668
-11.5923
-14.8646
-582.881
-606.539
-630.094
-653.372
-676.161
-698.317
-719.666
-740.092
-759.442
-777.585
-794.337
-809.507
-822.803
-833.921
-842.381
-847.691
-849.051
-845.751
-836.413
-820.274
-794.955
-760.35
-712.543
-654.546
-580.963
-504.055
-419.442
-360.957
-330.491
-64.1639
-65.2089
-66.0347
-66.6537
-67.0792
-67.3219
-67.3953
-67.3101
-67.0776
-66.7097
-66.2162
-65.6077
-64.8945
-64.0858
-63.1908
-62.2185
-61.177
-60.0745
-58.9185
-57.7161
-56.4737
-55.1985
-53.8955
-52.5706
-51.2287
-49.8748
-48.5133
-47.1479
-45.7824
-44.4201
-43.0642
-41.7172
-40.3816
-39.0594
-37.7527
-36.4628
-35.1912
-33.9392
-32.7073
-31.4965
-30.3073
-29.1397
-27.9939
-26.8699
-25.7673
-24.6857
-23.6243
-22.5824
-21.5589
-20.5524
-19.5612
-18.5824
-17.6179
-16.6675
-15.6959
-14.7527
-13.9775
-12.6185
-11.4177
-14.7956
-583.229
-606.865
-630.398
-653.65
-676.413
-698.543
-719.868
-740.272
-759.6
-777.725
-794.459
-809.612
-822.892
-833.996
-842.442
-847.738
-849.084
-845.77
-836.417
-820.262
-794.923
-760.295
-712.459
-654.435
-580.817
-503.891
-419.282
-360.88
-330.49
-413.3
-66.3831
-67.5168
-68.4219
-69.1111
-69.5977
-69.8935
-70.0102
-69.9617
-69.758
-69.411
-68.9318
-68.3313
-67.6194
-66.8065
-65.9017
-64.9145
-63.8538
-62.7273
-61.5433
-60.3091
-59.0325
-57.7189
-56.3758
-55.0082
-53.6216
-52.221
-50.8115
-49.3968
-47.981
-46.5675
-45.16
-43.7609
-42.3728
-40.9983
-39.6393
-38.2974
-36.9742
-35.6709
-34.3886
-33.1279
-31.8895
-30.6737
-29.4806
-28.3101
-27.1621
-26.0361
-24.9315
-23.8475
-22.7829
-21.7366
-20.707
-19.6923
-18.689
-17.6986
-16.7219
-15.7224
-14.7418
-13.9401
-12.5638
-11.2283
-14.7112
-583.579
-607.194
-630.703
-653.93
-676.669
-698.773
-720.075
-740.456
-759.765
-777.871
-794.589
-809.727
-822.993
-834.083
-842.516
-847.799
-849.133
-845.805
-836.439
-820.269
-794.91
-760.26
-712.394
-654.335
-580.672
-503.709
-419.08
-360.742
-330.454
-413.277
-632.075
-68.6644
-69.8914
-70.8797
-71.643
-72.1941
-72.5459
-72.7101
-72.7005
-72.5281
-72.2042
-71.7417
-71.1507
-70.4415
-69.6257
-68.712
-67.7106
-66.6307
-65.4808
-64.2688
-63.003
-61.6907
-60.3395
-58.9549
-57.5437
-56.1112
-54.663
-53.204
-51.7387
-50.2708
-48.8048
-47.3436
-45.8907
-44.4487
-43.0199
-41.6067
-40.2108
-38.8341
-37.4777
-36.1429
-34.8305
-33.541
-32.2752
-31.033
-29.8144
-28.6195
-27.4476
-26.2983
-25.1708
-24.064
-22.9769
-21.9077
-20.855
-19.8166
-18.7888
-17.7723
-16.7689
-15.7415
-14.7228
-13.8925
-12.503
-11.0247
-14.6088
-583.929
-607.522
-631.009
-654.212
-676.927
-699.007
-720.286
-740.647
-759.936
-778.025
-794.727
-809.851
-823.104
-834.182
-842.604
-847.875
-849.198
-845.859
-836.48
-820.296
-794.92
-760.248
-712.348
-654.25
-580.53
-503.511
-418.828
-360.526
-330.34
-413.266
-631.86
-1126.73
-71.0112
-72.3349
-73.4109
-74.2517
-74.8712
-75.2821
-75.4969
-75.529
-75.3903
-75.0926
-74.6489
-74.0683
-73.3644
-72.546
-71.6249
-70.6105
-69.5118
-68.3383
-67.0988
-65.8013
-64.4537
-63.0629
-61.6368
-60.1809
-58.7015
-57.2042
-55.6946
-54.1769
-52.6557
-51.1353
-49.6189
-48.1102
-46.6122
-45.1272
-43.658
-42.2062
-40.7739
-39.3625
-37.9731
-36.6069
-35.2646
-33.9467
-32.6535
-31.385
-30.1413
-28.9218
-27.7263
-26.5537
-25.4033
-24.2739
-23.1641
-22.0722
-20.9964
-19.9342
-18.8817
-17.839
-16.8085
-15.7532
-14.6957
-13.835
-12.437
-10.8067
-14.4892
-584.277
-607.851
-631.316
-654.496
-677.188
-699.246
-720.503
-740.842
-760.113
-778.185
-794.873
-809.984
-823.226
-834.293
-842.705
-847.968
-849.28
-845.931
-836.543
-820.346
-794.953
-760.259
-712.325
-654.184
-580.393
-503.296
-418.529
-360.223
-330.112
-413.207
-631.743
-1126.07
-2006.91
-73.4256
-74.8508
-76.0178
-76.9403
-77.6318
-78.1053
-78.3738
-78.4509
-78.3484
-78.0792
-77.6558
-77.0883
-76.3903
-75.5721
-74.644
-73.6171
-72.5002
-71.3039
-70.0362
-68.707
-67.3237
-65.8939
-64.4246
-62.9234
-61.3959
-59.8485
-58.2867
-56.7153
-55.1392
-53.5626
-51.9894
-50.4233
-48.8671
-47.3239
-45.7965
-44.2868
-42.7969
-41.3282
-39.8823
-38.4602
-37.0629
-35.6909
-34.3446
-33.0242
-31.7297
-30.4608
-29.2171
-27.9978
-26.8022
-25.629
-24.4771
-23.3447
-22.23
-21.131
-20.0451
-18.9679
-17.8986
-16.8408
-15.7577
-14.6607
-13.7674
-12.366
-10.5743
-14.3515
-584.624
-608.179
-631.623
-654.781
-677.452
-699.486
-720.723
-741.042
-760.296
-778.352
-795.027
-810.126
-823.358
-834.417
-842.821
-848.076
-849.381
-846.025
-836.627
-820.42
-795.012
-760.297
-712.328
-654.137
-580.265
-503.066
-418.172
-359.822
-329.744
-413.026
-631.644
-1125.75
-2005.32
-2833.72
-75.9104
-77.4412
-78.7037
-79.7114
-80.4785
-81.0183
-81.3437
-81.4682
-81.4054
-81.1671
-80.766
-80.214
-79.5237
-78.7068
-77.7731
-76.7342
-75.5998
-74.3808
-73.0858
-71.7245
-70.3049
-68.8352
-67.3228
-65.7746
-64.1986
-62.5997
-60.9845
-59.358
-57.7252
-56.0907
-54.4587
-52.833
-51.2169
-49.6136
-48.0258
-46.4561
-44.9061
-43.3782
-41.8734
-40.3933
-38.9387
-37.5104
-36.1089
-34.7344
-33.3871
-32.0668
-30.7729
-29.505
-28.2623
-27.0437
-25.8479
-24.6734
-23.5185
-22.3811
-21.2588
-20.1491
-19.0471
-17.9513
-16.8658
-15.7551
-14.6182
-13.6897
-12.2904
-10.3282
-14.1948
-584.969
-608.506
-631.93
-655.067
-677.716
-699.73
-720.948
-741.248
-760.485
-778.526
-795.188
-810.277
-823.501
-834.552
-842.95
-848.2
-849.501
-846.139
-836.735
-820.52
-795.098
-760.365
-712.358
-654.113
-580.147
-502.822
-417.76
-359.315
-329.219
-412.686
-631.463
-1125.62
-2004.43
-2830.12
-3130.49
-78.4693
-80.1093
-81.471
-82.5683
-83.4146
-84.0238
-84.4096
-84.5849
-84.5637
-84.3587
-83.983
-83.4485
-82.7678
-81.9531
-81.0152
-79.9655
-78.8145
-77.5735
-76.2512
-74.8576
-73.4014
-71.8914
-70.3348
-68.7399
-67.1132
-65.462
-63.7917
-62.1087
-60.4176
-58.7235
-57.0307
-55.3436
-53.6654
-51.9999
-50.3498
-48.7174
-47.1055
-45.5157
-43.9499
-42.4094
-40.8952
-39.4083
-37.9493
-36.5186
-35.1162
-33.7422
-32.3961
-31.0775
-29.7856
-28.5196
-27.278
-26.0597
-24.8628
-23.6854
-22.5254
-21.3799
-20.2463
-19.1196
-17.9971
-16.8837
-15.7454
-14.5685
-13.6017
-12.2111
-10.0688
-14.0198
-585.309
-608.828
-632.234
-655.352
-677.981
-699.976
-721.175
-741.459
-760.68
-778.708
-795.358
-810.437
-823.654
-834.7
-843.094
-848.342
-849.64
-846.276
-836.869
-820.648
-795.214
-760.461
-712.418
-654.114
-580.042
-502.561
-417.288
-358.692
-328.515
-412.141
-631.133
-1125.45
-2004
-2828.81
-3127.54
-3417.49
-81.1052
-82.8589
-84.3237
-85.5137
-86.4433
-87.1256
-87.5746
-87.8044
-87.8278
-87.6588
-87.3101
-86.7952
-86.1263
-85.3151
-84.3744
-83.3148
-82.1481
-80.8852
-79.5361
-78.1104
-76.6175
-75.0666
-73.4654
-71.8222
-70.1446
-68.4394
-66.7128
-64.9714
-63.2204
-61.4647
-59.7096
-57.9587
-56.2166
-54.4866
-52.7716
-51.0748
-49.3984
-47.7446
-46.1153
-44.5119
-42.9358
-41.3879
-39.869
-38.3795
-36.9197
-35.4897
-34.089
-32.7175
-31.3744
-30.0587
-28.7694
-27.5051
-26.2643
-25.0451
-23.8455
-22.6627
-21.4942
-20.3368
-19.1853
-18.036
-16.8945
-15.729
-14.5121
-13.5033
-12.129
-9.79683
-13.823
-585.644
-609.147
-632.536
-655.635
-678.247
-700.223
-721.405
-741.673
-760.88
-778.895
-795.535
-810.607
-823.818
-834.859
-843.252
-848.5
-849.799
-846.437
-837.029
-820.805
-795.362
-760.591
-712.51
-654.142
-579.948
-502.289
-416.758
-357.946
-327.615
-411.369
-630.616
-1125.13
-2003.57
-2827.99
-3126.92
-3414.98
-3709.8
-83.8225
-85.6933
-87.2653
-88.5522
-89.568
-90.3271
-90.843
-91.1297
-91.2011
-91.0707
-90.752
-90.2578
-89.6025
-88.7975
-87.8542
-86.7867
-85.6051
-84.321
-82.9449
-81.4874
-79.9575
-78.365
-76.7185
-75.0266
-73.2969
-71.5364
-69.752
-67.9508
-66.1377
-64.3191
-62.4993
-60.6833
-58.8745
-57.0778
-55.296
-53.5321
-51.7886
-50.0683
-48.373
-46.7044
-45.0638
-43.4524
-41.871
-40.3204
-38.8007
-37.3122
-35.8546
-34.4277
-33.0309
-31.6633
-30.324
-29.0118
-27.7249
-26.4618
-25.2205
-23.9986
-22.7933
-21.6017
-20.4205
-19.2443
-18.0684
-16.8983
-15.7059
-14.4491
-13.3947
-12.0448
-9.51234
-13.6082
-585.975
-609.461
-632.834
-655.916
-678.511
-700.47
-721.637
-741.891
-761.085
-779.089
-795.72
-810.785
-823.992
-835.031
-843.424
-848.674
-849.977
-846.62
-837.217
-820.994
-795.543
-760.756
-712.635
-654.197
-579.868
-502.003
-416.159
-357.065
-326.501
-410.335
-629.878
-1124.73
-2003.13
-2827.16
-3126.74
-3414.59
-3707.85
-4013.44
-86.6257
-88.6172
-90.2996
-91.6872
-92.7931
-93.632
-94.2182
-94.5651
-94.6872
-94.5983
-94.3118
-93.8417
-93.201
-92.403
-91.4597
-90.3849
-89.1894
-87.885
-86.4822
-84.9923
-83.4255
-81.791
-80.0989
-78.3568
-76.5736
-74.7569
-72.9138
-71.0509
-69.1748
-67.2907
-65.4045
-63.5206
-61.6437
-59.7778
-57.9264
-56.0932
-54.2804
-52.491
-50.7271
-48.9905
-47.2829
-45.6054
-43.9589
-42.3445
-40.7624
-39.2128
-37.6957
-36.211
-34.758
-33.336
-31.9444
-30.5816
-29.2465
-27.9373
-26.6521
-25.3887
-24.1447
-22.917
-21.7024
-20.4975
-19.2967
-18.0942
-16.8954
-15.6763
-14.3806
-13.2758
-11.9595
-9.21705
-13.3733
-586.298
-609.769
-633.126
-656.193
-678.773
-700.718
-721.871
-742.111
-761.294
-779.288
-795.911
-810.971
-824.176
-835.214
-843.61
-848.864
-850.174
-846.825
-837.432
-821.215
-795.761
-760.959
-712.797
-654.283
-579.808
-501.703
-415.497
-356.044
-325.152
-409.005
-628.884
-1124.27
-2002.78
-2826.5
-3126.56
-3414.49
-3707.93
-4011.86
-4318.71
-89.5185
-91.6348
-93.4315
-94.9227
-96.1225
-97.0449
-97.7042
-98.1147
-98.2904
-98.2454
-97.994
-97.5496
-96.9264
-96.1369
-95.1951
-94.114
-92.9049
-91.5805
-90.152
-88.6302
-87.0258
-85.3493
-83.6105
-81.818
-79.9804
-78.1065
-76.2023
-74.2766
-72.3352
-70.3843
-68.4295
-66.4759
-64.5281
-62.5909
-60.6678
-58.7623
-56.8777
-55.0167
-53.1816
-51.3743
-49.5968
-47.8505
-46.1363
-44.4553
-42.808
-41.1946
-39.6155
-38.0702
-36.5584
-35.0796
-33.6329
-32.2173
-30.8314
-29.4736
-28.1421
-26.835
-25.5497
-24.2837
-23.0338
-21.7964
-20.5679
-19.3425
-18.1136
-16.886
-15.6404
-14.307
-13.1465
-11.8742
-8.91206
-13.1156
-586.612
-610.069
-633.413
-656.465
-679.031
-700.963
-722.105
-742.333
-761.507
-779.493
-796.11
-811.166
-824.369
-835.409
-843.809
-849.071
-850.391
-847.054
-837.674
-821.468
-796.017
-761.203
-713
-654.402
-579.76
-501.385
-414.761
-354.873
-323.553
-407.349
-627.599
-1123.68
-2002.48