/*--------------------------------*- C++ -*----------------------------------*\
  =========                 |
  \\      /  F ield         | OpenFOAM: The Open Source CFD Toolbox
   \\    /   O peration     | Website:  https://openfoam.org
    \\  /    A nd           | Version:  7
     \\/     M anipulation  |
\*---------------------------------------------------------------------------*/
FoamFile
{
    version     2.0;
    format      ascii;
    class       surfaceScalarField;
    location    "200";
    object      phi;
}
// * * * * * * * * * * * * * * * * * * * * * * * * * * * * * * * * * * * * * //

dimensions      [0 3 -1 0 0 0 0];

internalField   nonuniform List<scalar> 
45818
(
0.0756466
0.146598
0.0724755
0.140172
0.0757436
0.149921
0.0694359
0.134031
0.072566
0.14335
0.0758208
0.153236
0.0665261
0.12816
0.0695248
0.137072
0.0726381
0.146532
0.0758796
0.156544
0.0637289
0.122568
0.06661
0.131075
0.0696004
0.14011
0.0727088
0.149703
0.0759286
0.159848
0.0610564
0.117192
0.0638298
0.125348
0.0666891
0.133986
0.0696746
0.143144
0.0727661
0.152866
0.0759627
0.163148
0.0584997
0.112065
0.0611658
0.119856
0.0639124
0.128125
0.0667667
0.136894
0.0697304
0.14618
0.0727987
0.15603
0.0759735
0.166459
0.0560525
0.107181
0.0585892
0.114641
0.0612284
0.12254
0.0639751
0.130917
0.0668077
0.139817
0.069758
0.149221
0.0728179
0.159185
0.0759695
0.169753
0.0537053
0.102509
0.0561429
0.109627
0.0586739
0.117196
0.0613046
0.125211
0.0640295
0.133695
0.0668621
0.142713
0.0697941
0.152245
0.0728173
0.162337
0.0759556
0.173043
0.0514566
0.0980408
0.0537974
0.104854
0.0562293
0.112072
0.0587536
0.119747
0.0613709
0.127869
0.0640774
0.136479
0.0668966
0.14561
0.0697885
0.155273
0.0727935
0.165499
0.0759268
0.176312
0.0493068
0.0937746
0.0515496
0.100289
0.0538797
0.107204
0.0562981
0.114527
0.05881
0.122308
0.061414
0.130533
0.0641071
0.139269
0.0668946
0.148504
0.0697949
0.158272
0.0727915
0.168635
0.0758615
0.179581
0.047246
0.0897001
0.049393
0.0959312
0.0516349
0.102533
0.0539566
0.109545
0.0563644
0.116973
0.0588615
0.12486
0.0614521
0.133188
0.0641319
0.142032
0.066901
0.151398
0.0697562
0.161307
0.0727245
0.171772
0.0757896
0.182846
0.0452664
0.0858087
0.0473339
0.0917592
0.0494815
0.0980847
0.0517051
0.104785
0.054016
0.111894
0.056414
0.11942
0.0588982
0.127414
0.061457
0.135863
0.0641234
0.144809
0.0668791
0.154275
0.0697294
0.164302
0.0726661
0.174895
0.0756946
0.18609
0.0433808
0.0820825
0.0453575
0.0877852
0.0474156
0.0938251
0.0495511
0.100239
0.0517703
0.107031
0.0540679
0.11424
0.0564502
0.121868
0.0589165
0.129954
0.0614803
0.138506
0.0641234
0.147565
0.0668608
0.157143
0.0696744
0.167294
0.0725794
0.17801
0.0755797
0.189338
0.0415641
0.0785342
0.0434636
0.0839764
0.0454423
0.0897585
0.0474883
0.0958878
0.0496194
0.10239
0.0518253
0.109273
0.0541171
0.116573
0.0564834
0.124301
0.0589434
0.132491
0.0614705
0.141159
0.0640952
0.150331
0.0667959
0.160022
0.0695962
0.170277
0.0724863
0.181104
0.0754499
0.192565
0.0398327
0.0751321
0.0416537
0.0803441
0.0435452
0.0858735
0.0455118
0.091735
0.0475584
0.0979488
0.0496725
0.104542
0.0518627
0.111528
0.0541412
0.118915
0.0564967
0.126748
0.0589236
0.135038
0.0614508
0.143803
0.0640438
0.153083
0.0667311
0.162887
0.0695031
0.17326
0.0723516
0.184202
0.075297
0.195779
0.038169
0.071894
0.0399128
0.0768731
0.0417321
0.0821572
0.0436242
0.0877611
0.0455801
0.0937134
0.047606
0.100015
0.0497158
0.106689
0.0519038
0.113765
0.054159
0.121253
0.0565012
0.129171
0.0589309
0.137558
0.0614212
0.146426
0.0640008
0.155813
0.0666549
0.165735
0.0693902
0.176222
0.072212
0.187287
0.0751326
0.198966
0.0365743
0.0687946
0.0382508
0.073556
0.0399965
0.0786086
0.0418078
0.0839735
0.0436842
0.0896569
0.0456358
0.0956837
0.0476624
0.102069
0.0497537
0.108839
0.0519248
0.115999
0.0541679
0.123586
0.0564854
0.131616
0.0588779
0.140101
0.0613634
0.149063
0.0639197
0.158548
0.0665605
0.168565
0.0692725
0.179161
0.0720561
0.190364
0.0749133
0.202158
0.0350513
0.0658274
0.0366579
0.0703876
0.0383314
0.0752211
0.0400641
0.0803523
0.0418697
0.0857881
0.0437417
0.0915509
0.0456803
0.0976658
0.0476935
0.104129
0.0497791
0.110985
0.0519332
0.118234
0.0541643
0.125907
0.0564684
0.134026
0.058847
0.142618
0.0612873
0.151696
0.0638337
0.161275
0.0664328
0.171405
0.0691166
0.182101
0.0718819
0.193395
0.0747059
0.205318
0.0335924
0.0630026
0.0351289
0.0673564
0.0367352
0.0719837
0.0383993
0.0768859
0.040134
0.082088
0.0419253
0.0876046
0.043788
0.0934432
0.0457244
0.0996349
0.0477197
0.106188
0.049792
0.113126
0.051929
0.120469
0.0541467
0.128229
0.0564325
0.13644
0.0587928
0.145112
0.0612232
0.154306
0.0637145
0.163993
0.0662953
0.174226
0.0689424
0.18504
0.0716695
0.196432
0.0744654
0.208465
0.0321889
0.0603
0.0336654
0.0644661
0.0352067
0.0688849
0.0368086
0.0735745
0.0384647
0.0785553
0.0401864
0.0838268
0.0419796
0.0894129
0.0438316
0.095336
0.0457488
0.101606
0.0477407
0.10824
0.0497936
0.115261
0.0519223
0.122694
0.0541117
0.13055
0.0563778
0.138855
0.0587104
0.147625
0.0611225
0.156898
0.0635905
0.166698
0.066138
0.17703
0.0687653
0.187945
0.0714424
0.199455
0.0742001
0.211598
0.0308493
0.0577158
0.0322623
0.0617031
0.0337436
0.0659292
0.0352719
0.0704216
0.0368657
0.0751735
0.0385252
0.0802165
0.0402412
0.0855652
0.0420201
0.0912245
0.0438627
0.0972221
0.0457729
0.103574
0.0477441
0.110289
0.049785
0.117399
0.0518917
0.124914
0.0540728
0.132855
0.0563106
0.141255
0.0586275
0.15012
0.0610019
0.159487
0.0634601
0.169376
0.0659709
0.179825
0.0685431
0.190844
0.071187
0.202468
0.0738982
0.214714
0.0295627
0.0552509
0.0309197
0.0590584
0.0323409
0.0631058
0.0338092
0.0673919
0.0353394
0.0719479
0.0369252
0.0767734
0.0385704
0.0818873
0.0402798
0.0873056
0.0420479
0.0930393
0.0438813
0.0991136
0.0457807
0.105537
0.0477413
0.112333
0.0497639
0.119527
0.0518586
0.127128
0.05401
0.135155
0.0562345
0.143648
0.0585168
0.152605
0.06088
0.162067
0.063293
0.172054
0.065779
0.182589
0.0683279
0.193703
0.0709336
0.205432
0.0735983
0.217797
0.0283319
0.0528934
0.0296325
0.056538
0.0309923
0.060407
0.0324055
0.0645094
0.0338721
0.0688592
0.0353957
0.0734775
0.0369785
0.0783653
0.038622
0.083545
0.0403193
0.0890342
0.0420782
0.0948424
0.0438959
0.100998
0.0457761
0.107502
0.0477196
0.114377
0.0497352
0.12165
0.0518029
0.129335
0.053936
0.137454
0.0561409
0.146024
0.0584008
0.155085
0.0607129
0.164647
0.0631011
0.174732
0.0655555
0.185361
0.0680613
0.196575
0.0706204
0.20841
0.0732469
0.220863
0.0271511
0.0506403
0.0284013
0.0541246
0.0297106
0.0578198
0.0310637
0.0617488
0.0324653
0.0659162
0.0339302
0.0703247
0.0354508
0.0750053
0.0370206
0.0799667
0.038647
0.0852173
0.0403378
0.0907746
0.0420873
0.096651
0.0439007
0.102874
0.0457674
0.109454
0.0477004
0.116412
0.0496854
0.123767
0.0517371
0.131534
0.0538532
0.139741
0.0560221
0.148403
0.0582601
0.157537
0.060553
0.167195
0.0629179
0.177369
0.0653206
0.188102
0.0677848
0.199411
0.0703241
0.211333
0.0728941
0.223896
0.0260222
0.0484871
0.0272221
0.0518196
0.028473
0.0553622
0.0297696
0.0591139
0.0311211
0.0630929
0.0325274
0.0673191
0.0339793
0.0717962
0.0354918
0.076534
0.0370587
0.081555
0.0386835
0.0868715
0.0403586
0.0925033
0.0420988
0.0984529
0.0438902
0.104751
0.0457427
0.111412
0.0476523
0.118445
0.0496289
0.125876
0.05166
0.133727
0.0537515
0.142012
0.0558971
0.150766
0.0581028
0.159987
0.0603832
0.16973
0.0626831
0.180007
0.0650576
0.190829
0.0674835
0.202251
0.069953
0.214274
0.0724849
0.22693
0.0249384
0.0464317
0.0260898
0.0496194
0.0272877
0.0530048
0.0285324
0.0565994
0.0298288
0.0604062
0.031175
0.0644453
0.0325718
0.0687265
0.0340271
0.0732609
0.0355267
0.078066
0.0370856
0.0831529
0.0386961
0.088534
0.0403668
0.0942353
0.0420864
0.100257
0.0438735
0.10662
0.045714
0.11335
0.0476079
0.120466
0.0495577
0.127978
0.0515691
0.135909
0.0536323
0.144277
0.055757
0.153111
0.0579331
0.162438
0.0601618
0.172251
0.0624518
0.182613
0.0647881
0.193524
0.0671675
0.205037
0.0695988
0.21716
0.0720791
0.229917
0.0239023
0.0444662
0.0250059
0.0475156
0.026156
0.0507511
0.0273493
0.0541879
0.0285956
0.0578326
0.0298854
0.0616958
0.0312285
0.0657886
0.0326201
0.0701335
0.0340624
0.0747253
0.0355604
0.0795913
0.0371049
0.0847441
0.0387125
0.0901883
0.0403689
0.0959529
0.0420778
0.102052
0.0438429
0.108491
0.0456641
0.115294
0.0475411
0.122483
0.0494712
0.130076
0.0514557
0.138086
0.0534943
0.146539
0.0555894
0.155455
0.0577395
0.16486
0.0599306
0.174772
0.0621825
0.185218
0.0644722
0.19622
0.0668268
0.207809
0.0692065
0.220033
0.0716338
0.232878
0.0229083
0.0425888
0.0239661
0.045506
0.0250688
0.0486028
0.0262151
0.0518854
0.0274144
0.0553692
0.0286476
0.0590704
0.0299371
0.0629873
0.0312735
0.0671352
0.0326635
0.0715324
0.0340928
0.0761928
0.03558
0.0811162
0.037123
0.0863335
0.0387099
0.0918473
0.040352
0.0976786
0.0420516
0.103844
0.0438011
0.110355
0.045604
0.117231
0.0474591
0.124495
0.0493736
0.132158
0.0513335
0.140247
0.0533475
0.148781
0.0554142
0.15778
0.0575236
0.167267
0.0596931
0.177262
0.0618899
0.187801
0.0641548
0.198892
0.0664445
0.210571
0.0687944
0.222872
0.0711519
0.235823
0.0219562
0.0407945
0.0229711
0.0435837
0.024029
0.0465459
0.0251293
0.0496885
0.0262758
0.0530239
0.027459
0.0565578
0.0287033
0.0603041
0.0299847
0.0642761
0.031311
0.0684877
0.0326865
0.0729387
0.0341178
0.077655
0.0355949
0.0826443
0.0371271
0.0879163
0.0387061
0.0934933
0.0403375
0.0993928
0.0420165
0.105628
0.0437517
0.112207
0.0455341
0.119156
0.0473708
0.126498
0.0492571
0.134234
0.0511937
0.142401
0.0531845
0.151011
0.0552153
0.160089
0.0572987
0.169661
0.059423
0.179728
0.0615994
0.190356
0.0638044
0.201532
0.0660459
0.213319
0.068326
0.225698
0.0706538
0.238727
0.0210435
0.0390797
0.0220176
0.041748
0.0230317
0.044581
0.0240876
0.0475875
0.0251857
0.0507787
0.0263273
0.0541556
0.0275137
0.0577474
0.0287414
0.0615474
0.0300175
0.0655695
0.0313458
0.0698285
0.0327197
0.0743368
0.0341394
0.0791105
0.0356071
0.0841644
0.0371201
0.0895023
0.0386847
0.0951461
0.0403033
0.101106
0.0419716
0.107408
0.0436835
0.114057
0.0454539
0.121073
0.0472701
0.128485
0.0491281
0.1363
0.0510415
0.144544
0.0529977
0.153229
0.0550026
0.162385
0.0570501
0.172034
0.0591326
0.182195
0.0612674
0.192893
0.0634292
0.204149
0.0656376
0.216008
0.0678645
0.228487
0.0701125
0.241613
-2.53929e-06
5.28352e-05
0.0201693
0.0374426
0.0211022
0.0399951
0.0220763
0.0427033
0.0230885
0.0455802
0.0241431
0.0486301
0.0252397
0.0518662
0.0263747
0.0552947
0.0275572
0.0589316
0.0287832
0.0627817
0.0300577
0.0668576
0.0313729
0.0711753
0.0327303
0.0757459
0.034142
0.0805756
0.0356004
0.0856841
0.0371068
0.0910802
0.0386608
0.0967886
0.0402623
0.102815
0.0419115
0.10918
0.0436091
0.115902
0.0453526
0.122991
0.0471455
0.130467
0.0489902
0.138351
0.0508704
0.146671
0.0527957
0.155436
0.0547674
0.164667
0.0567791
0.174388
0.0588293
0.184633
0.0609156
0.195406
0.0630343
0.206752
0.0651812
0.218691
0.0673567
0.231243
0.069565
0.244438
-5.25378e-06
5.90684e-05
-2.42065e-06
5.52558e-05
0.0193315
0.0358749
0.0202281
0.0383167
0.021161
0.0409105
0.0221303
0.0436615
0.0231424
0.0465808
0.0241942
0.0496757
0.0252826
0.0529583
0.0264186
0.0564333
0.0275995
0.0601154
0.0288188
0.0640206
0.0300803
0.0681502
0.0313903
0.0725153
0.0327496
0.0771383
0.0341484
0.0820276
0.0355938
0.087197
0.0370846
0.0926563
0.0386243
0.0984266
0.0402129
0.104514
0.0418451
0.110944
0.0435208
0.117734
0.0452474
0.124889
0.0470134
0.132444
0.0488249
0.140397
0.0506805
0.148786
0.0525789
0.157624
0.0545135
0.166933
0.0564843
0.176733
0.0584973
0.187052
0.0605308
0.19791
0.0626113
0.209322
0.06471
0.221338
0.0668275
0.233981
0.068961
0.247254
-8.18896e-06
6.3029e-05
-5.02778e-06
6.16754e-05
-2.25795e-06
5.75137e-05
0.0185297
0.03438
0.019387
0.0367159
0.0202831
0.0391946
0.0212145
0.0418263
0.0221849
0.0446191
0.0231937
0.0475814
0.024241
0.0507172
0.0253291
0.0540478
0.0264599
0.0575729
0.0276341
0.0613001
0.0288468
0.0652541
0.030103
0.0694375
0.031405
0.0738599
0.0327478
0.0785389
0.0341358
0.0834856
0.0355733
0.0887083
0.0370512
0.0942295
0.038578
0.100062
0.0401446
0.106214
0.0417612
0.112704
0.04342
0.119561
0.045121
0.126781
0.0468638
0.134405
0.0486484
0.142429
0.0504795
0.150885
0.052342
0.159796
0.0542421
0.169175
0.056177
0.179053
0.0581416
0.189441
0.0601346
0.200387
0.0621536
0.211878
0.0641959
0.223969
0.0662569
0.236685
0.0683324
0.250037
-1.12752e-05
6.59448e-05
-7.80443e-06
6.58056e-05
-4.7122e-06
6.41297e-05
-2.13423e-06
5.96479e-05
0.0177603
0.0329505
0.0185834
0.0351836
0.0194417
0.0375573
0.0203353
0.0400738
0.0212663
0.0427449
0.0222346
0.0455781
0.0232401
0.0485823
0.0242866
0.0517597
0.0253708
0.0551368
0.0264985
0.0587085
0.027656
0.0624909
0.0288685
0.0664886
0.0301181
0.0707244
0.0314071
0.0752006
0.0327455
0.0799292
0.0341248
0.0849341
0.0355466
0.0902128
0.0370152
0.0957923
0.03852
0.101686
0.0400724
0.107903
0.0416635
0.11446
0.0433031
0.121379
0.0449808
0.128664
0.0467004
0.136353
0.0484568
0.144452
0.0502497
0.152978
0.0520814
0.161956
0.0539469
0.171405
0.0558447
0.18135
0.0577697
0.191806
0.0597223
0.202818
0.0616862
0.214388
0.0636754
0.226551
0.0656833
0.239334
0.0676875
0.252777
-1.45309e-05
6.84494e-05
-1.07568e-05
6.88971e-05
-7.36112e-06
6.84545e-05
-4.39123e-06
6.63867e-05
-1.92154e-06
6.15694e-05
0.0170233
0.031583
0.0178137
0.0337202
0.0186362
0.0359891
0.0194936
0.0383991
0.0203867
0.0409534
0.0213157
0.0436638
0.0222807
0.0465375
0.0232833
0.0495856
0.0243196
0.052811
0.0254071
0.0562283
0.0265208
0.0598437
0.0276845
0.0636748
0.028884
0.0677228
0.0301256
0.0720059
0.031408
0.0765381
0.0327348
0.0813192
0.0341034
0.0863773
0.0355087
0.0917193
0.0369566
0.0973556
0.0384536
0.103305
0.0399854
0.109581
0.0415609
0.116203
0.0431772
0.123183
0.0448281
0.130537
0.0465208
0.138289
0.0482527
0.146449
0.0500124
0.155047
0.0518109
0.164092
0.0536343
0.173616
0.0554863
0.183633
0.0573629
0.194165
0.0592666
0.205237
0.0611891
0.216874
0.0631119
0.229122
0.0650485
0.241973
0.0669996
0.255472
-1.79246e-05
7.07351e-05
-1.3846e-05
7.15387e-05
-1.0109e-05
7.1645e-05
-6.82754e-06
7.08908e-05
-4.00993e-06
6.84751e-05
-1.75168e-06
6.33211e-05
0.0163178
0.0302765
0.0170745
0.0323222
0.0178643
0.0344921
0.0186863
0.0367964
0.0195441
0.0392417
0.0204328
0.0418363
0.0213594
0.0445851
0.022322
0.0474988
0.0233217
0.0505835
0.0243641
0.053854
0.0254313
0.0573178
0.0265484
0.0609798
0.027704
0.0648548
0.0288932
0.0689551
0.0301268
0.0732871
0.0314026
0.0778703
0.0327102
0.0827124
0.0340658
0.0878202
0.0354618
0.0932141
0.0368969
0.0989123
0.0383732
0.104917
0.0398881
0.111254
0.0414431
0.117937
0.0430339
0.124977
0.0446629
0.132394
0.0463288
0.140213
0.0480211
0.14844
0.0497563
0.157101
0.051509
0.166218
0.0532966
0.175805
0.0551128
0.185884
0.0569423
0.19649
0.0587876
0.207639
0.0606406
0.219346
0.0625288
0.231642
0.0643989
0.244574
0.0662738
0.258128
-2.1446e-05
7.28729e-05
-1.70597e-05
7.39487e-05
-1.29998e-05
7.44295e-05
-9.38777e-06
7.42052e-05
-6.21696e-06
7.30979e-05
-3.66074e-06
7.03842e-05
-1.56472e-06
6.48858e-05
0.0156403
0.0290285
0.0163672
0.0309837
0.0171248
0.0330617
0.0179115
0.0352669
0.0187345
0.0376059
0.0195884
0.0400861
0.0204786
0.0427171
0.0214027
0.0455044
0.022363
0.0484575
0.0233588
0.0515887
0.0243895
0.0548958
0.0254614
0.0584048
0.0265668
0.062117
0.0277122
0.0660357
0.0288934
0.0701885
0.0301168
0.0745729
0.0313797
0.0792008
0.0326857
0.0840925
0.0340256
0.0892564
0.0354038
0.0947072
0.0368232
0.100462
0.0382803
0.106525
0.0397761
0.112921
0.0413104
0.11966
0.042873
0.126767
0.0444738
0.134249
0.0461115
0.142123
0.0477771
0.150419
0.0494728
0.159138
0.0511997
0.168315
0.0529442
0.177974
0.0547083
0.188118
0.0564907
0.198786
0.0582939
0.209986
0.0600992
0.221775
0.0619076
0.234133
0.0637148
0.247133
0.0655083
0.260756
-2.50867e-05
7.49085e-05
-2.03878e-05
7.6201e-05
-1.59796e-05
7.69285e-05
-1.20339e-05
7.70757e-05
-8.57696e-06
7.65652e-05
-5.64854e-06
7.50857e-05
-3.2246e-06
7.20441e-05
-1.35481e-06
6.62406e-05
0.0149926
0.027834
0.0156889
0.0297069
0.0164137
0.0316948
0.0171707
0.0338025
0.0179595
0.0360419
0.018779
0.0384153
0.0196328
0.0409318
0.0205191
0.0436008
0.0214414
0.046426
0.0223942
0.0494221
0.0233883
0.0525899
0.0244136
0.0559435
0.0254753
0.0594964
0.0265769
0.0632524
0.0277142
0.0672149
0.0288938
0.0714115
0.0301106
0.0758419
0.0313592
0.0805273
0.0326458
0.0854723
0.0339707
0.0906895
0.0353382
0.0961922
0.0367434
0.101999
0.0381799
0.108121
0.0396515
0.11458
0.0411576
0.121376
0.0427047
0.128536
0.0442787
0.136082
0.0458832
0.144016
0.0475192
0.152373
0.0491755
0.161162
0.0508593
0.170399
0.0525667
0.180115
0.0542837
0.190325
0.0560204
0.20106
0.0577589
0.212326
0.0595135
0.224169
0.0612519
0.236596
0.0630011
0.24964
0.0647366
0.263332
-2.88202e-05
7.68306e-05
-2.38032e-05
7.83239e-05
-1.90808e-05
7.93022e-05
-1.48179e-05
7.97125e-05
-1.10064e-05
7.95051e-05
-7.73121e-06
7.86479e-05
-4.99699e-06
7.68581e-05
-2.83014e-06
7.35195e-05
-1.20017e-06
6.74408e-05
0.014371
0.0266946
0.0150375
0.0284854
0.0157347
0.0303859
0.0164604
0.0324051
0.0172159
0.0345461
0.0180041
0.0368169
0.0188221
0.039226
0.019674
0.041777
0.0205563
0.0444859
0.0214752
0.047345
0.0224291
0.0503812
0.0234129
0.0535906
0.0244329
0.0569859
0.0254929
0.0605803
0.0265865
0.0643802
0.0277136
0.0683951
0.028883
0.0726392
0.0300804
0.0771207
0.0313224
0.0818507
0.0325975
0.0868455
0.0339117
0.092116
0.03526
0.0976756
0.0366409
0.103538
0.0380619
0.109711
0.0395166
0.116221
0.0409986
0.123082
0.0425188
0.130296
0.044066
0.137899
0.0456374
0.145898
0.0472353
0.154313
0.0488572
0.163164
0.0505002
0.172466
0.0521605
0.182239
0.0538331
0.192512
0.05552
0.203299
0.0572079
0.214632
0.0588938
0.226527
0.0605848
0.239012
0.0622444
0.252132
0.0638987
0.26587
-3.26744e-05
7.86741e-05
-2.73367e-05
8.03641e-05
-2.22745e-05
8.15176e-05
-1.76464e-05
8.21307e-05
-1.34955e-05
8.22015e-05
-9.91479e-06
8.16887e-05
-6.86878e-06
8.05197e-05
-4.41736e-06
7.84454e-05
-2.44864e-06
7.47681e-05
-9.67437e-07
6.84083e-05
0.0137752
0.0256041
0.0144151
0.0273171
0.0150836
0.0291365
0.0157796
0.0310668
0.0165048
0.0331162
0.0172607
0.0352895
0.0180454
0.0375935
0.0188624
0.0400376
0.0197098
0.0426234
0.0205933
0.0453678
0.0215042
0.04827
0.0224514
0.0513427
0.0234298
0.0545938
0.024451
0.0580278
0.0254993
0.0616675
0.0265826
0.0655112
0.0277067
0.0695714
0.0288581
0.0738615
0.030054
0.0783891
0.031278
0.0831702
0.0325439
0.0882133
0.0338402
0.0935357
0.0351706
0.099146
0.0365374
0.105063
0.0379328
0.111295
0.0393633
0.117856
0.0408271
0.124773
0.0423105
0.132051
0.0438309
0.139706
0.0453728
0.147761
0.0469376
0.156232
0.048525
0.165139
0.0501237
0.174503
0.0517396
0.184332
0.0533638
0.194668
0.0549901
0.205517
0.0566232
0.216902
0.0582495
0.228863
0.0598616
0.241395
0.0614582
0.254573
0.0630445
0.268361
-3.66053e-05
8.03962e-05
-3.09436e-05
8.2281e-05
-2.55551e-05
8.36447e-05
-2.05755e-05
8.44468e-05
-1.60792e-05
8.47144e-05
-1.21666e-05
8.44534e-05
-8.80679e-06
8.36268e-05
-6.05691e-06
8.21593e-05
-3.82646e-06
7.98232e-05
-2.06046e-06
7.58612e-05
-7.93481e-07
6.92018e-05
0.0132039
0.0245622
0.0138181
0.0262011
0.0144589
0.0279417
0.0151257
0.0297904
0.0158222
0.0317494
0.0165463
0.0338305
0.0173002
0.0360347
0.0180844
0.0383716
0.0188989
0.0408485
0.0197439
0.0434728
0.0206199
0.0462522
0.0215305
0.0491909
0.0224723
0.0523002
0.0234519
0.0555929
0.024455
0.0590721
0.0255044
0.0627456
0.0265811
0.0666368
0.02769
0.0707394
0.0288384
0.0750771
0.0300164
0.0796507
0.0312339
0.0844802
0.0324754
0.089578
0.0337589
0.0949475
0.0350737
0.10061
0.0364149
0.106581
0.0377912
0.112867
0.0391984
0.119485
0.0406331
0.126451
0.0420947
0.133787
0.0435806
0.141498
0.0450857
0.149613
0.0466175
0.15814
0.0481605
0.167102
0.0497234
0.176519
0.0512873
0.186409
0.0528658
0.196792
0.0544401
0.2077
0.0560099
0.219142
0.0575742
0.23115
0.059119
0.243734
0.0606607
0.256956
0.0621475
0.270818
-4.06395e-05
8.20408e-05
-3.46532e-05
8.41058e-05
-2.89153e-05
8.56411e-05
-2.35581e-05
8.66273e-05
-1.87083e-05
8.70759e-05
-1.44792e-05
8.7027e-05
-1.07782e-05
8.64248e-05
-7.72836e-06
8.52982e-05
-5.21553e-06
8.35484e-05
-3.17653e-06
8.09394e-05
-1.63403e-06
7.67018e-05
-5.95129e-07
6.9797e-05
0.012658
0.0235646
0.0132466
0.0251337
0.0138602
0.0267998
0.0144998
0.0285676
0.0151681
0.0304445
0.0158635
0.0324322
0.0165871
0.0345437
0.0173384
0.0367806
0.0181206
0.0391499
0.0189326
0.0416598
0.0197762
0.0443165
0.0206488
0.0471338
0.021554
0.0501092
0.022492
0.0532601
0.0234599
0.056588
0.0244641
0.0601125
0.0254969
0.0638298
0.026567
0.0677598
0.0276679
0.07191
0.0288011
0.0762923
0.0299675
0.0809171
0.0311643
0.0857913
0.0323994
0.0909375
0.0336622
0.0963589
0.0349592
0.102065
0.0362862
0.108086
0.037642
0.114423
0.0390201
0.121098
0.0404316
0.128114
0.0418601
0.135508
0.0433105
0.143273
0.0447876
0.151443
0.0462786
0.160022
0.0477822
0.169043
0.0492958
0.17851
0.050814
0.18846
0.0523369
0.198896
0.0538615
0.209848
0.0553744
0.221342
0.0568704
0.233399
0.0583496
0.246045
0.0597971
0.259307
0.061211
0.273224
-4.4751e-05
8.35787e-05
-3.84403e-05
8.58279e-05
-3.233e-05
8.75205e-05
-2.6629e-05
8.87121e-05
-2.14201e-05
8.93391e-05
-1.68464e-05
8.9443e-05
-1.27997e-05
8.90485e-05
-9.47057e-06
8.81671e-05
-6.67634e-06
8.67591e-05
-4.36995e-06
8.47418e-05
-2.56368e-06
8.18691e-05
-1.2525e-06
7.73592e-05
-3.89484e-07
7.01865e-05
0.0121341
0.0226124
0.012697
0.0241142
0.0132865
0.0257075
0.0139009
0.0273987
0.014541
0.0291947
0.0152076
0.0311003
0.0159014
0.0331179
0.0166235
0.0352586
0.0173753
0.037526
0.0181544
0.0399281
0.0189655
0.0424704
0.0198006
0.0451647
0.0206743
0.0480136
0.0215692
0.051032
0.0225004
0.0542196
0.0234644
0.0575877
0.024457
0.0611524
0.0254832
0.0649137
0.0265416
0.0688861
0.0276323
0.0730788
0.0287562
0.0775036
0.0299097
0.0821718
0.0311014
0.0870894
0.0323172
0.0922825
0.0335621
0.097756
0.0348371
0.103514
0.03614
0.109588
0.0374703
0.115973
0.0388316
0.122698
0.0402076
0.129766
0.0416107
0.137208
0.0430317
0.145029
0.0444707
0.153251
0.0459186
0.161885
0.0473829
0.170956
0.0488495
0.180475
0.0503247
0.190473
0.0517929
0.200964
0.0532533
0.211969
0.0546979
0.223514
0.056133
0.235615
0.0575363
0.248306
0.0589172
0.261601
0.060245
0.275568
-4.89294e-05
8.49818e-05
-4.22794e-05
8.74179e-05
-3.58316e-05
8.93295e-05
-2.97618e-05
9.06533e-05
-2.41676e-05
9.14596e-05
-1.92638e-05
9.17565e-05
-1.49112e-05
9.15546e-05
-1.1277e-05
9.08549e-05
-8.17656e-06
8.96673e-05
-5.60494e-06
8.79941e-05
-3.54182e-06
8.572e-05
-1.97014e-06
8.25868e-05
-8.34285e-07
7.78041e-05
-1.34932e-07
7.03215e-05
0.011631
0.021702
0.0121724
0.0231371
0.0127367
0.024664
0.013325
0.0262834
0.0139393
0.0280004
0.0145792
0.0298231
0.0152468
0.031755
0.0159385
0.0338028
0.0166595
0.0359744
0.0174063
0.038274
0.0181835
0.0407101
0.0189866
0.0432844
0.0198259
0.0460131
0.0206842
0.0488986
0.0215867
0.0519457
0.022509
0.055175
0.0234663
0.0585783
0.0244536
0.062182
0.0254682
0.0659871
0.0265214
0.069997
0.0275991
0.0742358
0.0287064
0.0787068
0.029852
0.0834211
0.0310194
0.0883871
0.032216
0.0936287
0.0334467
0.0991464
0.0347003
0.104954
0.0359863
0.111072
0.0372924
0.117512
0.0386169
0.124288
0.0399661
0.131411
0.0413411
0.138898
0.0427267
0.146773
0.0441263
0.155043
0.0455399
0.163728
0.0469549
0.172851
0.0483785
0.182421
0.049799
0.192467
0.0512144
0.203003
0.0526152
0.214052
0.0540015
0.225645
0.0553647
0.237787
0.0566949
0.250529
0.0579803
0.263865
0.0592445
0.277868
-5.31402e-05
8.62779e-05
-4.61969e-05
8.88992e-05
-3.93749e-05
9.09612e-05
-3.29329e-05
9.25006e-05
-2.70075e-05
9.34932e-05
-2.17264e-05
9.39221e-05
-1.70176e-05
9.38629e-05
-1.30494e-05
9.33271e-05
-9.68643e-06
9.23648e-05
-6.84913e-06
9.09115e-05
-4.55772e-06
8.901e-05
-2.73424e-06
8.64841e-05
-1.31139e-06
8.30639e-05
-3.4997e-07
7.80192e-05
8.85021e-08
7.0233e-05
0.0111509
0.0208299
0.0116681
0.0222062
0.0122088
0.0236649
0.012775
0.0252139
0.0133641
0.0268586
0.0139779
0.0286017
0.0146167
0.0304532
0.0152801
0.0324134
0.0159733
0.034489
0.0166913
0.0366894
0.0174375
0.03902
0.0182108
0.041486
0.019011
0.0440993
0.0198427
0.0468545
0.0207072
0.0497781
0.0215914
0.0528633
0.0225099
0.0561314
0.0234569
0.059575
0.0244376
0.0632125
0.0254469
0.0670616
0.0264821
0.071114
0.0275483
0.075394
0.0286491
0.0799097
0.0297717
0.0846688
0.0309249
0.0896782
0.032115
0.0949604
0.0333215
0.100525
0.0345532
0.106387
0.0358114
0.112553
0.0370907
0.119038
0.0383947
0.12586
0.0397172
0.133035
0.0410567
0.140568
0.0424066
0.148493
0.0437696
0.156813
0.0451352
0.165548
0.0465094
0.17472
0.0478824
0.184338
0.0492488
0.194432
0.0506058
0.205012
0.0519497
0.216104
0.0532729
0.227737
0.0545566
0.239925
0.0558173
0.252692
0.0570312
0.266079
0.0581962
0.280097
-5.74233e-05
8.74527e-05
-5.01605e-05
9.02415e-05
-4.29903e-05
9.25146e-05
-3.61928e-05
9.42211e-05
-2.98535e-05
9.53467e-05
-2.42095e-05
9.59763e-05
-1.91818e-05
9.60864e-05
-1.49219e-05
9.57354e-05
-1.12716e-05
9.49123e-05
-8.1457e-06
9.36614e-05
-5.60345e-06
9.19573e-05
-3.50929e-06
8.97851e-05
-1.8605e-06
8.70333e-05
-6.24528e-07
8.33385e-05
1.1199e-07
7.79958e-05
4.32327e-07
6.98007e-05
0.0106887
0.0199973
0.0111849
0.0213131
0.0117039
0.0227111
0.0122465
0.0241935
0.0128104
0.0257677
0.0134
0.0274365
0.0140136
0.0292048
0.0146518
0.0310816
0.0153162
0.0330705
0.0160043
0.035176
0.0167197
0.0374073
0.017463
0.0397678
0.0182317
0.0422652
0.0190305
0.0449115
0.0198569
0.0477048
0.0207059
0.0506636
0.0215928
0.0537804
0.0225031
0.0570852
0.0234449
0.0605677
0.0244153
0.0642441
0.025413
0.0681307
0.0264366
0.0722257
0.0274963
0.0765468
0.0285791
0.0811023
0.0296888
0.0859049
0.0308305
0.0909627
0.03199
0.096292
0.0331774
0.101901
0.0343913
0.107807
0.035629
0.114014
0.0368814
0.120552
0.0381564
0.127421
0.0394471
0.134644
0.0407473
0.142228
0.0420668
0.150196
0.0433854
0.158563
0.0447167
0.167341
0.046043
0.176559
0.0473641
0.186222
0.0486798
0.196358
0.04998
0.206982
0.0512534
0.218123
0.0525085
0.229785
0.053729
0.242013
0.0549052
0.254818
0.0560333
0.268242
0.0570844
0.282281
-6.17271e-05
8.8494e-05
-5.41731e-05
9.14653e-05
-4.66513e-05
9.39025e-05
-3.94608e-05
9.57826e-05
-3.2742e-05
9.71096e-05
-2.67498e-05
9.7887e-05
-2.13564e-05
9.81509e-05
-1.67765e-05
9.7941e-05
-1.28114e-05
9.72752e-05
-9.4652e-06
9.62318e-05
-6.67346e-06
9.47314e-05
-4.363e-06
9.2811e-05
-2.44618e-06
9.03708e-05
-9.49206e-07
8.7358e-05
7.8715e-08
8.33718e-05
7.50142e-07
7.7678e-05
8.07636e-07
6.89931e-05
0.0102454
0.0192015
0.0107215
0.0204607
0.0112194
0.0217976
0.0117393
0.0232182
0.0122812
0.0247227
0.012846
0.0263216
0.0134354
0.0280146
0.0140464
0.0298102
0.014684
0.0317137
0.0153458
0.033729
0.0160329
0.0358628
0.0167478
0.0381225
0.0174876
0.0405119
0.0182554
0.0430404
0.0190487
0.0457197
0.0198662
0.0485446
0.0207149
0.0515415
0.02159
0.0546936
0.0224965
0.0580336
0.023428
0.061555
0.0243868
0.0652703
0.0253729
0.0691944
0.0263899
0.073332
0.027433
0.0776929
0.0285029
0.0822883
0.0296012
0.0871342
0.0307136
0.0922391
0.0318602
0.0976091
0.0330334
0.103259
0.0342218
0.109215
0.0354277
0.115468
0.036656
0.122052
0.0379043
0.128964
0.0391582
0.136233
0.0404267
0.143868
0.0417032
0.151878
0.0429888
0.160291
0.0442708
0.169113
0.0455466
0.178377
0.0468197
0.188083
0.0480786
0.19826
0.0493133
0.208922
0.0505336
0.220098
0.0517155
0.231799
0.0528616
0.244057
0.0539596
0.256891
0.0550034
0.270323
0.0559882
0.284394
-6.60686e-05
8.94126e-05
-5.82185e-05
9.25394e-05
-5.03504e-05
9.51644e-05
-4.27857e-05
9.72274e-05
-3.56861e-05
9.87268e-05
-2.93228e-05
9.96825e-05
-2.35801e-05
0.000100111
-1.86767e-05
0.000100051
-1.44402e-05
9.95698e-05
-1.08028e-05
9.86128e-05
-7.7383e-06
9.72966e-05
-5.1891e-06
9.55575e-05
-3.03542e-06
9.34003e-05
-1.31364e-06
9.07352e-05
1.74283e-08
8.74193e-05
9.83677e-07
8.31383e-05
1.43549e-06
7.70502e-05
1.21083e-06
6.77823e-05
0.00982319
0.0184389
0.0102781
0.0196449
0.0107555
0.0209247
0.0112543
0.0222827
0.0117744
0.023725
0.0123161
0.0252526
0.0128808
0.0268762
0.013467
0.028594
0.0140804
0.0304138
0.0147149
0.0323446
0.0153752
0.0343867
0.0160602
0.0365504
0.0167691
0.038841
0.0175044
0.0412628
0.0182647
0.0438243
0.0190556
0.0465302
0.0198727
0.0493868
0.0207176
0.0524139
0.0215838
0.0556062
0.02248
0.0589816
0.0233985
0.0625433
0.024352
0.0662912
0.0253315
0.0702528
0.026332
0.074433
0.0273621
0.0788337
0.0284141
0.0834753
0.0294895
0.0883583
0.0305977
0.0935017
0.0317201
0.0989224
0.0328655
0.104615
0.0340298
0.110612
0.0352166
0.116908
0.0364195
0.123537
0.0376296
0.130492
0.0388569
0.137803
0.04009
0.145481
0.0413285
0.153538
0.0425648
0.161997
0.0437976
0.170862
0.0450354
0.180161
0.0462517
0.189909
0.0474515
0.200121
0.0486281
0.210828
0.0497765
0.222037
0.0508867
0.233774
0.0519547
0.246062
0.052972
0.258923
0.0539301
0.272381
0.0548467
0.286456
-7.0417e-05
9.01486e-05
-6.22707e-05
9.34647e-05
-5.40619e-05
9.62509e-05
-4.61248e-05
9.85034e-05
-3.86614e-05
0.000100203
-3.18908e-05
0.000101295
-2.58278e-05
0.00010193
-2.05969e-05
0.000102031
-1.60625e-05
0.000101673
-1.21322e-05
0.000100899
-8.84134e-06
9.97158e-05
-6.05651e-06
9.81641e-05
-3.67158e-06
9.61937e-05
-1.7091e-06
9.37957e-05
-1.13839e-07
9.08665e-05
1.15653e-06
8.72465e-05
1.97637e-06
8.25975e-05
2.21177e-06
7.60493e-05
1.69559e-06
6.60867e-05
0.00941457
0.0177115
0.00985309
0.0188639
0.0103098
0.0200906
0.0107885
0.0213904
0.0112871
0.0227701
0.0118072
0.0242339
0.0123486
0.0257848
0.0129132
0.02743
0.0134993
0.0291751
0.0141086
0.0310202
0.014743
0.0329768
0.0154002
0.0350467
0.0160822
0.0372373
0.0167901
0.0395553
0.0175194
0.0420082
0.0182808
0.0445992
0.0190598
0.0473431
0.019868
0.0502364
0.0207025
0.0532951
0.0215685
0.0565178
0.022453
0.059927
0.0233727
0.0635227
0.0243046
0.0673181
0.0252739
0.0713109
0.0262628
0.0755323
0.027275
0.0799729
0.0283155
0.0846493
0.0293816
0.0895744
0.0304633
0.0947585
0.0315666
0.100221
0.0326851
0.10596
0.0338353
0.111994
0.0349866
0.118341
0.0361591
0.125007
0.0373389
0.13201
0.0385308
0.139362
0.0397245
0.147085
0.0409251
0.155178
0.0421198
0.163675
0.0433133
0.172584
0.0444907
0.181922
0.0456515
0.191709
0.0467957
0.201954
0.0479119
0.212692
0.0489923
0.223932
0.0500307
0.235698
0.0510207
0.248013
0.0519537
0.260899
0.0527988
0.274429
0.0536035
0.28848
-7.47434e-05
9.07423e-05
-6.63454e-05
9.42234e-05