/*--------------------------------*- C++ -*----------------------------------*\
  =========                 |
  \\      /  F ield         | OpenFOAM: The Open Source CFD Toolbox
   \\    /   O peration     | Website:  https://openfoam.org
    \\  /    A nd           | Version:  7
     \\/     M anipulation  |
\*---------------------------------------------------------------------------*/
FoamFile
{
    version     2.0;
    format      ascii;
    class       volVectorField;
    location    "200";
    object      U;
}
// * * * * * * * * * * * * * * * * * * * * * * * * * * * * * * * * * * * * * //

dimensions      [0 1 -1 0 0 0 0];

internalField   nonuniform List<vector> 
23064
(
(49.7324 13.3349 5.54472e-17)
(49.7365 13.3561 6.56198e-18)
(49.7328 13.3348 0)
(49.7399 13.3769 -6.67859e-17)
(49.7372 13.3558 2.72184e-18)
(49.7333 13.3346 7.34652e-18)
(49.7447 13.3981 -6.38864e-17)
(49.7407 13.3766 6.37946e-17)
(49.7379 13.3556 -7.09484e-17)
(49.7338 13.3345 -3.65914e-18)
(49.7499 13.42 -2.26728e-18)
(49.7458 13.3976 3.20872e-17)
(49.7416 13.3762 -6.83945e-17)
(49.7386 13.3553 4.11474e-18)
(49.7343 13.3344 -3.96771e-18)
(49.7552 13.4426 0)
(49.7513 13.4194 -3.64524e-17)
(49.747 13.3971 -6.91275e-17)
(49.7425 13.3758 6.73974e-17)
(49.7393 13.355 4.22626e-18)
(49.7348 13.3342 0)
(49.7608 13.4659 -2.78764e-18)
(49.757 13.4418 -2.62701e-18)
(49.7528 13.4187 3.82083e-17)
(49.7481 13.3965 1.43341e-16)
(49.7434 13.3753 7.16409e-17)
(49.7401 13.3547 -4.31234e-18)
(49.7354 13.334 6.7713e-17)
(49.7667 13.4901 -9.53957e-17)
(49.7629 13.4651 5.61148e-18)
(49.7588 13.4411 0)
(49.7543 13.418 -8.41644e-17)
(49.7493 13.3959 -6.95023e-17)
(49.7443 13.3749 -1.39338e-16)
(49.7408 13.3544 0)
(49.736 13.3338 -1.40124e-16)
(49.7727 13.5152 -9.79107e-17)
(49.7691 13.4892 4.49395e-17)
(49.7651 13.4642 0)
(49.7606 13.4402 -4.15233e-17)
(49.7558 13.4172 7.54074e-17)
(49.7505 13.3953 4.93364e-18)
(49.7452 13.3744 1.46912e-16)
(49.7416 13.354 4.5212e-18)
(49.7366 13.3336 -6.64731e-18)
(49.7788 13.5413 -3.5017e-18)
(49.7755 13.5142 5.59929e-17)
(49.7716 13.4882 -5.12862e-17)
(49.7672 13.4632 -4.50604e-17)
(49.7624 13.4393 4.35499e-17)
(49.7573 13.4164 -5.15547e-18)
(49.7517 13.3946 0)
(49.7461 13.3738 -1.45119e-16)
(49.7424 13.3536 7.93868e-17)
(49.7372 13.3333 5.25449e-17)
(49.785 13.5684 0)
(49.7821 13.5402 -6.37783e-17)
(49.7784 13.5131 5.97183e-17)
(49.7742 13.4871 9.99043e-17)
(49.7694 13.4622 9.34846e-17)
(49.7643 13.4384 -9.24376e-17)
(49.7589 13.4156 0)
(49.753 13.3939 -4.97605e-18)
(49.747 13.3733 -2.40659e-18)
(49.7432 13.3532 -6.43975e-17)
(49.7379 13.3331 7.31398e-17)
(49.7913 13.5967 -3.40515e-17)
(49.7887 13.5673 0)
(49.7853 13.539 1.17262e-16)
(49.7813 13.512 -5.53543e-17)
(49.7767 13.486 -4.85397e-17)
(49.7716 13.4612 -4.84937e-17)
(49.7661 13.4374 1.79613e-16)
(49.7604 13.4147 9.45176e-17)
(49.7542 13.3931 0)
(49.748 13.3727 7.65683e-17)
(49.744 13.3528 0)
(49.7386 13.3328 -7.21906e-17)
(49.7976 13.6262 0)
(49.7954 13.5955 -3.64486e-17)
(49.7924 13.5661 0)
(49.7886 13.5378 -6.0768e-17)
(49.7842 13.5107 6.2542e-17)
(49.7793 13.4848 5.49039e-17)
(49.7738 13.46 6.0729e-17)
(49.768 13.4363 -2.6612e-18)
(49.762 13.4137 -8.77697e-17)
(49.7555 13.3923 -8.52493e-17)
(49.7489 13.372 5.02948e-18)
(49.7449 13.3523 7.86739e-17)
(49.7394 13.3324 -8.55687e-18)
(49.8039 13.657 -4.04799e-17)
(49.8021 13.6249 2.53073e-18)
(49.7995 13.5942 1.12914e-16)
(49.7961 13.5648 6.50341e-17)
(49.792 13.5365 -6.84283e-17)
(49.7872 13.5095 -5.79994e-17)
(49.7818 13.4836 -5.39821e-17)
(49.776 13.4588 6.06361e-17)
(49.7698 13.4352 -8.88075e-17)
(49.7635 13.4127 -5.78389e-18)
(49.7568 13.3914 7.891e-17)
(49.7499 13.3714 7.63548e-17)
(49.7457 13.3518 -8.75285e-17)
(49.7401 13.3321 8.66584e-18)
(49.8101 13.689 1.58798e-19)
(49.8089 13.6557 3.98868e-17)
(49.8067 13.6236 -4.35844e-17)
(49.8037 13.5929 -7.13924e-17)
(49.7999 13.5634 2.5506e-18)
(49.7953 13.5351 1.29572e-16)
(49.7901 13.5081 1.80267e-19)
(49.7844 13.4822 -1.04791e-17)
(49.7782 13.4576 -1.16419e-16)
(49.7717 13.4341 1.05869e-16)
(49.7651 13.4117 0)
(49.758 13.3905 -1.90144e-19)
(49.7509 13.3707 -7.02371e-17)
(49.7466 13.3512 9.95053e-18)
(49.7409 13.3317 0)
(49.8163 13.7225 -3.13525e-18)
(49.8156 13.6877 0)
(49.8139 13.6543 4.8184e-17)
(49.8113 13.6222 8.50923e-17)
(49.8079 13.5914 -4.92535e-18)
(49.8036 13.5619 -6.99315e-17)
(49.7987 13.5336 -6.90489e-17)
(49.7931 13.5066 -1.83335e-19)
(49.787 13.4808 6.5222e-17)
(49.7805 13.4562 -1.08555e-16)
(49.7736 13.4328 -9.85499e-17)
(49.7667 13.4106 5.77833e-18)
(49.7593 13.3896 9.50939e-17)
(49.7519 13.3699 -9.42165e-17)
(49.7475 13.3506 1.64322e-16)
(49.7418 13.3313 1.67077e-16)
(49.8225 13.7575 0)
(49.8223 13.7212 0)
(49.8212 13.6863 -2.98598e-18)
(49.819 13.6528 -4.75715e-17)
(49.816 13.6206 -3.62998e-17)
(49.8121 13.5898 0)
(49.8074 13.5603 -7.85626e-17)
(49.8021 13.5321 4.11949e-18)
(49.7961 13.5051 -4.01894e-18)
(49.7896 13.4794 -5.74487e-17)
(49.7827 13.4548 2.10605e-16)
(49.7756 13.4315 -1.03186e-16)
(49.7683 13.4094 -1.02743e-16)
(49.7606 13.3885 -8.84066e-17)
(49.7529 13.3691 1.67782e-16)
(49.7484 13.35 -1.62457e-16)
(49.7427 13.3308 -1.56367e-16)
(49.8285 13.7941 -9.44902e-17)
(49.829 13.7561 -5.55883e-17)
(49.8284 13.7197 0)
(49.8267 13.6847 6.27747e-18)
(49.8241 13.6512 0)
(49.8206 13.619 8.77141e-17)
(49.8163 13.5882 4.87336e-18)
(49.8112 13.5586 7.76345e-17)
(49.8055 13.5304 8.60835e-18)
(49.7991 13.5035 6.48234e-17)
(49.7922 13.4778 7.26719e-18)
(49.785 13.4534 -1.09022e-16)
(49.7775 13.4302 1.01921e-16)
(49.7699 13.4082 9.57161e-17)
(49.762 13.3875 -9.20606e-17)
(49.7539 13.3683 -9.47996e-17)
(49.7494 13.3493 0)
(49.7436 13.3303 1.7247e-16)
(49.8344 13.8322 3.15489e-17)
(49.8355 13.7926 5.89411e-17)
(49.8355 13.7546 1.19098e-16)
(49.8344 13.7181 -3.36643e-18)
(49.8323 13.683 0)
(49.8293 13.6494 -3.05091e-18)
(49.8253 13.6172 -8.6474e-17)
(49.8206 13.5864 -4.96897e-18)
(49.815 13.5569 -4.60661e-18)
(49.8089 13.5287 4.48995e-18)
(49.8021 13.5018 -1.29911e-16)
(49.7949 13.4762 -7.73063e-18)
(49.7873 13.4518 -7.18742e-18)
(49.7794 13.4288 -6.6979e-18)
(49.7716 13.4069 9.96909e-17)
(49.7633 13.3864 1.02326e-16)
(49.7549 13.3674 -7.60445e-17)
(49.7503 13.3486 -1.06533e-17)
(49.7445 13.3298 -1.70768e-16)
(49.8402 13.8721 3.94876e-17)
(49.842 13.8308 2.26831e-18)
(49.8426 13.7911 0)
(49.8421 13.753 -5.58576e-17)
(49.8406 13.7164 0)
(49.838 13.6813 6.54747e-18)
(49.8344 13.6476 -9.84709e-17)
(49.83 13.6154 -5.75944e-18)
(49.8248 13.5845 8.42991e-17)
(49.8189 13.555 7.82631e-17)
(49.8123 13.5269 7.2256e-17)
(49.8052 13.5 7.31639e-17)
(49.7975 13.4745 7.5076e-18)
(49.7895 13.4502 -1.08649e-16)
(49.7814 13.4273 1.01031e-16)
(49.7732 13.4055 -2.05939e-16)
(49.7646 13.3852 -1.14588e-17)
(49.756 13.3665 1.74055e-16)
(49.7513 13.3479 1.0788e-17)
(49.7455 13.3292 0)
(49.8458 13.9138 -4.2598e-17)
(49.8483 13.8706 3.72567e-17)
(49.8497 13.8292 -2.32068e-18)
(49.8498 13.7894 6.42031e-17)
(49.8488 13.7512 3.99586e-18)
(49.8467 13.7145 -3.51033e-18)
(49.8436 13.6794 5.42193e-17)
(49.8396 13.6457 1.03116e-16)
(49.8348 13.6134 5.86535e-18)
(49.8291 13.5826 -8.83313e-17)
(49.8227 13.5531 -7.70099e-17)
(49.8157 13.525 -7.59812e-17)
(49.8082 13.4982 0)
(49.8002 13.4727 -1.34198e-16)
(49.7918 13.4485 1.21381e-16)
(49.7833 13.4257 -1.06851e-16)
(49.7749 13.4041 1.06338e-16)
(49.766 13.384 0)
(49.757 13.3655 -9.82834e-17)
(49.7523 13.3471 -1.74146e-16)
(49.7465 13.3285 -1.88126e-16)
(49.8512 13.9573 0)
(49.8545 13.9123 -1.66433e-18)
(49.8566 13.869 -3.65894e-17)
(49.8574 13.8275 0)
(49.857 13.7876 -1.41147e-16)
(49.8554 13.7493 0)
(49.8529 13.7126 0)
(49.8493 13.6773 -5.34657e-17)
(49.8448 13.6436 3.30878e-19)
(49.8395 13.6114 0)
(49.8334 13.5805 -8.71738e-17)
(49.8266 13.551 4.8492e-18)
(49.8192 13.523 -7.45479e-17)
(49.8113 13.4962 8.32886e-18)
(49.8029 13.4708 -3.28622e-18)
(49.7941 13.4468 1.4706e-17)
(49.7853 13.4241 -1.17418e-16)
(49.7765 13.4026 0)
(49.7674 13.3827 -4.57937e-19)
(49.7581 13.3644 1.13543e-17)
(49.7533 13.3463 -3.22746e-18)
(49.7476 13.3278 3.37337e-16)
(49.8564 14.0028 0)
(49.8606 13.9558 -3.01773e-18)
(49.8634 13.9107 9.0281e-17)
(49.8649 13.8673 8.2739e-17)
(49.8651 13.8256 7.6713e-17)
(49.8642 13.7856 6.86759e-17)
(49.8621 13.7472 0)
(49.8591 13.7105 0)
(49.855 13.6752 -1.1911e-16)
(49.8501 13.6415 0)
(49.8443 13.6092 0)
(49.8378 13.5783 9.16685e-17)
(49.8305 13.5489 0)
(49.8227 13.5208 7.36395e-17)
(49.8143 13.4942 1.48885e-16)
(49.8056 13.4689 -1.10653e-17)
(49.7965 13.4449 1.20421e-16)
(49.7872 13.4223 -2.57418e-18)
(49.7782 13.4011 1.27289e-17)
(49.7688 13.3813 -1.18581e-17)
(49.7592 13.3634 1.12933e-17)
(49.7543 13.3454 1.74122e-16)
(49.7487 13.3271 -1.79233e-16)
(49.8614 14.0503 -5.65108e-17)
(49.8664 14.0013 3.15107e-18)
(49.87 13.9541 4.29644e-17)
(49.8723 13.9089 -4.67507e-17)
(49.8732 13.8654 -8.15066e-17)
(49.8729 13.8236 -7.55956e-17)
(49.8714 13.7835 0)
(49.8689 13.7451 -4.23255e-18)
(49.8653 13.7082 0)
(49.8608 13.6729 1.10862e-16)
(49.8553 13.6392 6.6784e-18)
(49.8491 13.6069 9.15214e-17)
(49.8421 13.5761 0)
(49.8344 13.5466 0)
(49.8262 13.5186 5.775e-17)
(49.8174 13.492 -2.71343e-16)
(49.8083 13.4668 1.28293e-16)
(49.7988 13.443 1.05306e-17)
(49.7892 13.4205 1.10849e-16)
(49.7799 13.3995 1.19296e-16)
(49.7702 13.3799 -9.87907e-17)
(49.7602 13.3622 0)
(49.7553 13.3444 1.12796e-17)
(49.7499 13.3263 9.44253e-18)
(49.8662 14.0999 5.95626e-17)
(49.8721 14.0488 5.56202e-17)
(49.8765 13.9996 6.61209e-18)
(49.8795 13.9523 4.76883e-18)
(49.8812 13.9069 -4.93403e-17)
(49.8815 13.8633 -5.43285e-18)
(49.8807 13.8214 -7.96513e-17)
(49.8787 13.7813 -6.92514e-17)
(49.8756 13.7428 -6.80867e-17)
(49.8715 13.7059 0)
(49.8665 13.6706 -1.15718e-16)
(49.8606 13.6368 0)
(49.8539 13.6045 -9.61568e-17)
(49.8465 13.5737 0)
(49.8383 13.5443 4.81188e-18)
(49.8297 13.5163 -2.40724e-16)
(49.8205 13.4898 2.84087e-16)
(49.811 13.4647 1.25048e-16)
(49.8011 13.441 -1.28408e-16)
(49.7912 13.4187 -1.39382e-17)
(49.7815 13.3977 -1.04867e-16)
(49.7716 13.3784 1.84994e-16)
(49.7613 13.361 1.16939e-17)
(49.7564 13.3434 0)
(49.7511 13.3254 0)
(49.8707 14.1517 -2.13607e-18)
(49.8776 14.0984 1.99521e-18)
(49.8829 14.0471 -7.259e-18)
(49.8867 13.9977 0)
(49.8891 13.9503 -4.62081e-17)
(49.8902 13.9048 4.84175e-17)
(49.8899 13.8611 -8.76182e-17)
(49.8885 13.8191 7.85352e-17)
(49.886 13.7789 7.26612e-17)
(49.8824 13.7403 1.3638e-16)
(49.8778 13.7034 6.42984e-17)
(49.8723 13.668 2.32478e-16)
(49.8659 13.6342 0)
(49.8587 13.602 0)
(49.8508 13.5712 9.80566e-17)
(49.8423 13.5418 -9.61445e-17)
(49.8332 13.5139 1.53743e-16)
(49.8236 13.4875 -1.42182e-16)
(49.8137 13.4625 -2.58197e-16)
(49.8035 13.4389 -1.24775e-16)
(49.7932 13.4167 -1.4647e-17)
(49.7832 13.396 2.67865e-17)
(49.773 13.3769 1.0313e-16)
(49.7624 13.3598 0)
(49.7574 13.3424 0)
(49.7523 13.3245 0)
(49.8749 14.2059 2.23002e-18)
(49.8828 14.1502 -2.08303e-18)
(49.889 14.0967 3.8842e-18)
(49.8937 14.0452 0)
(49.8969 13.9957 0)
(49.8987 13.9482 -4.88661e-17)
(49.8992 13.9025 0)
(49.8984 13.8587 8.07473e-17)
(49.8964 13.8167 0)
(49.8934 13.7764 0)
(49.8892 13.7377 -7.22953e-17)
(49.8841 13.7008 -7.12756e-17)
(49.8781 13.6654 -2.36032e-16)
(49.8712 13.6316 0)
(49.8636 13.5993 -6.44566e-18)
(49.8552 13.5685 -8.01046e-17)
(49.8462 13.5392 1.7079e-16)
(49.8367 13.5114 0)
(49.8267 13.4851 -1.47331e-16)
(49.8164 13.4601 2.69507e-16)
(49.8058 13.4367 1.46763e-16)
(49.7952 13.4147 5.64893e-19)
(49.7849 13.3941 -1.22473e-16)
(49.7744 13.3752 -1.99544e-16)
(49.7635 13.3584 1.18959e-17)
(49.7585 13.3412 0)
(49.7536 13.3235 0)
(49.8789 14.2624 3.82248e-17)
(49.8878 14.2044 -2.39546e-18)
(49.895 14.1485 0)
(49.9006 14.0948 -6.20072e-17)
(49.9046 14.0431 0)
(49.9072 13.9935 0)
(49.9084 13.9458 5.12357e-17)
(49.9082 13.9001 5.8843e-18)
(49.9069 13.8561 0)
(49.9044 13.814 0)
(49.9007 13.7737 -8.69017e-17)
(49.8961 13.735 8.58074e-18)
(49.8904 13.698 1.31634e-16)
(49.8839 13.6626 4.5087e-18)
(49.8766 13.6288 6.73041e-18)
(49.8684 13.5965 0)
(49.8596 13.5658 9.49423e-17)
(49.8502 13.5366 -8.5469e-17)
(49.8402 13.5088 0)
(49.8298 13.4825 1.45766e-16)
(49.8191 13.4577 -1.519e-16)
(49.8082 13.4344 -1.50977e-16)
(49.7972 13.4126 0)
(49.7866 13.3922 -1.59382e-17)
(49.7758 13.3735 -1.24212e-17)
(49.7647 13.3571 0)
(49.7596 13.3401 1.95608e-16)
(49.7549 13.3224 0)
(49.8825 14.3215 5.47425e-18)
(49.8925 14.2609 -7.93649e-17)
(49.9007 14.2026 -8.03327e-17)
(49.9073 14.1466 6.82083e-17)
(49.9122 14.0927 6.51792e-17)
(49.9155 14.0409 0)
(49.9175 13.9911 -3.67013e-18)
(49.9181 13.9433 0)
(49.9173 13.8974 0)
(49.9154 13.8534 5.82849e-18)
(49.9123 13.8113 1.05001e-17)
(49.9081 13.7708 -2.17005e-18)
(49.9029 13.7321 9.17747e-18)
(49.8968 13.6951 -1.38036e-16)
(49.8898 13.6597 1.19864e-16)
(49.8819 13.6259 1.06111e-16)
(49.8733 13.5937 -1.04355e-16)
(49.864 13.563 -1.06075e-16)
(49.8541 13.5338 7.73309e-17)
(49.8437 13.5061 1.03603e-17)
(49.8329 13.4799 1.86695e-17)
(49.8218 13.4552 -1.30771e-16)
(49.8105 13.432 1.34361e-16)
(49.7992 13.4104 -1.19882e-16)
(49.7884 13.3902 2.06304e-16)
(49.7773 13.3717 0)
(49.7658 13.3556 -1.18536e-17)
(49.7607 13.3388 -1.82722e-16)
(49.7563 13.3213 -1.82357e-16)
(49.8858 14.3832 -5.17223e-17)
(49.8969 14.32 4.27936e-17)
(49.9062 14.2592 4.3633e-17)
(49.9137 14.2007 -2.8156e-18)
(49.9196 14.1445 -7.61248e-17)
(49.9238 14.0904 0)
(49.9265 14.0384 6.76428e-17)
(49.9278 13.9885 3.73569e-18)
(49.9278 13.9406 0)
(49.9265 13.8946 -6.08564e-18)
(49.9239 13.8506 -1.15449e-17)
(49.9203 13.8083 8.63597e-17)
(49.9156 13.7678 6.79402e-17)
(49.9098 13.7291 0)
(49.9032 13.6921 1.43891e-16)
(49.8956 13.6567 1.5409e-17)
(49.8873 13.6229 -1.11988e-16)
(49.8782 13.5906 1.15915e-16)
(49.8684 13.56 9.66625e-17)
(49.8581 13.5309 6.93798e-17)
(49.8473 13.5032 -2.04573e-17)
(49.8361 13.4772 0)
(49.8246 13.4526 1.2932e-16)
(49.8129 13.4295 -7.08001e-19)
(49.8012 13.4081 1.32857e-16)
(49.7901 13.388 1.91576e-18)
(49.7787 13.3699 2.21403e-16)
(49.7669 13.3541 1.90939e-16)
(49.7618 13.3375 -1.14928e-17)
(49.7577 13.32 2.02962e-16)
(49.8887 14.4475 -3.34447e-18)
(49.9011 14.3817 9.78137e-17)
(49.9115 14.3183 -4.78811e-17)
(49.92 14.2572 -8.70639e-17)
(49.9268 14.1985 1.59145e-16)
(49.932 14.1421 4.75344e-18)
(49.9355 14.0879 0)
(49.9376 14.0358 -6.68057e-17)
(49.9382 13.9857 3.79973e-18)
(49.9376 13.9377 0)
(49.9356 13.8917 -9.66427e-17)
(49.9325 13.8475 -6.01181e-18)
(49.9283 13.8052 -8.52549e-17)
(49.923 13.7647 8.0769e-17)
(49.9167 13.7259 -8.95901e-18)
(49.9095 13.6889 -1.41958e-16)
(49.9015 13.6535 0)
(49.8926 13.6197 1.23538e-16)
(49.8831 13.5875 1.28928e-17)
(49.8729 13.5569 -1.82759e-16)
(49.8621 13.5278 -1.66382e-16)
(49.8508 13.5003 1.05956e-17)
(49.8392 13.4743 1.53858e-16)
(49.8273 13.4498 1.72028e-17)
(49.8152 13.427 1.14522e-16)
(49.8032 13.4057 1.21392e-16)
(49.7918 13.3858 -1.10574e-16)
(49.7802 13.3679 -2.1976e-16)
(49.7681 13.3525 -1.77395e-16)
(49.7629 13.3361 -1.23832e-17)
(49.7592 13.3187 1.8528e-16)
(-17.1381 1.54179 0)
(49.8912 14.5147 5.75645e-17)
(49.9048 14.4461 3.27245e-18)
(49.9164 14.3799 -9.71259e-17)
(49.9261 14.3163 4.46441e-17)
(49.9339 14.2551 1.79874e-16)
(49.94 14.1962 -8.48413e-17)
(49.9444 14.1395 -8.15996e-17)
(49.9473 14.0852 0)
(49.9487 14.0329 -8.13594e-18)
(49.9487 13.9828 -1.22163e-16)
(49.9474 13.9347 0)
(49.9448 13.8885 1.07756e-16)
(49.9411 13.8443 -1.02405e-16)
(49.9363 13.8019 8.31862e-17)
(49.9305 13.7614 1.24503e-17)
(49.9237 13.7226 9.56465e-18)
(49.9159 13.6855 1.38815e-16)
(49.9074 13.6501 -1.58074e-17)
(49.898 13.6164 1.01302e-17)
(49.888 13.5842 -1.21878e-16)
(49.8773 13.5537 1.96874e-16)
(49.8661 13.5247 -1.10618e-17)
(49.8544 13.4972 0)
(49.8423 13.4713 3.00019e-18)
(49.83 13.447 8.27156e-18)
(49.8176 13.4243 -1.29977e-16)
(49.8053 13.4032 -2.57606e-16)
(49.7935 13.3836 -2.28144e-16)
(49.7817 13.3659 -1.33698e-17)
(49.7692 13.3508 -1.20627e-17)
(49.7641 13.3347 1.88108e-16)
(49.7607 13.3172 -1.64405e-16)
(-18.4028 1.65363 0)
(-17.9635 1.5824 2.73428e-15)
(49.8933 14.5849 -6.36383e-17)
(49.9083 14.5133 -3.73983e-18)
(49.9211 14.4444 0)
(49.9319 14.378 5.33787e-17)
(49.9408 14.3141 1.66829e-18)
(49.9478 14.2526 -1.77947e-16)
(49.9532 14.1935 9.44661e-17)
(49.9569 14.1368 7.07341e-17)
(49.9591 14.0822 4.35231e-18)
(49.9598 14.0299 6.70371e-17)
(49.9592 13.9796 1.28373e-16)
(49.9572 13.9314 0)
(49.9541 13.8852 -9.94595e-17)
(49.9498 13.8409 1.98601e-16)
(49.9444 13.7985 -9.85614e-17)
(49.938 13.7579 -1.73769e-16)
(49.9306 13.7191 -1.52672e-16)
(49.9223 13.6821 -1.28767e-16)
(49.9133 13.6467 4.16347e-19)
(49.9034 13.6129 1.69601e-17)
(49.8929 13.5808 1.07003e-16)
(49.8817 13.5503 -9.84788e-17)
(49.8701 13.5214 0)
(49.8579 13.4941 0)
(49.8455 13.4683 -3.01277e-16)
(49.8328 13.4441 0)
(49.82 13.4215 0)
(49.8073 13.4006 1.30337e-17)
(49.7952 13.3812 1.04774e-17)
(49.7831 13.3637 -1.34628e-17)
(49.7704 13.349 -1.93916e-16)
(49.7652 13.3331 -1.86727e-16)
(49.7623 13.3157 1.94504e-17)
(-18.84 1.66987 0)
(-19.256 1.69315 7.74784e-20)
(-18.746 1.61523 -5.69887e-20)
(49.8949 14.6581 3.75044e-17)
(49.9113 14.5835 3.42514e-18)
(49.9254 14.5116 0)
(49.9374 14.4424 0)
(49.9474 14.3757 3.34447e-18)
(49.9555 14.3116 -4.78669e-17)
(49.9618 14.25 -1.42966e-17)
(49.9664 14.1907 -7.77606e-17)
(49.9694 14.1338 0)
(49.9709 14.0791 -6.88917e-17)
(49.971 14.0266 -1.96422e-18)
(49.9697 13.9763 0)
(49.9671 13.928 1.23602e-16)
(49.9633 13.8817 -2.77847e-18)
(49.9584 13.8374 -9.64291e-17)
(49.9524 13.7949 -9.11536e-17)
(49.9455 13.7543 8.19381e-17)
(49.9375 13.7155 1.50923e-16)
(49.9288 13.6784 1.24561e-16)
(49.9192 13.6431 -1.3074e-16)
(49.9088 13.6094 -1.17632e-16)
(49.8978 13.5773 -1.40465e-17)
(49.8862 13.5469 0)
(49.874 13.518 0)
(49.8615 13.4908 0)
(49.8486 13.4651 1.55423e-16)
(49.8355 13.441 0)
(49.8223 13.4186 0)
(49.8093 13.3979 1.38401e-17)
(49.797 13.3787 1.06922e-17)
(49.7846 13.3615 0)
(49.7716 13.3472 3.87249e-16)
(49.7664 13.3315 2.34235e-17)
(49.7639 13.314 1.94662e-17)
(-18.9136 1.65113 0)
(-19.7189 1.71203 -4.65703e-16)
(-20.0647 1.72483 7.28261e-16)
(-19.4751 1.63758 -2.74084e-15)
(49.8961 14.7345 3.55087e-17)
(49.9139 14.6567 -7.30934e-17)
(49.9294 14.5818 1.30544e-16)
(49.9427 14.5096 -6.22207e-17)
(49.9539 14.4401 -6.15888e-17)
(49.963 14.3732 0)
(49.9704 14.3089 6.06065e-18)
(49.9759 14.247 9.07943e-17)
(49.9797 14.1876 8.69684e-17)
(49.982 14.1305 -4.85034e-18)
(49.9828 14.0757 6.8057e-17)
(49.9822 14.0231 -6.71632e-17)
(49.9802 13.9727 -7.6828e-18)
(49.977 13.9243 -2.25141e-16)
(49.9726 13.878 1.05955e-16)
(49.9671 13.8336 0)
(49.9605 13.7911 1.01791e-16)
(49.953 13.7505 -1.07833e-17)
(49.9445 13.7117 1.93484e-17)
(49.9352 13.6746 -2.8437e-16)
(49.9251 13.6393 1.29351e-16)
(49.9142 13.6056 1.46623e-17)
(49.9027 13.5736 1.41968e-17)
(49.8906 13.5433 -2.05269e-16)
(49.878 13.5145 1.19972e-17)
(49.865 13.4873 1.84567e-16)
(49.8517 13.4618 -1.59687e-16)
(49.8382 13.4379 0)
(49.8247 13.4156 -1.52019e-16)
(49.8113 13.3951 2.48363e-16)
(49.7987 13.3761 -3.2398e-18)
(49.7861 13.3591 -1.36355e-17)
(49.7727 13.3452 -2.17825e-16)
(49.7675 13.3298 -2.35079e-17)
(49.7656 13.3123 -2.27346e-17)
(-18.8367 1.61713 0)
(-19.8051 1.69576 0)
(-20.5506 1.74575 4.69372e-16)
(-20.82 1.74626 -5.74639e-20)
(-20.1515 1.65235 0)
(49.8967 14.8142 8.95821e-19)
(49.9161 14.7332 1.51149e-18)
(49.9331 14.6551 7.21265e-17)
(49.9477 14.5798 -6.54859e-17)
(49.9601 14.5073 5.72846e-17)
(49.9704 14.4376 5.72326e-17)
(49.9787 14.3704 0)
(49.9852 14.3059 0)
(49.99 14.2439 -1.01263e-16)
(49.9931 14.1843 -1.74108e-16)
(49.9946 14.1271 0)
(49.9947 14.0721 -8.05318e-17)
(49.9934 14.0195 8.86346e-18)
(49.9908 13.9689 1.21563e-16)
(49.9869 13.9205 1.16365e-16)
(49.9819 13.8741 0)
(49.9758 13.8297 8.91917e-17)
(49.9686 13.7872 1.12562e-17)
(49.9605 13.7466 -1.71325e-16)
(49.9515 13.7077 0)
(49.9416 13.6707 2.87585e-16)
(49.931 13.6354 -8.49033e-18)
(49.9196 13.6018 -3.04258e-17)
(49.9076 13.5698 -9.84452e-17)
(49.8951 13.5395 -3.28509e-18)
(49.882 13.5108 -1.15157e-17)
(49.8686 13.4838 -1.71985e-16)
(49.8549 13.4584 1.68547e-16)
(49.841 13.4346 1.48257e-16)
(49.8271 13.4125 -1.94568e-17)
(49.8133 13.3921 1.80718e-18)
(49.8004 13.3734 2.44725e-16)
(49.7876 13.3567 -1.37152e-17)
(49.7739 13.3432 4.97001e-17)
(49.7687 13.328 2.46527e-17)
(49.7673 13.3104 1.91718e-16)
(-18.6779 1.57439 0)
(-19.7329 1.66384 0)
(-20.6467 1.73181 -6.29971e-16)
(-21.3265 1.76989 4.73893e-16)
(-21.5172 1.75883 0)
(-20.7648 1.65678 -2.76734e-15)
(49.8968 14.8973 -8.76429e-17)
(49.9178 14.8129 4.3132e-17)
(49.9363 14.7315 -1.19578e-16)
(49.9523 14.6531 0)
(49.966 14.5775 -1.92026e-19)
(49.9775 14.5047 0)
(49.987 14.4347 0)
(49.9945 14.3674 0)
(50.0002 14.3027 -9.79868e-17)
(50.0042 14.2405 -2.82229e-18)
(50.0065 14.1807 8.14848e-17)
(50.0073 14.1234 5.0001e-18)
(50.0067 14.0683 6.55088e-17)
(50.0047 14.0156 -1.4194e-16)
(50.0014 13.965 -1.27749e-16)
(49.9969 13.9165 -1.2087e-16)
(49.9912 13.87 0)
(49.9845 13.8256 -9.37331e-17)
(49.9767 13.7831 -1.05851e-16)
(49.968 13.7424 3.54816e-16)
(49.9585 13.7036 1.59811e-16)
(49.9481 13.6666 1.19183e-17)
(49.9369 13.6313 1.62909e-17)
(49.925 13.5978 -1.49712e-17)
(49.9126 13.5659 9.79526e-17)
(49.8995 13.5356 4.14537e-16)
(49.886 13.5071 -1.92187e-16)
(49.8721 13.4801 -1.06881e-17)
(49.858 13.4548 0)
(49.8437 13.4312 3.94586e-17)
(49.8294 13.4093 1.35501e-16)
(49.8153 13.3891 -1.41119e-16)
(49.8021 13.3706 1.43143e-17)
(49.7891 13.3542 1.91098e-16)
(49.7751 13.3411 -1.96838e-16)
(49.7698 13.3261 0)
(49.7691 13.3084 -4.25717e-16)
(-18.4656 1.52564 0)
(-19.5735 1.62308 0)
(-20.5771 1.70217 -3.41129e-20)
(-21.4303 1.75815 -3.18164e-16)
(-22.041 1.78432 0)
(-22.1515 1.76082 7.44762e-16)
(-21.3168 1.65142 0)
(49.8963 14.9841 -5.16706e-17)
(49.9191 14.8961 8.72263e-17)
(49.9391 14.8113 0)
(49.9565 14.7295 7.7905e-17)
(49.9716 14.6508 -2.07328e-19)
(49.9844 14.5749 0)
(49.995 14.5019 6.58774e-17)
(50.0036 14.4316 0)
(50.0103 14.3641 0)
(50.0152 14.2992 2.08715e-16)
(50.0184 14.2368 1.99589e-16)
(50.02 14.1769 5.7518e-18)
(50.02 14.1195 5.32606e-18)
(50.0187 14.0643 7.78395e-17)
(50.016 14.0114 1.40173e-16)
(50.012 13.9608 -1.24275e-16)
(50.0068 13.9122 1.19441e-16)
(50.0005 13.8658 -6.79601e-18)
(49.9932 13.8213 -9.06186e-17)
(49.9849 13.7788 9.40279e-17)
(49.9756 13.7381 -1.71928e-16)
(49.9654 13.6994 3.35748e-18)
(49.9545 13.6624 -1.45393e-16)
(49.9428 13.6271 -8.66844e-18)
(49.9305 13.5936 1.5926e-17)
(49.9175 13.5618 -1.14952e-16)
(49.904 13.5316 -2.0732e-16)
(49.89 13.5032 -3.35394e-18)
(49.8757 13.4763 0)
(49.8611 13.4512 -1.98313e-17)
(49.8464 13.4277 -1.48221e-16)
(49.8318 13.4059 3.44354e-17)
(49.8173 13.386 1.11301e-16)
(49.8038 13.3677 2.5115e-16)
(49.7906 13.3515 -2.15907e-16)
(49.7763 13.3388 1.95595e-16)
(49.771 13.3241 4.85698e-17)
(49.771 13.3062 2.14664e-16)
(-18.2135 1.47219 1.19258e-16)
(-19.3567 1.57617 0)
(-20.4154 1.66349 1.78605e-16)
(-21.3613 1.7307 4.65331e-16)
(-22.1502 1.77477 0)
(-22.6901 1.78795 -4.8477e-16)
(-22.7209 1.75332 7.51527e-16)
(-21.8052 1.63665 0)
(49.8952 15.0745 -1.03816e-16)
(49.9197 14.9829 -1.98594e-18)
(49.9414 14.8945 -4.51747e-17)
(49.9604 14.8093 -2.76515e-18)
(49.9769 14.7272 8.74608e-17)
(49.991 14.6481 0)
(50.0029 14.572 -4.5292e-18)
(50.0126 14.4987 -1.3618e-16)
(50.0203 14.4282 0)
(50.0262 14.3605 -7.31229e-18)
(50.0302 14.2954 -1.04468e-16)
(50.0326 14.2329 -2.02571e-16)
(50.0334 14.1729 -9.19836e-17)
(50.0328 14.1153 -8.53277e-17)
(50.0307 14.0601 -2.44557e-16)
(50.0273 14.0071 -1.79997e-17)
(50.0226 13.9564 -3.18702e-18)
(50.0168 13.9078 1.15926e-16)
(50.0099 13.8613 -1.27761e-16)
(50.0019 13.8168 8.99866e-17)
(49.993 13.7743 0)
(49.9831 13.7337 0)
(49.9724 13.6949 -1.59846e-16)
(49.961 13.658 1.85773e-17)
(49.9487 13.6228 -1.54257e-16)
(49.9359 13.5893 0)
(49.9224 13.5576 1.13908e-16)
(49.9084 13.5275 -2.26516e-16)
(49.894 13.4991 1.92214e-16)
(49.8792 13.4724 0)
(49.8642 13.4474 0)
(49.8492 13.424 -3.7679e-17)
(49.8341 13.4025 1.69274e-17)
(49.8193 13.3827 -2.8683e-16)
(49.8056 13.3646 -1.23134e-17)
(49.7921 13.3487 -2.05399e-16)
(49.7775 13.3365 -2.22603e-16)
(49.7721 13.322 -2.49662e-17)
(49.7729 13.3039 1.71903e-16)
(-17.929 1.41482 2.80573e-20)
(-19.0968 1.5245 0)
(-20.1926 1.6186 0)
(-21.1957 1.69413 -1.80321e-16)
(-22.0801 1.74931 0)
(-22.8028 1.78064 3.25545e-16)
(-23.2717 1.78193 -9.80674e-16)
(-23.2247 1.73589 0)
(-22.2299 1.61242 0)
(49.8934 15.1687 6.14379e-19)
(49.9198 15.0734 5.21632e-17)
(49.9432 14.9814 4.91668e-17)
(49.9639 14.8926 5.08803e-17)
(49.9819 14.807 0)
(49.9974 14.7246 -8.12679e-17)
(50.0105 14.6452 4.72555e-18)
(50.0214 14.5687 4.40666e-18)
(50.0303 14.4952 6.60785e-17)
(50.0371 14.4245 7.63061e-18)
(50.0421 14.3566 -7.42682e-18)
(50.0453 14.2913 -6.89227e-18)
(50.0469 14.2287 9.86522e-17)
(50.047 14.1686 9.10789e-17)
(50.0455 14.1109 9.46817e-17)
(50.0427 14.0556 5.73065e-18)
(50.0386 14.0026 0)
(50.0333 13.9518 2.76779e-16)
(50.0268 13.9032 -1.2237e-16)
(50.0192 13.8567 1.12745e-16)
(50.0107 13.8122 0)
(50.0011 13.7696 -1.95089e-16)
(49.9907 13.729 1.1398e-17)
(49.9794 13.6903 -2.04229e-17)
(49.9674 13.6534 0)
(49.9547 13.6183 2.75258e-16)
(49.9413 13.5849 -1.62312e-17)
(49.9273 13.5532 -1.02872e-16)
(49.9128 13.5232 2.11141e-16)
(49.898 13.4949 -1.84542e-16)
(49.8828 13.4683 0)
(49.8673 13.4434 -1.45955e-16)
(49.8519 13.4202 0)
(49.8365 13.3989 -8.26152e-19)
(49.8213 13.3793 -9.83754e-17)
(49.8073 13.3614 -2.50344e-16)
(49.7936 13.3458 2.17991e-16)
(49.7787 13.334 3.94984e-16)
(49.7733 13.3198 4.88249e-17)
(49.7748 13.3015 2.06359e-18)
(-17.6169 1.35401 2.656e-20)
(-18.8019 1.46882 0)
(-19.9239 1.56887 0)
(-20.9658 1.65132 1.45766e-16)
(-21.9093 1.71495 0)
(-22.7303 1.75735 0)
(-23.3867 1.7764 -2.00708e-20)
(-23.7859 1.76534 1.49109e-20)
(-23.6628 1.70879 0)
(-22.5937 1.58101 1.41579e-21)
(49.8909 15.267 3.18504e-17)
(49.9192 15.1677 -1.31552e-18)
(49.9445 15.0719 3.48462e-18)
(49.9669 14.9794 -3.2778e-18)
(49.9864 14.8903 -4.72652e-17)
(50.0034 14.8043 0)
(50.0179 14.7216 5.3909e-18)
(50.0301 14.6419 0)
(50.0401 14.5652 0)
(50.048 14.4914 4.36701e-18)
(50.0539 14.4205 1.36384e-16)
(50.0581 14.3524 -1.12154e-16)
(50.0605 14.287 -1.17276e-16)
(50.0613 14.2242 0)
(50.0605 14.164 0)
(50.0583 14.1062 -9.85927e-17)
(50.0548 14.0509 1.6798e-16)
(50.05 13.9978 9.45009e-18)
(50.0439 13.947 3.08435e-18)
(50.0368 13.8983 1.26553e-16)
(50.0286 13.8518 0)
(50.0194 13.8073 1.36151e-17)
(50.0093 13.7648 1.93711e-16)
(49.9982 13.7242 -1.70152e-16)
(49.9864 13.6855 0)
(49.9738 13.6487 0)
(49.9606 13.6136 -1.3855e-16)
(49.9467 13.5803 0)
(49.9322 13.5487 1.16017e-16)
(49.9173 13.5188 -1.30979e-17)
(49.9019 13.4906 1.95519e-16)
(49.8863 13.4641 0)
(49.8705 13.4394 1.64861e-16)
(49.8546 13.4163 1.52665e-16)
(49.8388 13.3951 -3.51073e-17)
(49.8233 13.3758 2.72744e-16)
(49.809 13.3582 0)
(49.7951 13.3428 -2.8098e-17)
(49.7799 13.3314 -2.21988e-16)
(49.7744 13.3175 0)
(49.7768 13.2988 -1.94896e-16)
(-17.2803 1.29013 2.53982e-20)
(-18.477 1.40965 0)
(-19.6179 1.51514 0)
(-20.6875 1.60375 2.16122e-20)
(-21.6714 1.67434 0)
(-22.5534 1.72503 0)
(-23.3108 1.75503 2.40623e-16)
(-23.902 1.7615 0)
(-24.2331 1.73938 5.00555e-16)
(-24.037 1.67274 1.54098e-15)
(-22.8907 1.53975 0)
(49.8876 15.3694 0)
(49.918 15.2661 3.85431e-18)
(49.9452 15.1663 -1.2227e-16)
(49.9694 15.07 3.41866e-18)
(49.9906 14.9771 0)
(50.0091 14.8876 -4.99752e-17)
(50.0251 14.8013 -5.62378e-18)
(50.0386 14.7182 5.49022e-18)
(50.0497 14.6382 0)
(50.0588 14.5613 -9.32611e-18)
(50.0658 14.4873 0)
(50.0708 14.4162 -2.57426e-16)
(50.0741 14.348 1.17785e-16)
(50.0757 14.2824 1.16268e-16)
(50.0756 14.2195 0)
(50.0741 14.1592 1.76375e-17)
(50.0711 14.1013 -1.27854e-17)
(50.0669 14.0459 1.43232e-16)
(50.0613 13.9928 0)
(50.0546 13.9419 1.18461e-17)
(50.0468 13.8933 -1.1705e-16)
(50.038 13.8468 7.41082e-19)
(50.0281 13.8023 -1.30695e-17)
(50.0174 13.7598 0)
(50.0058 13.7192 1.79318e-16)
(49.9934 13.6806 0)
(49.9803 13.6438 -1.55104e-16)
(49.9665 13.6087 0)
(49.9521 13.5755 -1.29737e-16)
(49.9371 13.544 -2.37998e-16)
(49.9217 13.5142 0)
(49.9059 13.4861 -1.27551e-17)
(49.8898 13.4598 -1.83579e-16)
(49.8736 13.4352 -1.4798e-16)
(49.8573 13.4123 -1.33792e-16)
(49.8411 13.3913 -1.72314e-17)
(49.8253 13.3722 -2.7709e-16)
(49.8106 13.3547 2.69724e-16)
(49.7966 13.3396 0)
(49.7811 13.3287 1.98881e-16)
(49.7756 13.3151 2.38073e-17)
(49.7788 13.296 -1.92646e-17)
(-16.9218 1.22348 2.45417e-20)
(-18.1256 1.34738 0)
(-19.2799 1.45791 0)
(-20.3698 1.55217 -2.07635e-16)
(-21.3829 1.62896 0)
(-22.3067 1.68661 0)
(-23.1273 1.72484 0)
(-23.8224 1.7422 0)
(-24.3499 1.73707 9.93227e-21)
(-24.6149 1.704 -1.00964e-15)
(-24.3461 1.62774 0)
(-23.1241 1.49041 -2.87734e-15)
(49.8834 15.4761 3.5289e-17)
(49.9161 15.3686 2.17935e-18)
(49.9453 15.2648 0)
(49.9714 15.1645 1.21421e-16)
(49.9944 15.0677 6.1732e-17)
(50.0145 14.9744 -3.41946e-18)
(50.0319 14.8845 4.92384e-17)
(50.0468 14.7979 9.53745e-17)
(50.0593 14.7145 5.58681e-18)
(50.0695 14.6342 9.27717e-17)
(50.0775 14.5571 7.68019e-17)
(50.0836 14.4829 0)
(50.0878 14.4116 2.61146e-16)
(50.0901 14.3432 -1.51498e-17)
(50.0909 14.2776 1.1354e-16)
(50.09 14.2145 1.05313e-16)
(50.0877 14.1541 0)
(50.084 14.0962 2.77486e-16)
(50.0789 14.0407 -1.6157e-16)
(50.0727 13.9876 -9.19643e-18)
(50.0653 13.9367 -1.45836e-16)
(50.0568 13.888 -1.56015e-17)
(50.0473 13.8415 0)
(50.0369 13.797 -9.5397e-17)
(50.0255 13.7546 0)
(50.0133 13.7141 0)
(50.0004 13.6755 2.0469e-17)
(49.9867 13.6387 1.7057e-17)
(49.9724 13.6038 1.81649e-17)
(49.9575 13.5706 1.2865e-16)
(49.942 13.5392 -3.8392e-18)
(49.9261 13.5095 1.33093e-17)
(49.9099 13.4815 1.28539e-17)
(49.8933 13.4553 3.67119e-16)
(49.8766 13.4308 1.88857e-16)
(49.86 13.4081 0)
(49.8435 13.3873 1.73244e-17)
(49.8273 13.3684 2.58936e-16)
(49.8123 13.3512 -2.39046e-16)
(49.7981 13.3363 2.22453e-16)
(49.7823 13.3259 -2.22715e-16)
(49.7767 13.3126 2.14582e-16)
(49.7809 13.293 0)
(-16.5434 1.1543 2.38354e-20)
(-17.7503 1.28228 7.0767e-17)
(-18.9136 1.39759 0)
(-20.0185 1.49714 9.03713e-17)
(-21.0533 1.57967 0)
(-22.0078 1.6435 -1.24043e-16)
(-22.8718 1.68866 0)
(-23.6322 1.71411 0)
(-24.2666 1.71966 -2.45339e-16)
(-24.7325 1.70334 -5.55902e-21)
(-24.9321 1.65974 0)
(-24.5902 1.57421 1.71631e-20)
(-23.2907 1.43334 -1.44609e-15)
(49.8784 15.5872 -2.49556e-18)
(49.9134 15.4754 -2.27224e-18)
(49.9448 15.3674 0)
(49.9728 15.263 0)
(49.9977 15.1622 -6.47229e-17)