/*--------------------------------*- C++ -*----------------------------------*\
  =========                 |
  \\      /  F ield         | OpenFOAM: The Open Source CFD Toolbox
   \\    /   O peration     | Website:  https://openfoam.org
    \\  /    A nd           | Version:  7
     \\/     M anipulation  |
\*---------------------------------------------------------------------------*/
FoamFile
{
    version     2.0;
    format      ascii;
    class       volScalarField;
    location    "200";
    object      yPlus;
}
// * * * * * * * * * * * * * * * * * * * * * * * * * * * * * * * * * * * * * //

dimensions      [0 0 0 0 0 0 0];

internalField   uniform 0;

boundaryField
{
    inlet-l
    {
        type            calculated;
        value           nonuniform 0();
    }
    airfoil-l1
    {
        type            calculated;
        value           nonuniform 0();
    }
    empty-1
    {
        type            empty;
    }
    empty-2
    {
        type            empty;
    }
    wall-l1
    {
        type            calculated;
        value           nonuniform 0();
    }
    airfoil-l2
    {
        type            calculated;
        value           nonuniform 0();
    }
    empty-3
    {
        type            empty;
    }
    empty-4
    {
        type            empty;
    }
    wall-l2
    {
        type            calculated;
        value           nonuniform 0();
    }
    outlet-l
    {
        type            calculated;
        value           nonuniform 0();
    }
    empty-5
    {
        type            empty;
    }
    empty-6
    {
        type            empty;
    }
    outlet-h
    {
        type            calculated;
        value           nonuniform 0();
    }
    wall-h2
    {
        type            calculated;
        value           nonuniform 0();
    }
    empty-7
    {
        type            empty;
    }
    empty-8
    {
        type            empty;
    }
    airfoil-h2
    {
        type            calculated;
        value           nonuniform List<scalar> 
33
(
29.6718
24.8627
20.8594
17.1834
14.5747
13.2715
13.691
14.6776
15.9197
16.9742
17.8751
18.5612
19.1011
19.496
19.7901
19.996
20.1387
20.2244
20.2592
20.2525
20.2125
20.14
20.038
19.9092
19.7484
19.559
19.3396
19.0875
18.8049
18.4864
18.1369
17.7556
17.3427
)
;
    }
    wall-h1
    {
        type            calculated;
        value           nonuniform List<scalar> 
33
(
135.252
135.355
135.387
135.437
135.502
135.569
135.631
135.692
135.752
135.812
135.871
135.932
135.99
136.052
136.109
136.167
136.221
136.283
136.334
136.391
136.443
136.5
136.552
136.601
136.658
136.705
136.759
136.807
136.852
136.905
136.946
136.996
137.04
)
;
    }
    empty-9
    {
        type            empty;
    }
    empty-10
    {
        type            empty;
    }
    inlet-h
    {
        type            calculated;
        value           uniform 0;
    }
    airfoil-h1
    {
        type            calculated;
        value           nonuniform List<scalar> 
91
(
20.7933
20.4074
20.0296
19.665
19.3014
18.9264
18.5347
18.1249
17.6941
17.2228
16.6858
16.0791
15.3631
14.4907
13.4157
12.0774
10.4161
8.52831
6.55567
4.48911
2.22175
1.56846
2.78436
3.61174
1.90819
5.82027
10.2049
7.80034
10.9387
15.4125
17.4896
18.1749
17.5155
15.4004
10.6846
8.19957
16.236
21.0416
23.9991
25.7267
26.6732
27.1919
27.568
27.991
28.48
29.0144
29.1855
27.8619
24.1757
19.1612
15.9857
16.0697
12.795
11.8781
18.6867
22.3248
24.804
26.7291
28.3325
29.7212
30.9522
32.0645
33.0694
33.9763
34.8119
35.5724
36.2604
36.8802
37.4344
37.921
38.3373
38.6694
38.9207
39.0989
39.1908
39.1853
39.1097
38.972
38.7696
38.5081
38.1872
37.8093
37.3752
36.8838
36.3464
35.7596
35.1235
34.4535
33.7594
33.0323
32.2403
)
;
    }
    empty-11
    {
        type            empty;
    }
    empty-12
    {
        type            empty;
    }
    procBoundary3to0
    {
        type            processor;
        value           uniform 0;
    }
    procBoundary3to2
    {
        type            processor;
        value           uniform 0;
    }
}


// ************************************************************************* //
