/*--------------------------------*- C++ -*----------------------------------*\
  =========                 |
  \\      /  F ield         | OpenFOAM: The Open Source CFD Toolbox
   \\    /   O peration     | Website:  https://openfoam.org
    \\  /    A nd           | Version:  7
     \\/     M anipulation  |
\*---------------------------------------------------------------------------*/
FoamFile
{
    version     2.0;
    format      ascii;
    class       volScalarField;
    location    "1000";
    object      nut;
}
// * * * * * * * * * * * * * * * * * * * * * * * * * * * * * * * * * * * * * //

dimensions      [0 2 -1 0 0 0 0];

internalField   nonuniform List<scalar> 
23052
(
5.20707e-06
5.20675e-06
5.20759e-06
5.20668e-06
5.20763e-06
5.20848e-06
5.20671e-06
5.20757e-06
5.20825e-06
5.20849e-06
5.20676e-06
5.20754e-06
5.2081e-06
5.20829e-06
5.20803e-06
5.20772e-06
5.20676e-06
5.20746e-06
5.20793e-06
5.20807e-06
5.20785e-06
5.20766e-06
5.20808e-06
5.20914e-06
5.20674e-06
5.20737e-06
5.20776e-06
5.20788e-06
5.2077e-06
5.20764e-06
5.20817e-06
5.2092e-06
5.21052e-06
5.20672e-06
5.20727e-06
5.20761e-06
5.20771e-06
5.20758e-06
5.20765e-06
5.20828e-06
5.20932e-06
5.21056e-06
5.21189e-06
5.20668e-06
5.20718e-06
5.20747e-06
5.20756e-06
5.20749e-06
5.2077e-06
5.20841e-06
5.20946e-06
5.21066e-06
5.21191e-06
5.21318e-06
5.20665e-06
5.20709e-06
5.20735e-06
5.20743e-06
5.20744e-06
5.20778e-06
5.20855e-06
5.2096e-06
5.21077e-06
5.21198e-06
5.21318e-06
5.21438e-06
5.20662e-06
5.20701e-06
5.20725e-06
5.20734e-06
5.20743e-06
5.20788e-06
5.2087e-06
5.20974e-06
5.21088e-06
5.21205e-06
5.21322e-06
5.21438e-06
5.21552e-06
5.2066e-06
5.20695e-06
5.20716e-06
5.20727e-06
5.20746e-06
5.208e-06
5.20885e-06
5.20988e-06
5.21098e-06
5.21212e-06
5.21326e-06
5.21439e-06
5.21551e-06
5.21661e-06
5.2066e-06
5.20691e-06
5.2071e-06
5.20724e-06
5.20753e-06
5.20815e-06
5.20901e-06
5.21001e-06
5.21109e-06
5.21219e-06
5.2133e-06
5.21441e-06
5.2155e-06
5.21658e-06
5.21763e-06
5.20662e-06
5.20689e-06
5.20706e-06
5.20725e-06
5.20764e-06
5.2083e-06
5.20917e-06
5.21015e-06
5.21119e-06
5.21227e-06
5.21335e-06
5.21443e-06
5.2155e-06
5.21656e-06
5.2176e-06
5.21859e-06
5.20666e-06
5.20688e-06
5.20706e-06
5.2073e-06
5.20777e-06
5.20846e-06
5.20932e-06
5.21028e-06
5.2113e-06
5.21234e-06
5.2134e-06
5.21446e-06
5.21551e-06
5.21655e-06
5.21757e-06
5.21856e-06
5.2195e-06
5.2067e-06
5.20689e-06
5.20708e-06
5.20739e-06
5.20791e-06
5.20863e-06
5.20947e-06
5.21041e-06
5.2114e-06
5.21242e-06
5.21345e-06
5.21449e-06
5.21552e-06
5.21654e-06
5.21754e-06
5.21851e-06
5.21946e-06
5.22035e-06
5.20673e-06
5.20691e-06
5.20715e-06
5.20752e-06
5.20807e-06
5.20878e-06
5.20962e-06
5.21054e-06
5.2115e-06
5.2125e-06
5.21351e-06
5.21453e-06
5.21554e-06
5.21654e-06
5.21752e-06
5.21847e-06
5.21941e-06
5.22031e-06
5.22116e-06
5.20676e-06
5.20696e-06
5.20724e-06
5.20765e-06
5.20822e-06
5.20894e-06
5.20976e-06
5.21066e-06
5.2116e-06
5.21258e-06
5.21357e-06
5.21457e-06
5.21556e-06
5.21654e-06
5.2175e-06
5.21844e-06
5.21936e-06
5.22025e-06
5.22111e-06
5.22192e-06
5.20678e-06
5.20703e-06
5.20735e-06
5.20779e-06
5.20837e-06
5.20908e-06
5.20989e-06
5.21078e-06
5.2117e-06
5.21266e-06
5.21363e-06
5.21461e-06
5.21558e-06
5.21654e-06
5.21749e-06
5.21841e-06
5.21932e-06
5.22019e-06
5.22105e-06
5.22187e-06
5.22264e-06
5.20681e-06
5.2071e-06
5.20745e-06
5.20792e-06
5.20851e-06
5.20922e-06
5.21002e-06
5.21089e-06
5.2118e-06
5.21274e-06
5.2137e-06
5.21465e-06
5.21561e-06
5.21655e-06
5.21748e-06
5.21839e-06
5.21928e-06
5.22014e-06
5.22098e-06
5.2218e-06
5.22259e-06
5.22331e-06
5.20683e-06
5.20717e-06
5.20756e-06
5.20804e-06
5.20864e-06
5.20935e-06
5.21015e-06
5.211e-06
5.2119e-06
5.21282e-06
5.21376e-06
5.2147e-06
5.21564e-06
5.21657e-06
5.21748e-06
5.21838e-06
5.21925e-06
5.2201e-06
5.22093e-06
5.22173e-06
5.22251e-06
5.22326e-06
5.22395e-06
5.20685e-06
5.20724e-06
5.20765e-06
5.20816e-06
5.20877e-06
5.20948e-06
5.21027e-06
5.21111e-06
5.21199e-06
5.2129e-06
5.21382e-06
5.21475e-06
5.21567e-06
5.21658e-06
5.21748e-06
5.21836e-06
5.21922e-06
5.22006e-06
5.22088e-06
5.22167e-06
5.22244e-06
5.22318e-06
5.2239e-06
5.22455e-06
5.20687e-06
5.2073e-06
5.20774e-06
5.20827e-06
5.20889e-06
5.2096e-06
5.21038e-06
5.21122e-06
5.21209e-06
5.21298e-06
5.21389e-06
5.2148e-06
5.21571e-06
5.21661e-06
5.21749e-06
5.21836e-06
5.2192e-06
5.22003e-06
5.22083e-06
5.22162e-06
5.22238e-06
5.22311e-06
5.22382e-06
5.2245e-06
5.22512e-06
5.20689e-06
5.20735e-06
5.20783e-06
5.20837e-06
5.209e-06
5.20972e-06
5.2105e-06
5.21132e-06
5.21218e-06
5.21306e-06
5.21396e-06
5.21485e-06
5.21574e-06
5.21663e-06
5.2175e-06
5.21835e-06
5.21919e-06
5.22e-06
5.22079e-06
5.22157e-06
5.22232e-06
5.22304e-06
5.22374e-06
5.22442e-06
5.22506e-06
5.22566e-06
5.2069e-06
5.20741e-06
5.20791e-06
5.20847e-06
5.20911e-06
5.20983e-06
5.2106e-06
5.21142e-06
5.21227e-06
5.21314e-06
5.21402e-06
5.2149e-06
5.21578e-06
5.21665e-06
5.21751e-06
5.21835e-06
5.21917e-06
5.21998e-06
5.22076e-06
5.22152e-06
5.22226e-06
5.22298e-06
5.22367e-06
5.22434e-06
5.22498e-06
5.2256e-06
5.22616e-06
5.20692e-06
5.20745e-06
5.20799e-06
5.20857e-06
5.20922e-06
5.20994e-06
5.21071e-06
5.21152e-06
5.21236e-06
5.21322e-06
5.21409e-06
5.21496e-06
5.21582e-06
5.21668e-06
5.21752e-06
5.21835e-06
5.21916e-06
5.21996e-06
5.22073e-06
5.22148e-06
5.22221e-06
5.22292e-06
5.2236e-06
5.22426e-06
5.2249e-06
5.22551e-06
5.2261e-06
5.22664e-06
5.20693e-06
5.2075e-06
5.20806e-06
5.20866e-06
5.20932e-06
5.21004e-06
5.21081e-06
5.21162e-06
5.21245e-06
5.2133e-06
5.21415e-06
5.21501e-06
5.21587e-06
5.21671e-06
5.21754e-06
5.21836e-06
5.21916e-06
5.21994e-06
5.2207e-06
5.22145e-06
5.22217e-06
5.22287e-06
5.22354e-06
5.22419e-06
5.22482e-06
5.22543e-06
5.22602e-06
5.22658e-06
5.22709e-06
5.20695e-06
5.20754e-06
5.20813e-06
5.20874e-06
5.20941e-06
5.21014e-06
5.21091e-06
5.21171e-06
5.21253e-06
5.21337e-06
5.21422e-06
5.21507e-06
5.21591e-06
5.21674e-06
5.21756e-06
5.21837e-06
5.21916e-06
5.21993e-06
5.22068e-06
5.22142e-06
5.22213e-06
5.22282e-06
5.22348e-06
5.22413e-06
5.22475e-06
5.22535e-06
5.22593e-06
5.22649e-06
5.22703e-06
5.22752e-06
5.20696e-06
5.20759e-06
5.20819e-06
5.20883e-06
5.20951e-06
5.21023e-06
5.211e-06
5.2118e-06
5.21262e-06
5.21345e-06
5.21429e-06
5.21512e-06
5.21595e-06
5.21677e-06
5.21758e-06
5.21838e-06
5.21916e-06
5.21992e-06
5.22066e-06
5.22139e-06
5.22209e-06
5.22277e-06
5.22343e-06
5.22407e-06
5.22469e-06
5.22528e-06
5.22586e-06
5.22641e-06
5.22695e-06
5.22746e-06
5.22792e-06
5.20697e-06
5.20762e-06
5.20825e-06
5.2089e-06
5.20959e-06
5.21032e-06
5.21109e-06
5.21189e-06
5.2127e-06
5.21352e-06
5.21435e-06
5.21518e-06
5.216e-06
5.21681e-06
5.21761e-06
5.21839e-06
5.21916e-06
5.21991e-06
5.22065e-06
5.22136e-06
5.22206e-06
5.22273e-06
5.22338e-06
5.22401e-06
5.22462e-06
5.22521e-06
5.22578e-06
5.22633e-06
5.22686e-06
5.22737e-06
5.22786e-06
5.2283e-06
5.20698e-06
5.20766e-06
5.20831e-06
5.20898e-06
5.20967e-06
5.21041e-06
5.21118e-06
5.21197e-06
5.21278e-06
5.2136e-06
5.21441e-06
5.21523e-06
5.21604e-06
5.21684e-06
5.21763e-06
5.21841e-06
5.21917e-06
5.21991e-06
5.22064e-06
5.22134e-06
5.22203e-06
5.22269e-06
5.22334e-06
5.22396e-06
5.22457e-06
5.22515e-06
5.22572e-06
5.22626e-06
5.22679e-06
5.22729e-06
5.22778e-06
5.22825e-06
5.22867e-06
5.20699e-06
5.20769e-06
5.20836e-06
5.20904e-06
5.20975e-06
5.2105e-06
5.21127e-06
5.21206e-06
5.21286e-06
5.21367e-06
5.21448e-06
5.21528e-06
5.21609e-06
5.21688e-06
5.21766e-06
5.21842e-06
5.21918e-06
5.21991e-06
5.22063e-06
5.22133e-06
5.222e-06
5.22266e-06
5.2233e-06
5.22392e-06
5.22451e-06
5.22509e-06
5.22565e-06
5.22619e-06
5.22671e-06
5.22721e-06
5.2277e-06
5.22816e-06
5.22861e-06
5.22901e-06
5.207e-06
5.20773e-06
5.20841e-06
5.20911e-06
5.20983e-06
5.21058e-06
5.21135e-06
5.21214e-06
5.21293e-06
5.21374e-06
5.21454e-06
5.21534e-06
5.21613e-06
5.21691e-06
5.21769e-06
5.21844e-06
5.21919e-06
5.21991e-06
5.22062e-06
5.22131e-06
5.22198e-06
5.22263e-06
5.22326e-06
5.22387e-06
5.22447e-06
5.22504e-06
5.22559e-06
5.22613e-06
5.22664e-06
5.22714e-06
5.22762e-06
5.22808e-06
5.22853e-06
5.22896e-06
5.22934e-06
5.20701e-06
5.20776e-06
5.20846e-06
5.20917e-06
5.2099e-06
5.21066e-06
5.21143e-06
5.21221e-06
5.21301e-06
5.2138e-06
5.2146e-06
5.21539e-06
5.21618e-06
5.21695e-06
5.21772e-06
5.21847e-06
5.2192e-06
5.21992e-06
5.22062e-06
5.2213e-06
5.22196e-06
5.22261e-06
5.22323e-06
5.22383e-06
5.22442e-06
5.22499e-06
5.22553e-06
5.22606e-06
5.22658e-06
5.22707e-06
5.22754e-06
5.228e-06
5.22845e-06
5.22887e-06
5.22928e-06
5.22965e-06
5.20701e-06
5.20778e-06
5.20851e-06
5.20923e-06
5.20997e-06
5.21073e-06
5.2115e-06
5.21229e-06
5.21308e-06
5.21387e-06
5.21466e-06
5.21545e-06
5.21622e-06
5.21699e-06
5.21775e-06
5.21849e-06
5.21922e-06
5.21993e-06
5.22062e-06
5.22129e-06
5.22195e-06
5.22258e-06
5.2232e-06
5.2238e-06
5.22438e-06
5.22494e-06
5.22548e-06
5.22601e-06
5.22651e-06
5.227e-06
5.22747e-06
5.22793e-06
5.22837e-06
5.22879e-06
5.2292e-06
5.2296e-06
5.22995e-06
5.20702e-06
5.20781e-06
5.20855e-06
5.20929e-06
5.21004e-06
5.2108e-06
5.21158e-06
5.21236e-06
5.21315e-06
5.21394e-06
5.21472e-06
5.2155e-06
5.21627e-06
5.21703e-06
5.21778e-06
5.21851e-06
5.21923e-06
5.21993e-06
5.22062e-06
5.22129e-06
5.22193e-06
5.22256e-06
5.22317e-06
5.22377e-06
5.22434e-06
5.2249e-06
5.22543e-06
5.22595e-06
5.22646e-06
5.22694e-06
5.22741e-06
5.22786e-06
5.2283e-06
5.22872e-06
5.22912e-06
5.22952e-06
5.22989e-06
5.23023e-06
5.20703e-06
5.20784e-06
5.2086e-06
5.20935e-06
5.2101e-06
5.21087e-06
5.21165e-06
5.21243e-06
5.21322e-06
5.214e-06
5.21478e-06
5.21555e-06
5.21632e-06
5.21707e-06
5.21781e-06
5.21854e-06
5.21925e-06
5.21995e-06
5.22062e-06
5.22128e-06
5.22192e-06
5.22255e-06
5.22315e-06
5.22374e-06
5.2243e-06
5.22486e-06
5.22539e-06
5.2259e-06
5.2264e-06
5.22688e-06
5.22735e-06
5.22779e-06
5.22823e-06
5.22865e-06
5.22905e-06
5.22944e-06
5.22981e-06
5.23017e-06
5.23049e-06
5.20704e-06
5.20786e-06
5.20864e-06
5.2094e-06
5.21017e-06
5.21094e-06
5.21172e-06
5.2125e-06
5.21328e-06
5.21406e-06
5.21484e-06
5.21561e-06
5.21636e-06
5.21711e-06
5.21785e-06
5.21857e-06
5.21927e-06
5.21996e-06
5.22063e-06
5.22128e-06
5.22191e-06
5.22253e-06
5.22313e-06
5.22371e-06
5.22427e-06
5.22482e-06
5.22535e-06
5.22586e-06
5.22635e-06
5.22683e-06
5.22729e-06
5.22773e-06
5.22816e-06
5.22858e-06
5.22898e-06
5.22936e-06
5.22974e-06
5.23009e-06
5.23044e-06
5.23074e-06
5.20704e-06
5.20788e-06
5.20867e-06
5.20945e-06
5.21022e-06
5.211e-06
5.21178e-06
5.21257e-06
5.21335e-06
5.21412e-06
5.2149e-06
5.21566e-06
5.21641e-06
5.21715e-06
5.21788e-06
5.21859e-06
5.21929e-06
5.21997e-06
5.22063e-06
5.22128e-06
5.22191e-06
5.22252e-06
5.22311e-06
5.22369e-06
5.22424e-06
5.22478e-06
5.22531e-06
5.22581e-06
5.2263e-06
5.22677e-06
5.22723e-06
5.22767e-06
5.2281e-06
5.22851e-06
5.22891e-06
5.22929e-06
5.22966e-06
5.23002e-06
5.23036e-06
5.23069e-06
5.23098e-06
5.20705e-06
5.20791e-06
5.20871e-06
5.2095e-06
5.21028e-06
5.21106e-06
5.21185e-06
5.21263e-06
5.21341e-06
5.21419e-06
5.21495e-06
5.21571e-06
5.21646e-06
5.21719e-06
5.21792e-06
5.21862e-06
5.21931e-06
5.21999e-06
5.22064e-06
5.22128e-06
5.2219e-06
5.22251e-06
5.2231e-06
5.22367e-06
5.22422e-06
5.22475e-06
5.22527e-06
5.22577e-06
5.22626e-06
5.22672e-06
5.22718e-06
5.22762e-06
5.22804e-06
5.22845e-06
5.22884e-06
5.22922e-06
5.22959e-06
5.22995e-06
5.23029e-06
5.23061e-06
5.23093e-06
5.23121e-06
5.20705e-06
5.20793e-06
5.20875e-06
5.20954e-06
5.21033e-06
5.21112e-06
5.21191e-06
5.21269e-06
5.21347e-06
5.21424e-06
5.21501e-06
5.21576e-06
5.21651e-06
5.21724e-06
5.21795e-06
5.21865e-06
5.21934e-06
5.22e-06
5.22065e-06
5.22129e-06
5.2219e-06
5.2225e-06
5.22308e-06
5.22365e-06
5.22419e-06
5.22472e-06
5.22524e-06
5.22573e-06
5.22621e-06
5.22668e-06
5.22713e-06
5.22756e-06
5.22798e-06
5.22839e-06
5.22878e-06
5.22916e-06
5.22952e-06
5.22988e-06
5.23021e-06
5.23054e-06
5.23085e-06
5.23116e-06
5.23142e-06
5.20706e-06
5.20795e-06
5.20878e-06
5.20959e-06
5.21039e-06
5.21118e-06
5.21197e-06
5.21275e-06
5.21353e-06
5.2143e-06
5.21507e-06
5.21582e-06
5.21655e-06
5.21728e-06
5.21799e-06
5.21868e-06
5.21936e-06
5.22002e-06
5.22066e-06
5.22129e-06
5.2219e-06
5.2225e-06
5.22307e-06
5.22363e-06
5.22417e-06
5.2247e-06
5.22521e-06
5.2257e-06
5.22618e-06
5.22664e-06
5.22708e-06
5.22751e-06
5.22793e-06
5.22833e-06
5.22872e-06
5.2291e-06
5.22946e-06
5.22981e-06
5.23014e-06
5.23047e-06
5.23078e-06
5.23108e-06
5.23137e-06
5.23163e-06
5.20706e-06
5.20797e-06
5.20881e-06
5.20963e-06
5.21044e-06
5.21123e-06
5.21203e-06
5.21281e-06
5.21359e-06
5.21436e-06
5.21512e-06
5.21587e-06
5.2166e-06
5.21732e-06
5.21802e-06
5.21871e-06
5.21938e-06
5.22004e-06
5.22068e-06
5.2213e-06
5.2219e-06
5.22249e-06
5.22306e-06
5.22362e-06
5.22415e-06
5.22467e-06
5.22518e-06
5.22567e-06
5.22614e-06
5.2266e-06
5.22704e-06
5.22747e-06
5.22788e-06
5.22828e-06
5.22867e-06
5.22904e-06
5.2294e-06
5.22975e-06
5.23008e-06
5.2304e-06
5.23071e-06
5.23101e-06
5.2313e-06
5.23158e-06
5.23183e-06
5.20707e-06
5.20798e-06
5.20884e-06
5.20967e-06
5.21048e-06
5.21129e-06
5.21209e-06
5.21287e-06
5.21365e-06
5.21442e-06
5.21517e-06
5.21592e-06
5.21665e-06
5.21736e-06
5.21806e-06
5.21874e-06
5.21941e-06
5.22006e-06
5.22069e-06
5.22131e-06
5.22191e-06
5.22249e-06
5.22306e-06
5.22361e-06
5.22414e-06
5.22465e-06
5.22515e-06
5.22564e-06
5.22611e-06
5.22656e-06
5.227e-06
5.22742e-06
5.22783e-06
5.22823e-06
5.22861e-06
5.22898e-06
5.22934e-06
5.22968e-06
5.23002e-06
5.23034e-06
5.23064e-06
5.23094e-06
5.23123e-06
5.23151e-06
5.23178e-06
5.23201e-06
5.20707e-06
5.208e-06
5.20887e-06
5.20971e-06
5.21053e-06
5.21134e-06
5.21214e-06
5.21293e-06
5.21371e-06
5.21447e-06
5.21523e-06
5.21597e-06
5.21669e-06
5.2174e-06
5.21809e-06
5.21877e-06
5.21943e-06
5.22008e-06
5.22071e-06
5.22132e-06
5.22191e-06
5.22249e-06
5.22305e-06
5.2236e-06
5.22412e-06
5.22464e-06
5.22513e-06
5.22561e-06
5.22607e-06
5.22652e-06
5.22696e-06
5.22738e-06
5.22779e-06
5.22818e-06
5.22856e-06
5.22893e-06
5.22928e-06
5.22963e-06
5.22996e-06
5.23027e-06
5.23058e-06
5.23088e-06
5.23116e-06
5.23144e-06
5.23171e-06
5.23197e-06
5.2322e-06
5.20708e-06
5.20802e-06
5.2089e-06
5.20975e-06
5.21058e-06
5.21139e-06
5.2122e-06
5.21299e-06
5.21376e-06
5.21453e-06
5.21528e-06
5.21602e-06
5.21674e-06
5.21744e-06
5.21813e-06
5.2188e-06
5.21946e-06
5.2201e-06
5.22072e-06
5.22133e-06
5.22192e-06
5.22249e-06
5.22305e-06
5.22359e-06
5.22411e-06
5.22462e-06
5.22511e-06
5.22559e-06
5.22605e-06
5.22649e-06
5.22692e-06
5.22734e-06
5.22775e-06
5.22814e-06
5.22851e-06
5.22888e-06
5.22923e-06
5.22957e-06
5.2299e-06
5.23021e-06
5.23052e-06
5.23081e-06
5.2311e-06
5.23138e-06
5.23164e-06
5.2319e-06
5.23215e-06
5.23237e-06
5.20708e-06
5.20803e-06
5.20892e-06
5.20978e-06
5.21062e-06
5.21144e-06
5.21225e-06
5.21304e-06
5.21382e-06
5.21458e-06
5.21533e-06
5.21606e-06
5.21678e-06
5.21748e-06
5.21817e-06
5.21884e-06
5.21949e-06
5.22012e-06
5.22074e-06
5.22134e-06
5.22193e-06
5.2225e-06
5.22305e-06
5.22358e-06
5.2241e-06
5.2246e-06
5.22509e-06
5.22556e-06
5.22602e-06
5.22646e-06
5.22689e-06
5.22731e-06
5.22771e-06
5.2281e-06
5.22847e-06
5.22883e-06
5.22918e-06
5.22952e-06
5.22984e-06
5.23016e-06
5.23046e-06
5.23075e-06
5.23104e-06
5.23131e-06
5.23158e-06
5.23183e-06
5.23208e-06
5.23232e-06
5.23253e-06
5.20709e-06
5.20805e-06
5.20895e-06
5.20982e-06
5.21066e-06
5.21149e-06
5.2123e-06
5.21309e-06
5.21387e-06
5.21463e-06
5.21538e-06
5.21611e-06
5.21683e-06
5.21752e-06
5.2182e-06
5.21887e-06
5.21952e-06
5.22015e-06
5.22076e-06
5.22136e-06
5.22194e-06
5.2225e-06
5.22305e-06
5.22358e-06
5.22409e-06
5.22459e-06
5.22507e-06
5.22554e-06
5.226e-06
5.22644e-06
5.22686e-06
5.22727e-06
5.22767e-06
5.22806e-06
5.22843e-06
5.22879e-06
5.22913e-06
5.22947e-06
5.22979e-06
5.2301e-06
5.2304e-06
5.2307e-06
5.23098e-06
5.23125e-06
5.23152e-06
5.23177e-06
5.23202e-06
5.23226e-06
5.23249e-06
5.23269e-06
5.20709e-06
5.20806e-06
5.20898e-06
5.20985e-06
5.2107e-06
5.21154e-06
5.21235e-06
5.21314e-06
5.21392e-06
5.21468e-06
5.21543e-06
5.21616e-06
5.21687e-06
5.21756e-06
5.21824e-06
5.2189e-06
5.21955e-06
5.22017e-06
5.22078e-06
5.22137e-06
5.22195e-06
5.22251e-06
5.22305e-06
5.22358e-06
5.22409e-06
5.22458e-06
5.22506e-06
5.22553e-06
5.22598e-06
5.22641e-06
5.22683e-06
5.22724e-06
5.22764e-06
5.22802e-06
5.22839e-06
5.22874e-06
5.22909e-06
5.22942e-06
5.22974e-06
5.23005e-06
5.23035e-06
5.23064e-06
5.23092e-06
5.23119e-06
5.23146e-06
5.23171e-06
5.23196e-06
5.23219e-06
5.23242e-06
5.23264e-06
5.23284e-06
5.20709e-06
5.20808e-06
5.209e-06
5.20989e-06
5.21074e-06
5.21158e-06
5.2124e-06
5.21319e-06
5.21397e-06
5.21473e-06
5.21548e-06
5.2162e-06
5.21691e-06
5.2176e-06
5.21828e-06
5.21894e-06
5.21958e-06
5.2202e-06
5.2208e-06
5.22139e-06
5.22196e-06
5.22252e-06
5.22305e-06
5.22358e-06
5.22408e-06
5.22457e-06
5.22505e-06
5.22551e-06
5.22596e-06
5.22639e-06
5.22681e-06
5.22721e-06
5.2276e-06
5.22798e-06
5.22835e-06
5.2287e-06
5.22904e-06
5.22937e-06
5.22969e-06
5.23e-06
5.2303e-06
5.23059e-06
5.23087e-06
5.23114e-06
5.2314e-06
5.23165e-06
5.2319e-06
5.23213e-06
5.23236e-06
5.23258e-06
5.23279e-06
5.23298e-06
5.2071e-06
5.20809e-06
5.20902e-06
5.20992e-06
5.21078e-06
5.21162e-06
5.21244e-06
5.21324e-06
5.21402e-06
5.21478e-06
5.21553e-06
5.21625e-06
5.21696e-06
5.21765e-06
5.21832e-06
5.21897e-06
5.21961e-06
5.22022e-06
5.22082e-06
5.22141e-06
5.22198e-06
5.22253e-06
5.22306e-06
5.22358e-06
5.22408e-06
5.22457e-06
5.22504e-06
5.2255e-06
5.22594e-06
5.22637e-06
5.22678e-06
5.22718e-06
5.22757e-06
5.22795e-06
5.22831e-06
5.22866e-06
5.229e-06
5.22933e-06
5.22965e-06
5.22995e-06
5.23025e-06
5.23054e-06
5.23082e-06
5.23108e-06
5.23134e-06
5.2316e-06
5.23184e-06
5.23208e-06
5.2323e-06
5.23252e-06
5.23273e-06
5.23294e-06
5.23311e-06
5.2071e-06
5.2081e-06
5.20905e-06
5.20995e-06
5.21082e-06
5.21167e-06
5.21249e-06
5.21329e-06
5.21407e-06
5.21483e-06
5.21557e-06
5.2163e-06
5.217e-06
5.21769e-06
5.21835e-06
5.219e-06
5.21964e-06
5.22025e-06
5.22085e-06
5.22143e-06
5.22199e-06
5.22254e-06
5.22307e-06
5.22358e-06
5.22408e-06
5.22456e-06
5.22503e-06
5.22548e-06
5.22592e-06
5.22635e-06
5.22676e-06
5.22716e-06
5.22754e-06
5.22792e-06
5.22828e-06
5.22863e-06
5.22896e-06
5.22929e-06
5.2296e-06
5.22991e-06
5.2302e-06
5.23049e-06
5.23077e-06
5.23103e-06
5.23129e-06
5.23154e-06
5.23179e-06
5.23202e-06
5.23225e-06
5.23246e-06
5.23267e-06
5.23288e-06
5.23307e-06
5.23324e-06
5.2071e-06
5.20812e-06
5.20907e-06
5.20998e-06
5.21085e-06
5.21171e-06
5.21253e-06
5.21334e-06
5.21412e-06
5.21488e-06
5.21562e-06
5.21634e-06
5.21704e-06
5.21773e-06
5.21839e-06
5.21904e-06
5.21967e-06
5.22028e-06
5.22087e-06
5.22145e-06
5.222e-06
5.22255e-06
5.22307e-06
5.22358e-06
5.22408e-06
5.22456e-06
5.22502e-06
5.22547e-06
5.22591e-06
5.22633e-06
5.22674e-06
5.22714e-06
5.22752e-06
5.22789e-06
5.22825e-06
5.22859e-06
5.22893e-06
5.22925e-06
5.22956e-06
5.22986e-06
5.23016e-06
5.23044e-06
5.23072e-06
5.23098e-06
5.23124e-06
5.23149e-06
5.23173e-06
5.23197e-06
5.23219e-06
5.23241e-06
5.23262e-06
5.23282e-06
5.23301e-06
5.2332e-06
5.23336e-06
5.20711e-06
5.20813e-06
5.20909e-06
5.21001e-06
5.21089e-06
5.21175e-06
5.21258e-06
5.21338e-06
5.21416e-06
5.21493e-06
5.21567e-06
5.21639e-06
5.21709e-06
5.21777e-06
5.21843e-06
5.21907e-06
5.2197e-06
5.2203e-06
5.22089e-06
5.22147e-06
5.22202e-06
5.22256e-06
5.22308e-06
5.22359e-06
5.22408e-06
5.22456e-06
5.22502e-06
5.22546e-06
5.2259e-06
5.22632e-06
5.22672e-06
5.22711e-06
5.22749e-06
5.22786e-06
5.22821e-06
5.22856e-06
5.22889e-06
5.22921e-06
5.22952e-06
5.22982e-06
5.23012e-06
5.2304e-06
5.23067e-06
5.23094e-06
5.23119e-06
5.23144e-06
5.23168e-06
5.23191e-06
5.23214e-06
5.23235e-06
5.23256e-06
5.23276e-06
5.23296e-06
5.23314e-06
5.23332e-06
5.23348e-06
5.20711e-06
5.20814e-06
5.20911e-06
5.21003e-06
5.21092e-06
5.21178e-06
5.21262e-06
5.21343e-06
5.21421e-06
5.21497e-06
5.21571e-06
5.21643e-06
5.21713e-06
5.21781e-06
5.21847e-06
5.21911e-06
5.21973e-06
5.22033e-06
5.22092e-06
5.22149e-06
5.22204e-06
5.22257e-06
5.22309e-06
5.2236e-06
5.22408e-06
5.22456e-06
5.22501e-06
5.22546e-06
5.22589e-06
5.2263e-06
5.22671e-06
5.22709e-06
5.22747e-06
5.22783e-06
5.22819e-06
5.22853e-06
5.22886e-06
5.22918e-06
5.22949e-06
5.22979e-06
5.23008e-06
5.23036e-06
5.23063e-06
5.23089e-06
5.23115e-06
5.23139e-06
5.23163e-06
5.23186e-06
5.23209e-06
5.2323e-06
5.23251e-06
5.23271e-06
5.2329e-06
5.23309e-06
5.23327e-06
5.23344e-06
5.23359e-06
5.20711e-06
5.20815e-06
5.20913e-06
5.21006e-06
5.21096e-06
5.21182e-06
5.21266e-06
5.21347e-06
5.21426e-06
5.21502e-06
5.21576e-06
5.21647e-06
5.21717e-06
5.21785e-06
5.2185e-06
5.21914e-06
5.21976e-06
5.22036e-06
5.22094e-06
5.22151e-06
5.22206e-06
5.22259e-06
5.2231e-06
5.2236e-06
5.22409e-06
5.22456e-06
5.22501e-06
5.22545e-06
5.22588e-06
5.22629e-06
5.22669e-06
5.22708e-06
5.22745e-06
5.22781e-06
5.22816e-06
5.2285e-06
5.22883e-06
5.22914e-06
5.22945e-06
5.22975e-06
5.23004e-06
5.23032e-06
5.23059e-06
5.23085e-06
5.2311e-06
5.23135e-06
5.23158e-06
5.23181e-06
5.23204e-06
5.23225e-06
5.23246e-06
5.23266e-06
5.23285e-06
5.23303e-06
5.23321e-06
5.23338e-06
5.23355e-06
5.23369e-06
5.20712e-06
5.20817e-06
5.20915e-06
5.21009e-06
5.21099e-06
5.21186e-06
5.2127e-06
5.21351e-06
5.2143e-06
5.21506e-06
5.2158e-06
5.21652e-06
5.21721e-06
5.21789e-06
5.21854e-06
5.21917e-06
5.21979e-06
5.22039e-06
5.22097e-06
5.22153e-06
5.22207e-06
5.2226e-06
5.22312e-06
5.22361e-06
5.22409e-06
5.22456e-06
5.22501e-06
5.22545e-06
5.22587e-06
5.22628e-06
5.22668e-06
5.22706e-06
5.22743e-06
5.22779e-06
5.22814e-06
5.22847e-06
5.2288e-06
5.22911e-06
5.22942e-06
5.22971e-06
5.23e-06
5.23028e-06
5.23055e-06
5.23081e-06
5.23106e-06
5.2313e-06
5.23154e-06
5.23177e-06
5.23199e-06
5.2322e-06
5.23241e-06
5.2326e-06
5.2328e-06
5.23298e-06
5.23316e-06
5.23333e-06
5.2335e-06
5.23365e-06
5.23379e-06
5.20712e-06
5.20818e-06
5.20917e-06
5.21011e-06
5.21102e-06
5.2119e-06
5.21274e-06
5.21355e-06
5.21434e-06
5.2151e-06
5.21584e-06
5.21656e-06
5.21725e-06
5.21792e-06
5.21858e-06
5.21921e-06
5.21982e-06
5.22042e-06
5.22099e-06
5.22155e-06
5.22209e-06
5.22262e-06
5.22313e-06
5.22362e-06
5.2241e-06
5.22456e-06
5.22501e-06
5.22544e-06
5.22586e-06
5.22627e-06
5.22666e-06
5.22704e-06
5.22741e-06
5.22777e-06
5.22811e-06
5.22845e-06
5.22877e-06
5.22908e-06
5.22939e-06
5.22968e-06
5.22997e-06
5.23024e-06
5.23051e-06
5.23077e-06
5.23102e-06
5.23126e-06
5.2315e-06
5.23172e-06
5.23194e-06
5.23215e-06
5.23236e-06
5.23256e-06
5.23275e-06
5.23293e-06
5.23311e-06
5.23328e-06
5.23344e-06
5.23361e-06
5.23376e-06
5.23389e-06
5.20712e-06
5.20819e-06
5.20919e-06
5.21014e-06
5.21105e-06
5.21193e-06
5.21278e-06
5.21359e-06
5.21438e-06
5.21515e-06
5.21588e-06
5.2166e-06
5.21729e-06
5.21796e-06
5.21861e-06
5.21924e-06
5.21985e-06
5.22045e-06
5.22102e-06
5.22158e-06
5.22212e-06
5.22264e-06
5.22314e-06
5.22363e-06
5.22411e-06
5.22457e-06
5.22501e-06
5.22544e-06
5.22586e-06
5.22626e-06
5.22665e-06
5.22703e-06
5.22739e-06
5.22775e-06
5.22809e-06
5.22842e-06
5.22874e-06
5.22906e-06
5.22936e-06
5.22965e-06
5.22993e-06
5.23021e-06
5.23047e-06
5.23073e-06
5.23098e-06
5.23122e-06
5.23145e-06
5.23168e-06
5.2319e-06
5.23211e-06
5.23231e-06
5.23251e-06
5.2327e-06
5.23288e-06
5.23306e-06
5.23323e-06
5.23339e-06
5.23355e-06
5.23371e-06
5.23385e-06
5.23398e-06
5.20713e-06
5.2082e-06
5.2092e-06
5.21016e-06
5.21108e-06
5.21196e-06
5.21281e-06
5.21363e-06
5.21442e-06
5.21519e-06
5.21593e-06
5.21664e-06
5.21733e-06
5.218e-06
5.21865e-06
5.21928e-06
5.21989e-06
5.22048e-06
5.22105e-06
5.2216e-06
5.22214e-06
5.22266e-06
5.22316e-06
5.22365e-06
5.22412e-06
5.22457e-06
5.22501e-06
5.22544e-06
5.22585e-06
5.22626e-06
5.22664e-06
5.22702e-06
5.22738e-06
5.22773e-06
5.22807e-06
5.2284e-06
5.22872e-06
5.22903e-06
5.22933e-06
5.22962e-06
5.2299e-06
5.23017e-06
5.23044e-06
5.23069e-06
5.23094e-06
5.23118e-06
5.23141e-06
5.23164e-06
5.23185e-06
5.23206e-06
5.23227e-06
5.23246e-06
5.23265e-06
5.23283e-06
5.23301e-06
5.23318e-06
5.23334e-06
5.2335e-06
5.23366e-06
5.23381e-06
5.23394e-06
5.23407e-06
5.20713e-06
5.20821e-06
5.20922e-06
5.21019e-06
5.21111e-06
5.212e-06
5.21285e-06
5.21367e-06
5.21446e-06
5.21523e-06
5.21597e-06
5.21668e-06
5.21737e-06
5.21804e-06
5.21869e-06
5.21931e-06
5.21992e-06
5.22051e-06
5.22107e-06
5.22163e-06
5.22216e-06
5.22267e-06
5.22317e-06
5.22366e-06
5.22413e-06
5.22458e-06
5.22502e-06
5.22544e-06
5.22585e-06
5.22625e-06
5.22663e-06
5.22701e-06
5.22737e-06
5.22771e-06
5.22805e-06
5.22838e-06
5.2287e-06
5.229e-06
5.2293e-06
5.22959e-06
5.22987e-06
5.23014e-06
5.23041e-06
5.23066e-06
5.23091e-06
5.23114e-06
5.23138e-06
5.2316e-06
5.23181e-06
5.23202e-06
5.23222e-06
5.23242e-06
5.23261e-06
5.23279e-06
5.23296e-06
5.23313e-06
5.2333e-06
5.23346e-06
5.23361e-06
5.23376e-06
5.2339e-06
5.23403e-06
5.23415e-06
5.20713e-06
5.20822e-06
5.20924e-06
5.21021e-06
5.21114e-06
5.21203e-06
5.21289e-06
5.21371e-06
5.21451e-06
5.21527e-06
5.21601e-06
5.21672e-06
5.21741e-06
5.21808e-06
5.21872e-06
5.21935e-06
5.21995e-06
5.22054e-06
5.2211e-06
5.22165e-06
5.22218e-06
5.22269e-06
5.22319e-06
5.22367e-06
5.22414e-06
5.22459e-06
5.22502e-06
5.22544e-06
5.22585e-06
5.22624e-06
5.22663e-06
5.227e-06
5.22735e-06
5.2277e-06
5.22804e-06
5.22836e-06
5.22868e-06
5.22898e-06
5.22928e-06
5.22957e-06
5.22984e-06
5.23011e-06
5.23037e-06
5.23063e-06
5.23087e-06
5.23111e-06
5.23134e-06
5.23156e-06
5.23177e-06
5.23198e-06
5.23218e-06
5.23237e-06
5.23256e-06
5.23274e-06
5.23292e-06
5.23309e-06
5.23325e-06
5.23341e-06
5.23356e-06
5.23371e-06
5.23385e-06
5.23399e-06
5.23412e-06
5.23423e-06
5.20713e-06
5.20823e-06
5.20925e-06
5.21023e-06
5.21117e-06
5.21206e-06
5.21292e-06
5.21375e-06
5.21455e-06
5.21531e-06
5.21605e-06
5.21676e-06
5.21745e-06
5.21812e-06
5.21876e-06
5.21938e-06
5.21999e-06
5.22057e-06
5.22113e-06
5.22168e-06
5.2222e-06
5.22271e-06
5.22321e-06
5.22368e-06
5.22415e-06
5.22459e-06
5.22503e-06
5.22544e-06
5.22585e-06
5.22624e-06
5.22662e-06
5.22699e-06
5.22734e-06
5.22769e-06
5.22802e-06
5.22834e-06
5.22866e-06
5.22896e-06
5.22926e-06
5.22954e-06
5.22982e-06
5.23009e-06
5.23034e-06
5.2306e-06
5.23084e-06
5.23107e-06
5.2313e-06
5.23152e-06
5.23174e-06
5.23194e-06
5.23214e-06
5.23233e-06
5.23252e-06
5.2327e-06
5.23287e-06
5.23304e-06
5.23321e-06
5.23336e-06
5.23352e-06
5.23366e-06
5.23381e-06
5.23394e-06
5.23407e-06
5.2342e-06
5.2343e-06
5.20714e-06
5.20824e-06
5.20927e-06
5.21026e-06
5.2112e-06
5.2121e-06
5.21296e-06
5.21379e-06
5.21458e-06
5.21535e-06
5.21609e-06
5.2168e-06
5.21749e-06
5.21816e-06
5.2188e-06
5.21942e-06
5.22002e-06
5.2206e-06
5.22116e-06
5.2217e-06
5.22223e-06
5.22273e-06
5.22322e-06
5.2237e-06
5.22416e-06
5.2246e-06
5.22503e-06
5.22545e-06
5.22585e-06
5.22624e-06
5.22662e-06
5.22698e-06
5.22733e-06
5.22768e-06
5.22801e-06
5.22833e-06
5.22864e-06
5.22894e-06
5.22923e-06
5.22952e-06
5.22979e-06
5.23006e-06
5.23032e-06
5.23057e-06
5.23081e-06
5.23104e-06
5.23127e-06
5.23149e-06
5.2317e-06
5.2319e-06
5.2321e-06
5.23229e-06
5.23248e-06
5.23266e-06
5.23283e-06
5.233e-06
5.23316e-06
5.23332e-06
5.23347e-06
5.23362e-06
5.23376e-06
5.2339e-06
5.23403e-06
5.23416e-06
5.23427e-06
5.23437e-06
5.20714e-06
5.20825e-06
5.20929e-06
5.21028e-06
5.21122e-06
5.21213e-06
5.21299e-06
5.21382e-06
5.21462e-06
5.21539e-06
5.21613e-06
5.21684e-06
5.21753e-06
5.21819e-06
5.21883e-06
5.21945e-06
5.22005e-06
5.22063e-06
5.22119e-06
5.22173e-06
5.22225e-06
5.22275e-06
5.22324e-06
5.22371e-06
5.22417e-06
5.22461e-06
5.22504e-06
5.22545e-06
5.22585e-06
5.22624e-06
5.22661e-06
5.22697e-06
5.22733e-06
5.22767e-06
5.228e-06
5.22831e-06
5.22862e-06
5.22892e-06
5.22921e-06
5.2295e-06
5.22977e-06
5.23003e-06
5.23029e-06
5.23054e-06
5.23078e-06
5.23101e-06
5.23123e-06
5.23145e-06
5.23166e-06
5.23187e-06
5.23206e-06
5.23226e-06
5.23244e-06
5.23262e-06
5.23279e-06
5.23296e-06
5.23312e-06
5.23328e-06
5.23343e-06
5.23358e-06
5.23372e-06
5.23385e-06
5.23398e-06
5.23411e-06
5.23423e-06
5.23434e-06
5.23444e-06
5.20714e-06
5.20825e-06
5.2093e-06
5.2103e-06
5.21125e-06
5.21216e-06
5.21303e-06
5.21386e-06
5.21466e-06
5.21543e-06
5.21617e-06
5.21688e-06
5.21757e-06
5.21823e-06
5.21887e-06
5.21949e-06
5.22008e-06
5.22066e-06
5.22121e-06
5.22175e-06
5.22227e-06
5.22277e-06
5.22326e-06
5.22373e-06
5.22418e-06
5.22462e-06
5.22505e-06
5.22546e-06
5.22585e-06
5.22624e-06
5.22661e-06
5.22697e-06
5.22732e-06
5.22766e-06
5.22798e-06
5.2283e-06
5.22861e-06
5.22891e-06
5.2292e-06
5.22948e-06
5.22975e-06
5.23001e-06
5.23026e-06
5.23051e-06
5.23075e-06
5.23098e-06
5.2312e-06
5.23142e-06
5.23163e-06
5.23183e-06
5.23203e-06
5.23222e-06
5.2324e-06
5.23258e-06
5.23275e-06
5.23292e-06
5.23308e-06
5.23324e-06
5.23339e-06
5.23354e-06
5.23368e-06
5.23381e-06
5.23394e-06
5.23407e-06
5.23419e-06
5.2343e-06
5.23441e-06
5.2345e-06
5.20714e-06
5.20826e-06
5.20932e-06
5.21032e-06
5.21127e-06
5.21218e-06
5.21306e-06
5.21389e-06
5.2147e-06
5.21547e-06
5.21621e-06
5.21692e-06
5.21761e-06
5.21827e-06
5.21891e-06
5.21952e-06
5.22011e-06
5.22069e-06
5.22124e-06
5.22178e-06
5.22229e-06
5.22279e-06
5.22328e-06
5.22374e-06
5.22419e-06
5.22463e-06
5.22505e-06
5.22546e-06
5.22586e-06
5.22624e-06
5.22661e-06
5.22697e-06
5.22731e-06
5.22765e-06
5.22798e-06
5.22829e-06
5.2286e-06
5.22889e-06
5.22918e-06
5.22946e-06
5.22973e-06
5.22999e-06
5.23024e-06
5.23048e-06
5.23072e-06
5.23095e-06
5.23117e-06
5.23139e-06
5.2316e-06
5.2318e-06
5.23199e-06
5.23218e-06
5.23237e-06
5.23254e-06
5.23272e-06
5.23288e-06
5.23304e-06
5.2332e-06
5.23335e-06
5.2335e-06
5.23364e-06
5.23377e-06
5.2339e-06
5.23403e-06
5.23415e-06
5.23426e-06
5.23437e-06
5.23447e-06
5.23456e-06
5.20715e-06
5.20827e-06
5.20933e-06
5.21034e-06
5.2113e-06
5.21221e-06
5.21309e-06
5.21393e-06
5.21473e-06
5.2155e-06
5.21624e-06
5.21696e-06
5.21764e-06
5.2183e-06
5.21894e-06
5.21955e-06
5.22015e-06
5.22072e-06
5.22127e-06
5.2218e-06
5.22232e-06
5.22281e-06
5.22329e-06
5.22376e-06
5.22421e-06
5.22464e-06
5.22506e-06
5.22547e-06
5.22586e-06
5.22624e-06
5.22661e-06
5.22697e-06
5.22731e-06
5.22764e-06
5.22797e-06
5.22828e-06
5.22858e-06
5.22888e-06
5.22916e-06
5.22944e-06
5.22971e-06
5.22997e-06
5.23022e-06
5.23046e-06
5.2307e-06
5.23092e-06
5.23114e-06
5.23136e-06
5.23156e-06
5.23177e-06
5.23196e-06
5.23215e-06
5.23233e-06
5.23251e-06
5.23268e-06
5.23284e-06
5.23301e-06
5.23316e-06
5.23331e-06
5.23346e-06
5.2336e-06
5.23373e-06
5.23386e-06