/*--------------------------------*- C++ -*----------------------------------*\
  =========                 |
  \\      /  F ield         | OpenFOAM: The Open Source CFD Toolbox
   \\    /   O peration     | Website:  https://openfoam.org
    \\  /    A nd           | Version:  7
     \\/     M anipulation  |
\*---------------------------------------------------------------------------*/
FoamFile
{
    version     2.0;
    format      ascii;
    class       volScalarField;
    location    "1000";
    object      p;
}
// * * * * * * * * * * * * * * * * * * * * * * * * * * * * * * * * * * * * * //

dimensions      [0 2 -2 0 0 0 0];

internalField   nonuniform List<scalar> 
23052
(
37.3653
34.8747
23.5658
33.2125
24.6367
27.0908
32.0147
25.0575
26.2939
27.5402
31.136
25.1973
25.8358
27.6145
28.2536
28.9227
30.4591
25.2078
25.5313
27.5255
28.1082
28.9305
30.0216
30.8342
29.9176
25.1685
25.3031
27.3761
27.9985
28.8739
29.9198
30.8415
31.9362
29.4671
25.1151
25.116
27.2058
27.8926
28.783
29.8281
30.7999
31.8991
32.9594
29.0814
25.0621
24.9546
27.0317
27.7813
28.6763
29.7316
30.7351
31.8226
32.9404
34.1103
28.7385
25.0144
24.8113
26.8601
27.6633
28.5597
29.6266
30.6514
31.7406
32.8751
34.0782
35.2914
28.4253
24.9712
24.6823
26.6933
27.5397
28.4359
29.5124
30.554
31.6481
32.7959
34.0002
35.2604
36.5494
28.1354
24.9307
24.564
26.531
27.4118
28.3065
29.3892
30.4448
31.545
32.702
33.9126
35.1793
36.5123
37.8624
27.8575
24.8909
24.4545
26.3725
27.2805
28.1721
29.2581
30.3251
31.4312
32.5958
33.8123
35.0866
36.4226
37.8223
39.2421
27.5908
24.8483
24.3514
26.2169
27.1461
28.0333
29.1199
30.1957
31.3072
32.4779
33.7004
34.9803
36.3223
37.7259
39.1973
40.6843
27.33
24.8015
24.2524
26.0631
27.0089
27.8901
28.975
30.0577
31.1736
32.3492
33.5769
34.8621
36.2087
37.6184
39.0926
40.6354
42.1929
27.0711
24.7479
24.1557
25.9099
26.8685
27.743
28.8238
29.9114
31.0306
32.2101
33.4424
34.732
36.0831
37.4972
38.977
40.5227
42.1394
43.768
26.8145
24.6864
24.0595
25.7563
26.7245
27.5918
28.6668
29.7572
30.8788
32.0611
33.2972
34.5906
35.9456
37.364
38.8478
40.399
42.0182
43.7099
45.4115
26.559
24.6162
23.9622
25.6016
26.5766
27.4362
28.5038
29.5957
30.7183
31.9026
33.1417
34.4383
35.7967
37.2187
38.7063
40.2615
41.886
43.5801
45.3487
47.1248
26.3012
24.5359
23.8625
25.4447
26.4244
27.2761
28.3351
29.4269
30.5498
31.7349
32.9762
34.2753
35.6365
37.0617
38.5527
40.1116
41.7398
43.4393
45.2102
47.0573
48.9099
26.04
24.4446
23.7591
25.2848
26.2674
27.1111
28.1607
29.251
30.3733
31.5584
32.8011
34.1021
35.4655
36.8932
38.3872
39.9492
41.5812
43.2843
45.0606
46.91
48.8375
50.7684
25.7778
24.3422
23.6508
25.1214
26.1051
26.9412
27.9803
29.0683
30.189
31.3733
32.6166
33.9188
35.2839
36.7137
38.2101
39.7749
41.4099
43.1167
44.8966
46.7515
48.6813
50.691
52.7023
25.5124
24.2287
23.5372
24.9536
25.9371
26.766
27.7943
28.8786
29.9972
31.1799
32.4231
33.7259
35.092
36.5234
38.0217
39.5888
41.2265
42.9363
44.7198
46.5783
48.5137
50.5258
52.6199
54.7137
25.2421
24.1037
23.4175
24.7812
25.7631
26.5851
27.6022
28.6822
29.7978
30.9783
32.2207
33.5234
34.8901
36.3225
37.8223
39.3912
41.0311
42.7436
44.5301
46.3923
48.3314
50.3493
52.4457
54.6263
56.8048
24.9679
23.9668
23.2908
24.6036
25.5828
26.3983
27.4041
28.4789
29.5911
30.7687
32.0096
33.3117
34.6784
36.1113
37.612
39.1824
40.824
42.5387
44.3278
46.1931
48.1359
50.1575
52.26
54.443
56.7122
58.9777
24.6912
23.8183
23.1567
24.4204
25.396
26.2055
27.1998
28.2689
29.3771
30.5512
31.7901
33.091
34.4571
35.89
37.3912
38.9625
40.6055
42.3219
44.1132
45.9811
47.927
49.9525
52.0589
54.248
56.5199
58.88
61.2349
24.4092
23.6584
23.0152
24.2314
25.2026
26.0064
26.9893
28.0521
29.1559
30.3261
31.5622
32.8615
34.2264
35.6588
37.16
38.7318
40.3757
42.0934
43.8865
45.7566
47.7052
49.7339
51.8442
54.0374
56.3156
58.6785
61.1319
63.5788
24.1237
23.4872
22.8656
24.0364
25.0023
25.8009
26.7724
27.8286
28.9276
30.0933
31.3263
32.6233
33.9866
35.4181
36.9188
38.4905
40.1349
41.8534
43.6478
45.5197
47.4706
49.5021
51.6157
53.8131
56.0954
58.4649
60.9213
63.4705
66.0121
23.834
23.3049
22.708
23.835
24.795
25.5887
26.5491
27.5982
28.6921
29.853
31.0824
32.3766
33.7379
35.1678
36.6676
38.2389
39.8832
41.6022
43.3976
45.2708
47.2235
49.2573
51.3739
53.5747
55.8613
58.2352
60.6984
63.2507
65.8982
68.5371
23.5401
23.1118
22.542
23.6274
24.5806
25.37
26.3194
27.3611
28.4495
29.6053
30.8306
32.1217
33.4804
34.9084
36.4068
37.9771
39.621
41.34
43.1358
45.0099
46.964
48.9998
51.1187
53.3226
55.6128
57.9912
60.4591
63.0185
65.6693
68.4178
71.1568
23.2426
22.9083
22.3677
23.4133
24.3593
25.1445
26.0832
27.1174
28.2
29.3503
30.571
31.8585
33.2142
34.6398
36.1364
37.7054
39.3483
41.0669
42.8627
44.7373
46.6924
48.7296
50.8506
53.057
55.3505
57.7326
60.2052
62.7694
65.4277
68.1797
71.0319
73.874
22.9405
22.6945
22.1851
23.1927
24.1309
24.9121
25.8405
26.8669
27.9435
29.0881
30.3039
31.5874
32.9397
34.3624
35.8567
37.4239
39.0655
40.7832
42.5785
44.4532
46.4088
48.4471
50.5696
52.7781
55.0743
57.4598
59.9363
62.5056
65.169
67.9288
70.7847
73.7434
76.6917
22.6353
22.4707
21.994
22.9655
23.8954
24.6731
25.5913
26.6097
27.6802
28.8187
30.0293
31.3083
32.6568
34.0763
35.5678
37.1328
38.7726
40.489
42.2835
44.1577
46.1134
48.1523
50.276
52.4862
54.7845
57.173
59.6531
62.2265
64.8952
67.6604
70.5245
73.4872
76.5553
79.6127
22.3262
22.2375
21.7946
22.7319
23.6531
24.4274
25.3357
26.3459
27.41
28.5423
29.7473
31.0216
32.3658
33.7816
35.27
36.8322
38.4699
40.1845
41.9778
43.8512
45.8065
47.8455
49.9699
52.1813
54.4815
56.8723
59.3554
61.9327
64.6058
67.3765
70.2464
73.2177
76.29
79.4703
82.64
22.0133
21.9951
21.5869
22.4917
23.4038
24.1749
25.0736
26.0756
27.1332
28.259
29.4581
30.7272
32.0668
33.4785
34.9634
36.5225
38.1576
39.87
41.6614
43.5336
45.4882
47.5268
49.6514
51.8636
54.1652
56.558
59.0437
61.6242
64.3014
67.0768
69.9525
72.9298
76.0112
79.1962
82.4918
85.7769
21.6969
21.7439
21.3712
22.2452
23.1478
23.9157
24.8051
25.7988
26.8497
27.9688
29.1618
30.4254
31.76
33.1672
34.6481
36.2037
37.8357
39.5455
41.3348
43.2053
45.1587
47.1966
49.3209
51.5333
53.8358
56.2301
58.7179
61.3013
63.9819
66.7616
69.6423
72.6258
75.7136
78.908
82.2088
85.6227
89.0267
21.3775
21.4842
21.1474
21.9924
22.8852
23.65
24.5304
25.5156
26.5596
27.672
28.8585
30.1163
31.4455
32.8479
34.3243
35.876
37.5045
39.2113
40.998
42.8663
44.8179
46.8547
48.9784
51.1907
53.4936
55.8889
58.3784
60.964
63.6476
66.4311
69.3164
72.3052
75.3995
78.6008
81.9114
85.331
88.8664
92.3925
21.0549
21.2163
20.9158
21.7333
22.616
23.3778
24.2494
25.2262
26.2632
27.3685
28.5483
29.7999
31.1235
32.5206
33.9923
35.5396
37.1642
38.8675
40.6511
42.5168
44.4664
46.5015
48.624
50.8358
53.1386
55.5344
58.0251
60.6126
63.2988
66.0855
68.9748
71.9685
75.0685
78.2767
81.5946
85.0245
88.5659
92.2261
95.8774
20.7294
20.9407
20.6765
21.4681
22.3405
23.0992
23.9623
24.9306
25.9604
27.0585
28.2314
29.4766
30.7942
32.1857
33.6521
35.1947
36.8149
38.5142
40.2944
42.1571
44.104
46.1371
48.258
50.4687
52.771
55.167
57.6584
60.2472
62.9354
65.7249
68.6177
71.6158
74.721
77.9352
81.2603
84.698
88.2504
91.917
95.7051
99.4854
20.4007
20.6578
20.4297
21.1969
22.0587
22.8145
23.6692
24.6289
25.6514
26.7422
27.9079
29.1463
30.4576
31.8431
33.3039
34.8413
36.4568
38.1518
39.928
41.7872
43.7311
45.7616
47.8805
50.0897
52.391
54.7866
57.2782
59.8679
62.5576
65.3494
68.2453
71.2471
74.3569
77.5768
80.9084
84.3537
87.9145
91.5925
95.3876
99.3068
103.22
20.0692
20.3679
20.1756
20.92
21.771
22.5236
23.3702
24.3213
25.3363
26.4196
27.5779
28.8093
30.1139
31.493
32.9479
34.4797
36.09
37.7802
39.5521
41.4074
43.3478
45.3753
47.4917
49.6988
51.9988
54.3934
56.8847
59.4748
62.1656
64.9591
67.8575
70.8627
73.9767
77.2015
80.5391
83.9913
87.5601
91.2471
95.0543
98.981
103.035
107.083
19.7352
20.0712
19.9144
20.6373
21.4774
22.2268
23.0654
24.0079
25.0153
26.091
27.2416
28.4658
29.7633
31.1357
32.5843
34.1101
35.7147
37.3997
39.1668
41.0177
42.9542
44.9782
47.0916
49.2963
51.5943
53.9876
56.4782
59.0681
61.7595
64.5543
67.4546
70.4626
73.5802
76.8095
80.1526
83.6112
87.1874
90.883
94.6996
98.6391
102.701
106.892
111.08
19.3992
19.7682
19.6464
20.3492
21.1781
21.9243
22.7551
23.6888
24.6885
25.7564
26.8991
28.1157
29.4059
30.7713
32.2131
33.7326
35.3312
37.0105
38.7723
40.6184
42.5504
44.5705
46.6804
48.8822
51.1778
53.5693
56.0587
58.648
61.3394
64.135
67.0368
70.047
73.1677
76.4009
79.7488
83.2134
86.7965
90.4999
94.3257
98.2751
102.35
106.55
110.883
115.214
19.0602
19.4592
19.3717
20.0556
20.8734
21.6161
22.4393
23.3643
24.3561
25.416
26.5507
27.7594
29.042
30.4
31.8347
33.3473
34.9395
36.6127
38.3688
40.2095
42.1367
44.1524
46.2584
48.4567
50.7494
53.1386
55.6261
58.2145
60.9054
63.7013
66.604
69.616
72.7393
75.9759
79.328
82.7978
86.3873
90.0982
93.9324
97.8916
101.977
106.192
110.534
115.01
119.487
18.7189
19.1447
19.0907
19.757
20.5634
21.3025
22.1182
23.0344
24.0182
25.0699
26.1963
27.3969
28.6716
30.0218
31.449
32.9545
34.5398
36.2065
37.9564
39.7914
41.7132
43.724
45.8255
48.02
50.3092
52.6956
55.181
57.7676
60.4577
63.2532
66.1565
69.1697
72.295
75.5345
78.8905
82.3649
85.9599
89.6777
93.5198
97.4883
101.584
105.81
110.167
114.654
119.278
123.905
18.3759
18.8248
18.8034
19.4533
20.2483
20.9837
21.792
22.6993
23.6749
24.7183
25.8362
27.0284
28.2949
29.6371
31.0564
32.5543
34.1323
35.792
37.5353
39.364
41.2801
43.2854
45.382
47.5721
49.8575
52.2404
54.7231
57.3077
59.9962
62.791
65.6942
68.7081
71.8348
75.0768
78.436
81.9147
85.5148
89.2386
93.0881
97.0649
101.171
105.408
109.777
114.28
118.915
123.689
128.47
18.0312
18.4999
18.5103
19.1448
19.9284
20.6599
21.4608
22.3592
23.3265
24.3615
25.4706
26.6542
27.9121
29.2458
30.657
32.1469
33.7171
35.3695
37.1057
38.9277
40.8374
42.8368
44.9281
47.1132
49.3942
51.7733
54.2527
56.8346
59.5212
62.3147
65.2173
68.2314
71.3591
74.6028
77.9646
81.447
85.0517
88.7812
92.6373
96.622
100.737
104.985
109.366
113.881
118.533
123.32
128.248
133.185
17.6844
18.1704
18.2115
18.8317
19.6038
20.3312
21.1248
22.0143
22.9731
23.9994
25.0997
26.2743
27.5233
28.8484
30.2509
31.7324
33.2945
34.939
36.6677
38.4825
40.3855
42.3785
44.4638
46.6434
48.9195
51.2943
53.77
56.3486
59.0326
61.8243
64.7259
67.7396
70.8678
74.1127
77.4767
80.962
84.5709
88.3053
92.1676
96.1596
100.283
104.54
108.933
113.461
118.127
122.931
127.873
132.958
138.056
17.3357
17.8366
17.9073
18.5141
19.2748
19.9978
20.7842
21.6647
22.6149
23.6324
24.7235
25.8889
27.1288
28.4447
29.8383
31.3111
32.8646
34.5008
36.2215
38.0286
39.9243
41.9105
43.9893
46.1631
48.4337
50.8035
53.2749
55.8498
58.5308
61.3201
64.22
67.2327
70.3608
73.6065
76.9721
80.4599
84.0722
87.8111
91.6789
95.6777
99.8092
104.075
108.478
113.019
117.698
122.518
127.478
132.578
137.823
143.084
16.986
17.4986
17.5979
18.1923
18.9415
19.66
20.4391
21.3106
22.252
23.2605
24.3422
25.4982
26.7287
28.0352
29.4194
30.883
32.4276
34.055
35.7673
37.5663
39.4541
41.4329
43.5048
45.672
47.9367
50.3011
52.7675
55.3382
58.0156
60.802
63.6996
66.7111
69.8384
73.0842
76.4509
79.9407
83.5558
87.2987
91.1714
95.1762
99.3152
103.59
108.002
112.554
117.247
122.081
127.058
132.177
137.438
142.846
148.273
16.6344
17.157
17.2836
17.8665
18.6043
19.3179
20.0899
20.9522
21.8846
22.884
23.9562
25.1024
26.3232
27.6199
28.9944
30.4484
31.9836
33.6019
35.3052
37.0956
38.9751
40.946
43.0104
45.1706
47.4287
49.7872
52.2482
54.8141
57.4872
60.2702
63.1651
66.1744
69.3005
72.546
75.913
79.4042
83.0217
86.768
90.6451
94.6553
98.801
103.084
107.506
112.068
116.773
121.621
126.613
131.75
137.032
142.457
148.031
153.627
16.2816
16.8119
16.9645
17.5368
18.2632
18.9718
19.7365
20.5897
21.513
22.503
23.5654
24.7017
25.9124
27.199
28.5635
30.0075
31.5328
33.1415
34.8354
36.6167
38.4874
40.4499
42.5063
44.659
46.91
49.2618
51.7168
54.2775
56.9459
59.7246
62.6163
65.6229
68.7473
71.9917
75.3587
78.8506
82.4698
86.2189
90.0999
94.1152
98.2668
102.557
106.987
111.56
116.276
121.137
126.144
131.298
136.599
142.046
147.639
153.381
159.15
15.9277
16.4637
16.6411
17.2034
17.9184
18.6218
19.3793
20.2232
21.1372
22.1177
23.1701
24.2962
25.4965
26.7727
28.1268
29.5604
31.0755
32.6741
34.3581
36.1298
37.9912
39.9448
41.9926
44.1371
46.3805
48.7253
51.1737
53.7283
56.3914
59.1656
62.0533
65.0569
68.1787
71.4216
74.7879
78.28
81.9003
85.6515
89.5357
93.5555
97.7126
102.009
106.448
111.03
115.757
120.631
125.652
130.822
136.141
141.608
147.225
152.987
158.9
164.844
15.5726
16.1125
16.3135
16.8666
17.5703
18.2682
19.0184
19.853
20.7576
21.7283
22.7705
23.8861
25.0757
26.3412
27.6845
29.1073
30.6117
32.1998
33.8735
35.6351
37.4867
39.4308
41.4695
43.6053
45.8406
48.1776
50.6189
53.167
55.8241
58.593
61.4761
64.476
67.5949
70.8358
74.2006
77.6923
81.3134
85.0661
88.953
92.9761
97.1384
101.441
105.887
110.478
115.215
120.101
125.136
130.321
135.657
141.144
146.781
152.569
158.505
164.591
170.712
15.2165
15.7587
15.982
16.5266
17.219
17.9112
18.654
19.4792
20.3742
21.335
22.3667
23.4716
24.6503
25.9047
27.2367
28.6485
30.1418
31.7188
33.3817
35.1327
36.974
38.908
40.9372
43.0638
45.2902
47.619
50.0526
52.5934
55.2442
58.0072
60.885
63.8804
66.9959
70.2337
73.597
77.0875
80.7086
84.4623
88.3511
92.3776
96.5439
100.853
105.305
109.904
114.651
119.548
124.596
129.795
135.148
140.653
146.312
152.123
158.085
164.195
170.457
176.758
14.8596
15.4025
15.6467
16.1834
16.8647
17.5509
18.2863
19.102
19.9872
20.9379
21.959
23.0528
24.2203
25.4632
26.7838
28.184
29.6658
31.2314
32.883
34.6228
36.4534
38.3769
40.3957
42.5126
44.7297
47.0495
49.4748
52.0079
54.6515
57.4079
60.2801
63.2705
66.3816
69.6162
72.9768
76.4658
80.0861
83.8403
87.7304
91.7594
95.9295
100.243
104.702
109.308
114.064
118.972
124.031
129.245
134.614
140.137
145.815
151.648
157.635
163.775
170.062
176.501
182.983
14.502
15.0442
15.3081
15.8373
16.5076
17.1876
17.9155
18.7217
19.5969
20.5373
21.5475
22.6301
23.786
25.0172
26.3259
27.7141
29.1839
30.7376
32.3775
34.1058
35.9248
37.8373
39.8455
41.9518
44.159
46.4694
48.8857
51.4104
54.0462
56.7956
59.6615
62.6461
65.7524
68.9828
72.3403
75.827
79.4461
83.1999
87.091
91.1218
95.2948
99.6125
104.077
108.69
113.455
118.372
123.444
128.67
134.054
139.594
145.292
151.147
157.157
163.323
169.642
176.109
182.727
189.393
14.1437
14.684
14.9663
15.4886
16.1479
16.8215
17.5418
18.3383
19.2034
20.1334
21.1325
22.2034
23.3475
24.5667
25.8631
27.239
28.6964
30.2378
31.8654
33.5816
35.3888
37.2896
39.2864
41.3818
43.5784
45.8788
48.2855
50.8012
53.4285
56.1702
59.029
62.0073
65.108
68.3338
71.6875
75.1713
78.7885
82.5412
86.4325
90.4645
94.64
98.9614
103.431
108.051
112.823
117.749
122.831
128.071
133.468
139.025
144.742
150.617
156.651
162.843
169.19
175.69
182.338
189.137
195.988
13.7849
14.3221
14.6214
15.1373
15.7858
16.4527
17.1654
17.9522
18.807
19.7262
20.714
21.7732
22.9051
24.1118
25.3957
26.7588
28.2034
29.732
31.3469
33.0505
34.8453
36.7338
38.7188
40.8027
42.9881
45.2777
47.6743
50.1803
52.7986
55.5317
58.3828
61.3543
64.4486
67.6692
71.0183
74.4985
78.1132
81.8643
85.755
89.7878
93.965
98.2893
102.763
107.388
112.168
117.103
122.195
127.446
132.858
138.43
144.164
150.06
156.116
162.333
168.708
175.239
181.923
188.754
195.734
202.771
13.4255
13.9588
14.2739
14.7837
15.4215
16.0815
16.7864
17.5634
18.4077
19.3161
20.2923
21.3394
22.4589
23.6529
24.9238
26.2738
27.7052
29.2205
30.8222
32.5127
34.2945
36.1703
38.1428
40.2145
42.3882
44.6665
47.0522
49.5479
52.1565
54.8807
57.7232
60.687
63.7746
66.9889
70.3329
73.809
77.4202
81.1691
85.0585
89.0912
93.2695
97.5962
102.074
106.704
111.49
116.432
121.534
126.797
132.222
137.809
143.56
149.475
155.553
161.794
168.196
174.757
181.474
188.343
195.359
202.521
209.744
13.0658
13.5943
13.9239
14.428
15.0552
15.7081
16.4051
17.1721
18.0059
18.9031
19.8675
20.9024
22.0092
23.1901
24.4476
25.7841
27.2019
28.7035
30.2915
31.9684
33.7367
35.5993
37.5587
39.6176
41.7789
44.0452
46.4193
48.9042
51.5024
54.2167
57.0502
60.0056
63.0856
66.2932
69.6312
73.1024
76.7096
80.4555
84.3431
88.3749
92.5536
96.8819
101.362
105.997
110.788
115.738
120.849
126.123
131.559
137.161
142.929
148.862
154.961
161.226
167.654
174.244
180.993
187.898
194.954
202.154
209.5
216.908
12.706
13.2288
13.5715
14.0703
14.6871
15.3327
16.0216
16.7786
17.6016
18.4875
19.44
20.4622
21.556
22.7236
23.9674
25.29
26.6937
28.1812
29.755
31.4177
33.1721
35.0208
36.9665
39.0122
41.1604
43.4141
45.776
48.2492
50.8363
53.5402
56.3638
59.3102
62.3819
65.582
68.9134
72.3789
75.9813
79.7238
83.6086
87.6389
91.8174
96.1466
100.629
105.267
110.064
115.021
120.14
125.423
130.871
136.487
142.27
148.221
154.341
160.627
167.081
173.7
180.48
187.42
194.514
201.758
209.145
216.672
224.267
12.346
12.8625
13.2171
13.711
14.3173
14.9554
15.6362
16.3831
17.1951
18.0695
19.0097
20.0191
21.0997
22.2536
23.4834
24.7916
26.1808
27.6537
29.2129
30.861
32.6008
34.435
36.3666
38.3982
40.5328
42.7733
45.1225
47.5831
50.1585
52.8512
55.6644
58.6008
61.6636
64.8554
68.1795
71.6385
75.2355
78.9734
82.855
86.883
91.0607
95.3902
99.8742
104.515
109.316
114.279
119.405
124.698
130.157
135.786
141.583
147.552
153.691
160
166.478
173.124
179.935
186.908
194.041
201.326
208.759
216.331
224.04
231.821
11.9858
12.4955
12.861
13.35
13.9462
14.5764
15.249
15.9856
16.7865
17.6492
18.577
19.5734
20.6403
21.7802
22.9956
24.2891
25.6635
27.1213
28.6653
30.2983
32.023
33.8423
35.759
37.776
39.8964
42.1229
44.4587
46.9064
49.4691
52.1499
54.9519
57.8778
60.9307
64.1136
67.4296
70.8814
74.4721
78.2051
82.0823
86.1075
90.2832
94.6121
99.0971
103.741
108.545
113.513
118.646
123.947
129.416
135.057
140.869
146.854
153.011
159.342
165.844
172.516
179.357
186.364
193.533
200.859
208.336
215.959
223.716
231.606
239.57
11.6257
12.1282
12.5033
12.9876
13.5738
14.196
14.8601
15.5865
16.3761
17.2269
18.142
19.1251
20.1781
21.3036
22.5043
23.7828
25.1419
26.5842
28.1127
29.7299
31.439
33.2428
35.144
37.1459
39.2514
41.4633
43.7847
46.2188
48.7684
51.4365
54.2264
57.1409
60.1834
63.3565
66.6637
70.1076
73.6912
77.418
81.2907
85.3121
89.4853
93.8129
98.2978
102.943
107.75
112.722
117.862
123.17
128.65
134.301
140.128
146.128
152.303
158.653
165.179
171.877
178.747
185.786
192.99
200.356
207.877
215.546
223.358
231.301
239.371
247.516
11.2658
11.7607
12.1441
12.624
13.2002
13.8143
14.4699
15.1858
15.9639
16.8026
17.705
18.6744
19.7133
20.8242
22.0098
23.2728
24.6162
26.0426
27.5549
29.1561
30.849
32.6366
34.5219
36.508
38.5978
40.7945
43.1011
45.5207
48.0564
50.7111
53.4882
56.3906
59.4218
62.5844
65.8817
69.3169
72.8929
76.6129
80.4798
84.4966
88.6667
92.9921
97.4764
102.122
106.931
111.907
117.052
122.368
127.856
133.519
139.357
145.373
151.565
157.935
164.483
171.206
178.105
185.175
192.413
199.818
207.381
215.098
222.96
230.961
239.088
247.336
255.659
10.906
11.3931
11.7837
12.2593
12.8258
13.4315
14.0784
14.7838
15.5503
16.3767
17.2659
18.2215
19.246
20.342
21.5121
22.7594
24.0866
25.4967
26.9924
28.5769
30.2531
32.024
33.8928
35.8624
37.9361
40.1168
42.4079
44.8122
47.3331
49.9738
52.7375
55.627
58.6458
61.7972
65.0842
68.5097
72.077
75.7894
79.6499
83.6613
87.827
92.1497
96.6325
101.278
106.089
111.068
116.217
121.538
127.035
132.708
138.558
144.588
150.797
157.186
163.755
170.503
177.428
184.529
191.802
199.243
206.849
214.611
222.524
230.58
238.769
247.077
255.5
263.998
10.5465
11.0256
11.4224
11.8938
12.4506
13.0478
13.6858
14.3805
15.1353
15.9492
16.8252
17.7667
18.7765
19.8572
21.0116
22.2427
23.5533
24.9466
26.4254
27.9927
29.6517
31.4053
33.2569
35.2095
37.2663
39.4304
41.7051
44.0937
46.5991
49.2249
51.9742
54.8501
57.8559
60.9952
64.2707
67.6859
71.2436
74.9475
78.8008
82.8061
86.9667
91.286
95.7662
100.411
105.222
110.203
115.356
120.683
126.187
131.869
137.731
143.773
149.999
156.406
162.995
169.767
176.719
183.849
191.155
198.633
206.28
214.087
222.05
230.159
238.407
246.781
255.27
263.864
272.531
10.1875
10.6584
11.0604
11.5275
12.0748
12.6634
13.2923
13.9763
14.7191
15.5204
16.3828
17.3101
18.3049
19.37
20.5083
21.7229
23.0166
24.3926
25.8539
27.4036
29.0448
30.7807
32.6144
34.5494
36.5886
38.7354
40.9932
43.3651
45.8545
48.4645
51.1986
54.06
57.0522
60.1783
63.4416
66.8454
70.3932
74.0877
77.9327
81.9307
86.0858
90.4
94.8773
99.5199
104.331
109.313
114.469
119.801
125.312
131.002
136.874
142.93
149.17
155.594
162.204
168.998
175.976
183.134
190.473
197.987
205.672
213.524
221.535
229.699
238.005
246.443
255.002
263.667
272.428
281.26
9.82884
10.2916
10.6977
11.1607
11.6985
12.2784
12.8981
13.5712
14.302
15.0904
15.9391
16.8518
17.8314
18.8807
20.0026
21.2002
22.4766
23.835
25.2783
26.8098
28.4327
30.1503
31.9656
33.8822
35.9033
38.0322
40.2722
42.6267
45.0991
47.6928
50.411
53.2571
56.2346
59.3468
62.5972
65.9888
69.5253
73.2097
77.0455
81.0357
85.1839
89.4928
93.9659
98.6057
103.416
108.398
113.556
118.892
124.408
130.106
135.988
142.055
148.309
154.751
161.379
168.196
175.198
182.385
189.755
197.304
205.029
212.924
220.982
229.198
237.56
246.062
254.689
263.43
272.267
281.192
290.181
9.47087
9.92541
10.3347
10.7935
11.322
11.8929
12.5033
13.1655
13.884
14.6594
15.4942
16.3921
17.3562
18.3894
19.4945
20.6749
21.9336
23.2738
24.6987
26.2116
27.8157
29.5144
31.3107
33.2084
35.2107
37.3209
39.5425
41.8789
44.3335
46.9099
49.6115
52.4414
55.4034
58.5009
61.7373
65.1159
68.6403
72.3134
76.1393
80.1206
84.2611
88.5636
93.0316
97.668
102.476
107.458
112.617
117.956
123.477
129.181
135.072
141.151
147.418
153.875
160.522
167.36
174.386
181.601
189.001
196.584
204.347
212.284
220.389
228.656
237.075
245.638
254.333
263.146
272.065
281.071
290.153
299.291
9.11348
9.55999
9.97149
10.4261
10.9454
11.5072
12.1081
12.7592
13.4654
14.2275
15.0482
15.9312
16.8795
17.8962
18.9843
20.1471
21.3877
22.7094
24.1155
25.6092
27.194
28.8731
30.65
32.5281
34.5108
36.6017
38.8042
41.1218
43.558
46.1162
48.8002
51.6131
54.5588
57.6406
60.8621
64.2267
67.738
71.3993
75.214
79.1857
83.3174
87.6128
92.0748
96.7066
101.512
106.492
111.652
116.993
122.517
128.228
134.126
140.215
146.495
152.967
159.631
166.489
173.539
180.78
188.211
195.827
203.626
211.605
219.756
228.073
236.547
245.171
253.932
262.818
271.815
280.908
290.077
299.31
308.589
8.7568
9.19545
9.60827
10.0586
10.5689
11.1214
11.7126
12.3525
13.0463
13.795
14.6014
15.4691
16.4015
17.4014
18.4722
19.617
20.8391
22.1419
23.5287
25.0028
26.5677
28.2268
29.9836
31.8415
33.8041
35.8749
38.0575
40.3555
42.7724
45.3118
47.9773
50.7726
53.7009
56.7662
59.9719
63.3215
66.8188
70.4671
74.2699
78.2307
82.3529
86.6401
91.0951
95.7218
100.522
105.501
110.66
116.001
121.529
127.245
133.15
139.248
145.54
152.026
158.707
165.584
172.656
179.922
187.382
195.031
202.867
210.886
219.082
227.448
235.977
244.66
253.486
262.444
271.519
280.695
289.957
299.284
308.66
318.069
8.40095
8.83192
9.24525
9.69118
10.1926
10.7357
11.3172
11.9457
12.6268
13.362
14.1539
15.0062
15.9223
16.9053
17.9583
19.0848
20.2881
21.5716
22.9386
24.3926
25.9371
27.5757
29.3117
31.1488
33.0906
35.1407
37.3027
39.5804
41.9772
44.4969
47.1431
49.9197
52.8299
55.8779
59.0668
62.4006
65.8828
69.5172
73.3072
77.2562
81.3678
85.6455
90.0925
94.7126
99.5083
104.483
109.641
114.983
120.512
126.232
132.144
138.25
144.552
151.052
157.749
164.644
171.738
179.029
186.516
194.196
202.069
210.126
218.367
226.781
235.363
244.106
252.996
262.023
271.175
280.435
289.786
299.211
308.688
318.2
327.729
8.04603
8.46952
8.88256
9.32404
9.81653
10.3503
10.9217
11.5389
12.2072
12.9286
13.7058
14.5425
15.4421
16.4078
17.4429
18.5507
19.7348
20.9986
22.3454
23.7789
25.3025
26.92
28.6347
30.4504
32.3707
34.3994
36.5401
38.7967
41.1726
43.6718
46.2979
49.0548
51.9461
54.9757
58.1468
61.4639
64.9301
68.5497
72.3255
76.2618
80.3617
84.6291
89.0671
93.6795
98.4696
103.44
108.595
113.936
119.467
125.19
131.107
137.22
143.532
150.044
156.756
163.669
170.783
178.098
185.612
193.323
201.229
209.326
217.609
226.071
234.705
243.505
252.46
261.556
270.783
280.125
289.566
299.087
308.669
318.288
327.927
337.561
7.69209
8.10838
8.52039
8.95726
9.44098
9.9651
10.5265
11.1321
11.7876
12.4951
13.2574
14.0782
14.9611
15.9093
16.9261
18.015
19.1795
20.4231
21.7494
23.1618
24.6641
26.2599
27.9527
29.7463
31.6446
33.6512
35.7699
38.0046
40.3589
42.8367
45.4419
48.1781
51.0495
54.0596
57.2124
60.5116
63.961
67.5644
71.3253
75.2475
79.335
83.5908
88.0192
92.6228
97.4058
102.371
107.522
112.861
118.392
124.117
130.038
136.158
142.478
149.001
155.727
162.657
169.791
177.129
184.67
192.411
200.35
208.484
216.808
225.319
234.003
242.86
251.876
261.042
270.343
279.766
289.295
298.912
308.596
318.327
328.08
337.835
347.561
7.33923
7.74861
8.1589
8.59105
9.06606
9.58054
10.1316
10.7256
11.3681
12.0615
12.8087
13.6135
14.4795
15.4098
16.4081
17.4778
18.6224
19.8455
21.1507
22.5417
24.0221
25.5956
27.266
29.0371
30.9125
32.8963
34.9923
37.2044
39.5362
41.9919
44.5751
47.29
50.1406
53.1304
56.2636
59.5439
62.9752
66.5616
70.3064
74.2137
78.2874
82.5309
86.9481
91.5422
96.317
101.276
106.422
111.758
117.287
123.013
128.938
135.063
141.392
147.925
154.663
161.609
168.762
176.121
183.687
191.458
199.429
207.6
215.966
224.52
233.259
242.169
251.248
260.479
269.854
279.357
288.973
298.684
308.47
318.311
328.182
338.058
347.919
357.721
6.98754
7.39034
7.7983
8.22547
8.69185
9.19662
9.73732
10.3196
10.9488
11.628
12.36
13.1486
13.9974
14.9097
15.8892
16.9392
18.0636
19.2658
20.5496
21.9186
23.3766
24.9275
26.5749
28.3226
30.1747
32.1351
34.2076
36.3962
38.7048
41.1374
43.6982
46.3907
49.2193
52.1881
55.3007
58.5611
61.9734
65.5414
69.2692
73.1605
77.2194
81.4493
85.8542
90.4376
95.2028
100.154
105.294
110.626
116.154
121.879
127.806
133.935
140.271
146.813
153.564
160.524
167.694
175.076
182.665
190.463
198.467
206.673
215.079
223.678
232.466
241.433
250.57
259.868
269.315
278.897
288.599
298.403
308.29
318.239
328.228
338.23
348.219
358.173
368.033
6.63705
7.03365
7.43869
7.86075
8.31859
8.81346
9.34367
9.91404
10.53
11.1949
11.9115
12.6836
13.515
14.409
15.3693
16.3996
17.5033
18.6843
19.9462
21.2929
22.728
24.2556
25.8795
27.6034
29.4315
31.3678
33.416
35.5804
37.865
40.2738
42.811
45.4805
48.2862
51.2326
54.3237
57.5632
60.9555
64.5044
68.214
72.0881
76.1308
80.3461
84.7375
89.3088
94.0636
99.0061
104.139
109.466
114.99
120.714
126.642
132.775
139.115
145.665
152.427
159.401
166.589
173.989
181.603
189.427
197.462
205.703
214.148
222.791
231.626
240.647
249.844
259.208
268.726
278.386
288.173
298.069
308.056
318.113
328.217
338.344
348.467
358.557
368.589
378.489
6.28796
6.67869
7.0802
7.49695
7.9463
8.43131
8.95079
9.50919
10.1118
10.7621
11.4632
12.2187
13.0324
13.908
14.8489
15.859
16.9418
18.1012
19.3409
20.6647
22.0765
23.5804
25.1801
26.8797
28.6831
30.5945
32.6178
34.7574
37.0171
39.4013
41.914
44.5593
47.3416
50.2646
53.3331
56.5505
59.9218
63.4505
67.1406
70.9965
75.0218
79.2213
83.5981
88.1562
92.8995
97.832
102.957
108.277
113.797
119.519
125.446
131.58
137.926
144.483
151.254
158.241
165.444
172.863
180.498
188.349
196.414
204.69
213.171
221.858
230.741
239.814
249.07
258.498
268.086
277.823
287.694
297.681
307.767
317.93
328.149
338.399
348.654
358.885
369.063
379.161
389.079
5.9403
6.3255
6.72307
7.13425
7.57509
8.05018
8.5589
9.10515
9.69431
10.3299
11.0153
11.754
12.5499
13.4068
14.3281
15.3176
16.3792
17.5166
18.7337
20.0343
21.4224
22.902
24.477
26.1516
27.9298
29.8157
31.8134
33.9273
36.1614
38.52
41.0074
43.6278
46.3852
49.2841
52.3289
55.5236
58.8724
62.3795
66.0493
69.8857
73.8928
78.075
82.436
86.9798
91.7105
96.6315
101.746
107.059
112.573
118.291
124.217
130.352
136.701
143.264
150.044
157.042
164.259
171.696
179.353
187.229
195.322
203.629
212.15
220.877
229.807
238.932
248.245
257.736
267.394
277.207
287.16
297.238
307.421
317.69
328.023
338.395
348.781
359.153
369.48
379.731
389.877
399.793
5.59416
5.97422
6.36732
6.77277
7.20516
7.67023
8.16805
8.70207
9.27763
9.89848
10.5679
11.2897
12.0676
12.9055
13.8069
14.7758
15.8158
16.9309
18.1249
19.4019
20.7658
22.2206
23.7705
25.4194
27.1717
29.0315
31.0029
33.0904
35.2981
37.6303
40.0916
42.6859
45.4179
48.2916
51.3115
54.4822
57.8077
61.2922
64.9403
68.7559
72.7438
76.9075
81.2514
85.7797
90.4959
95.4042
100.509
105.813
111.319
117.033
122.955
129.09
135.441
142.008
148.795
155.804
163.035
170.488
178.165
186.064
194.185
202.525
211.081
219.849
228.824
238
247.369
256.922
266.649
276.537
286.572
296.738
307.018
317.392
327.838
338.332
348.848
359.359
369.834
380.242
390.551
400.73
410.617
5.24966
5.62495
6.01319
6.41264
6.83657
7.2916
7.77832
8.3001
8.86193
9.46786
10.1213
10.8259
11.5857
12.4044
13.2857
14.2335
15.2517
16.3442
17.5148
18.7677
20.1069
21.5365
23.0607
24.6835
26.4092
28.2422
30.1866
32.247
34.4275
36.7326
39.1666
41.7341
44.4396
47.2871
50.2815
53.4267
56.7276
60.1887
63.8141
67.6077
71.5746
75.7188
80.0444
84.5555
89.2567
94.1511
99.2434
104.537
110.035
115.742
121.661
127.794
134.145
140.716
147.509
154.527
161.769
169.238
176.934
184.856
193.002
201.373
209.963
218.772
227.791
237.017
246.441
256.056
265.85
275.812
285.928
296.182
306.558
317.035
327.593
338.208
348.853
359.502
370.125
380.69
391.164
401.514
411.708
421.541
4.9069
5.27774
5.66073
6.05395
6.46947
6.91436
7.38995
7.89929
8.44734
9.03822
9.67546
10.3628
11.1042
11.9035
12.7645
13.691
14.6871
15.7566
16.9036
18.132
19.4461
20.85
22.348
23.9441
25.6427
27.4482
29.3649
31.3974
33.5499
35.8269
38.233
40.7728
43.4505
46.271
49.2386
52.3576
55.633
59.0691
62.6703
66.4411
70.3857
74.5092
78.815
83.308
87.9919
92.8715
97.9501
103.232
108.721
114.42
120.333
126.463
132.814
139.387
146.185
153.21
160.463
167.946
175.66
183.603
191.774
200.174
208.799
217.645
226.708
235.982
245.461
255.135
264.996
275.03
285.226
295.568
306.038
316.618
327.287
338.021
348.795
359.581
370.351
381.072
391.712
402.236
412.609
422.799
432.55
4.56605
4.93266
5.3101
5.69687
6.1039
6.53874
7.00304
7.49985
8.03398
8.6097
9.23064
9.90056
10.6234
11.4031
12.2435
13.1486
14.1222
15.1684
16.2913
17.495
18.7835
20.1612
21.6324
23.2013
24.8722
26.6496
28.538
30.5418
32.6656
34.9138
37.2911
39.8022
42.4513
45.2435
48.1834
51.2751
54.5235
57.9337
61.5095
65.256
69.1774
73.2787
77.5633
82.037
86.7025
91.5657
96.6296
101.898
107.375
113.066
118.972
125.098
131.446
138.019
144.821
151.853
159.115
166.611
174.341
182.304
190.5
198.927
207.584
216.468
225.573
234.895
244.427
254.16
264.086
274.192
284.467
294.895
305.459
316.141