/*--------------------------------*- C++ -*----------------------------------*\
  =========                 |
  \\      /  F ield         | OpenFOAM: The Open Source CFD Toolbox
   \\    /   O peration     | Website:  https://openfoam.org
    \\  /    A nd           | Version:  7
     \\/     M anipulation  |
\*---------------------------------------------------------------------------*/
FoamFile
{
    version     2.0;
    format      ascii;
    class       surfaceScalarField;
    location    "1000";
    object      phi;
}
// * * * * * * * * * * * * * * * * * * * * * * * * * * * * * * * * * * * * * //

dimensions      [0 3 -1 0 0 0 0];

internalField   nonuniform List<scalar> 
45794
(
-0.295177
0.0427304
-0.293529
0.0452522
-0.283595
0.0410228
-0.291773
0.0477919
-0.281867
0.0435246
-0.272027
0.039562
-0.289885
0.0502354
-0.280077
0.0460018
-0.270436
0.0419335
-0.261051
0.0380192
-0.287832
0.0526251
-0.278156
0.0483139
-0.268687
0.0442528
-0.259482
0.0403647
-0.250506
0.0365629
-0.241706
0.0329813
-0.285722
0.0550051
-0.276195
0.0506645
-0.266888
0.0465153
-0.257827
0.0425978
-0.249002
0.0388605
-0.240345
0.0352015
-0.231907
0.0317264
-0.223665
0.00208599
-0.283414
0.0571761
-0.274092
0.0529022
-0.264992
0.0487683
-0.256081
0.0447699
-0.247355
0.0409507
-0.238845
0.0373603
-0.230607
0.0339011
-0.222508
0.0305692
-0.214594
0.00208547
-0.28111
0.0594361
-0.271948
0.055032
-0.262953
0.0508637
-0.254196
0.0468824
-0.245666
0.0430806
-0.237353
0.0394587
-0.229164
0.0359171
-0.22121
0.0326029
-0.213443
0.0294184
-0.205875
0.00210469
-0.278615
0.0614868
-0.269661
0.0571488
-0.260871
0.05295
-0.252268
0.048936
-0.243885
0.0451016
-0.23567
0.0413981
-0.227628
0.0379233
-0.219869
0.0345765
-0.212199
0.0313585
-0.204739
0.0282824
-0.197465
0.00211396
-0.276077
0.0635746
-0.267331
0.0591574
-0.25865
0.0549273
-0.250247
0.0509293
-0.242012
0.0470635
-0.233996
0.0434273
-0.2261
0.0398702
-0.218437
0.0364909
-0.210861
0.0332391
-0.203544
0.030164
-0.196393
0.0272108
-0.189409
0.00212331
-0.273501
0.0655533
-0.264863
0.0611059
-0.256435
0.056943
-0.248186
0.052866
-0.2401
0.0490172
-0.232181
0.0452487
-0.224432
0.0417585
-0.216863
0.0382966
-0.209481
0.0351107
-0.202287
0.0319818
-0.195243
0.0290138
-0.188369
0.0261711
-0.181671
0.0021325
-0.270739
0.0674243
-0.262306
0.0629968
-0.254084
0.0587541
-0.245935
0.0546925
-0.238048
0.0508137
-0.230276
0.0471123
-0.222723
0.0435397
-0.215248
0.0401437
-0.208058
0.036874
-0.200932
0.0337558
-0.194024
0.0307629
-0.187265
0.0279102
-0.180676
0.0251766
-0.174248
0.00214154
-0.267989
0.0692841
-0.259711
0.0648289
-0.251641
0.0605538
-0.243694
0.0565131
-0.235956
0.0526006
-0.228329
0.048867
-0.220871
0.0452612
-0.213591
0.041882
-0.206494
0.0385799
-0.19952
0.0354619
-0.192732
0.0324642
-0.186098
0.0295958
-0.179618
0.0268515
-0.173292
0.0242204
-0.167116
0.00214575
-0.265104
0.0710379
-0.257029
0.066602
-0.24916
0.0623485
-0.241415
0.0582741
-0.233774
0.0543307
-0.226343
0.0506147
-0.219031
0.0470265
-0.211893
0.0435634
-0.204889
0.0402763
-0.198065
0.037125
-0.191383
0.0341125
-0.184858
0.0312239
-0.178486
0.0284636
-0.172267
0.0258261
-0.166196
0.0233008
-0.160279
0.00215488
-0.262181
0.0727807
-0.254308
0.0683176
-0.246592
0.0640336
-0.238996
0.0599298
-0.231504
0.056004
-0.224219
0.0522064
-0.21705
0.0486334
-0.210055
0.0451883
-0.203243
0.0419178
-0.19652
0.0387315
-0.189962
0.0357036
-0.18355
0.0328046
-0.177295
0.0300331
-0.171182
0.0273791
-0.165212
0.0248419
-0.159395
0.022416
-0.153714
0.00215906
-0.259177
0.0743705
-0.251455
0.0699273
-0.243887
0.0656131
-0.23649
0.0615272
-0.229194
0.0576205
-0.222054
0.0538393
-0.215078
0.0502346
-0.208226
0.0468047
-0.201505
0.0434505
-0.194887
0.0402847
-0.188473
0.0372433
-0.182184
0.0343379
-0.176041
0.0315508
-0.170034
0.0288852
-0.164169
0.0263359
-0.15845
0.0238974
-0.152862
0.0215642
-0.147414
0.00216817
-0.256086
0.0759498
-0.248564
0.0714796
-0.241195
0.0672347
-0.233947
0.0630701
-0.226797
0.0591304
-0.219851
0.0554167
-0.213019
0.0517803
-0.206259
0.048268
-0.199678
0.0449774
-0.193219
0.0417825
-0.186929
0.03874
-0.180756
0.0358153
-0.174725
0.0330216
-0.168828
0.0303445
-0.163067
0.0277831
-0.157446
0.0253321
-0.15195
0.0229859
-0.146594
0.020744
-0.141362
0.00217234
-0.252914
0.0774755
-0.24559
0.0729758
-0.238417
0.0687024
-0.231318
0.0646056
-0.224362
0.0606343
-0.21756
0.0568394
-0.210821
0.0532184
-0.20425
0.049771
-0.19781
0.0463995
-0.191481
0.0432398
-0.185322
0.0401755
-0.179266
0.0372501
-0.17335
0.0344411
-0.167564
0.0317572
-0.161906
0.0291839
-0.156383
0.0267203
-0.150984
0.024366
-0.145719
0.0221106
-0.140576
0.0199586
-0.135565
0.00218129
-0.249708
0.078945
-0.24258
0.0744656
-0.235554
0.0701128
-0.22865
0.0660344
-0.221838
0.0620826
-0.21523
0.0583044
-0.208632
0.0546506
-0.202203
0.0511717
-0.195853
0.0478143
-0.189711
0.0446292
-0.183649
0.0415669
-0.177722
0.0386309
-0.171915
0.0358144
-0.166242
0.0331191
-0.160688
0.0305385
-0.155267
0.0280672
-0.149969
0.0257048
-0.144789
0.023436
-0.139736
0.02127
-0.134808
0.0192016
-0.129995
0.00218545
-0.246468
0.080309
-0.239438
0.0758028
-0.232657
0.071568
-0.225947
0.0674101
-0.219279
0.0634752
-0.212763
0.0596161
-0.206357
0.05603
-0.200069
0.0525157
-0.193906
0.0492247
-0.187881
0.0459845
-0.181927
0.042908
-0.176119
0.0399638
-0.170426
0.0371424
-0.164868
0.0344402
-0.159421
0.0318524
-0.154097
0.0293684
-0.148895
0.0269931
-0.143809
0.0247254
-0.138845
0.0225455
-0.134001
0.0204627
-0.129265
0.0184717
-0.124651
0.00219452
-0.243097
0.0816196
-0.236311
0.0771821
-0.229674
0.0728198
-0.223109
0.0687301
-0.216634
0.0647653
-0.21026
0.0609714
-0.204043
0.0573017
-0.197894
0.0538552
-0.19187
0.0504793
-0.185937
0.0472808
-0.180149
0.0442059
-0.17446
0.041249
-0.168888
0.0384256
-0.163436
0.0357113
-0.158097
0.0331161
-0.152873
0.0306292
-0.147772
0.0282455
-0.142776
0.0259596
-0.1379
0.0237805
-0.133138
0.0216833
-0.128485
0.0196823
-0.123947
0.0177673
-0.11952
0.00219376
-0.239644
0.0828743
-0.233101
0.0784089
-0.226608
0.0741164
-0.220285
0.0699956
-0.213952
0.066048
-0.207768
0.0622738
-0.201692
0.058621
-0.195682
0.0550897
-0.189759
0.0517443
-0.183988
0.0485303
-0.178316
0.0454476
-0.172746
0.0424924
-0.167296
0.0396572
-0.161953
0.0369423
-0.156719
0.0343337
-0.151597
0.0318399
-0.146591
0.029448
-0.141694
0.0271631
-0.136906
0.0249651
-0.132226
0.0228684
-0.127664
0.0208626
-0.123202
0.0189373
-0.118849
0.0170971
-0.114604
0.00220268
-0.236208
0.0841256
-0.229857
0.0796309
-0.223556
0.0753573
-0.217377
0.0712082
-0.211185
0.0672282
-0.205142
0.0634215
-0.199203
0.0597845
-0.193381
0.0563197
-0.187626
0.0529566
-0.181981
0.049737
-0.176432
0.0466462
-0.170985
0.0436867
-0.16565
0.0408461
-0.160419
0.038123
-0.155296
0.0355187
-0.15028
0.0330161
-0.145371
0.0306205
-0.140568
0.0283219
-0.135867
0.0261248
-0.13128
0.0240184
-0.126793
0.0219977
-0.122407
0.0200672
-0.118129
0.0182164
-0.113957
0.01645
-0.10988
0.00220681
-0.23274
0.0852741
-0.226533
0.0808011
-0.220424
0.076498
-0.214384
0.0723651
-0.20838
0.0684037
-0.202528
0.0646142
-0.196777
0.0609955
-0.191042
0.0574461
-0.185413
0.0541072
-0.179913
0.0508884
-0.174494
0.0477997
-0.169173
0.0448335
-0.163953
0.0419896
-0.158837
0.0392647
-0.15382
0.0366473
-0.148907
0.0341461
-0.144098
0.0317429
-0.139388
0.029441
-0.13478
0.0272347
-0.130274
0.0251189
-0.125868
0.0230933
-0.121566
0.0211574
-0.117367
0.0193057
-0.113264
0.0175234
-0.109255
0.0158247
-0.105348
0.00220592
-0.229142
0.0863696
-0.223174
0.0819156
-0.217204
0.0775818
-0.211355
0.073469
-0.205543
0.0695276
-0.199878
0.065754
-0.194215
0.062052
-0.188617
0.0585705
-0.183188
0.0552213
-0.177798
0.0519921
-0.172506
0.0489003
-0.167311
0.0459384
-0.162214
0.0430941
-0.15721
0.0403623
-0.152303
0.037748
-0.147495
0.035235
-0.142779
0.032827
-0.138161
0.0305154
-0.133645
0.0283053
-0.129229
0.0261899
-0.124908
0.0241591
-0.120686
0.0222129
-0.11656
0.0203507
-0.112525
0.0185672
-0.108594
0.0168619
-0.104753
0.0152298
-0.101002
0.00221005
-0.225561
0.087412
-0.219735
0.0829301
-0.213955
0.0786663
-0.208296
0.0745226
-0.20267
0.0705959
-0.197142
0.0667913
-0.191617
0.0631561
-0.186223
0.059658
-0.180899
0.0562813
-0.175638
0.0530616
-0.17048
0.0499657
-0.165408
0.0469971
-0.160426
0.0441509
-0.155532
0.0414159
-0.150734
0.0387935
-0.146029
0.0362823
-0.141416
0.0338724
-0.136896
0.0315625
-0.132476
0.0293467
-0.128145
0.0272215
-0.123904
0.0251858
-0.119761
0.0232341
-0.115714
0.0213661
-0.111751
0.0195765
-0.107886
0.01786
-0.104112
0.016221
-0.100427
0.0146545
-0.0968323
0.00221891
-0.2219
0.0884029
-0.216262
0.08394
-0.21067
0.0796455
-0.205199
0.0755689
-0.199761
0.071614
-0.194322
0.0677759
-0.188981
0.0641553
-0.183723
0.0606559
-0.178543
0.0573022
-0.173435
0.0540784
-0.168405
0.050987
-0.163459
0.0480166
-0.158593
0.0451637
-0.153813
0.0424318
-0.14913
0.0398112
-0.144527
0.0372918
-0.140011
0.0348774
-0.135587
0.032563
-0.131257
0.0303441
-0.127013
0.0282144
-0.122856
0.0261736
-0.118797
0.0242214
-0.114822
0.0223427
-0.110937
0.0205518
-0.107139
0.0188288
-0.103435
0.0171831
-0.0998102
0.0156046
-0.0962756
0.0140977
-0.0928291
0.00222301
-0.218208
0.0893422
-0.212759
0.0848996
-0.207354
0.080624
-0.202022
0.0764684
-0.196721
0.0725284
-0.191465
0.0687572
-0.186309
0.0651043
-0.181197
0.0616293
-0.176155
0.058268
-0.171179
0.0550462
-0.16628
0.051953
-0.161459
0.0489871
-0.156713
0.0461374
-0.152053
0.0434037
-0.147473
0.040775
-0.142974
0.0382575
-0.138564
0.0358448
-0.134236
0.0335272
-0.129998
0.0313032
-0.125837
0.0291685
-0.121769
0.0271275
-0.117788
0.0251648
-0.113891
0.0232901
-0.110083
0.0214883
-0.106356
0.0197686
-0.102718
0.0181113
-0.0991577
0.0165305
-0.0956873
0.0150164
-0.0922948
0.0135634
-0.088987
0.00222209
-0.214435
0.0901789
-0.209174
0.0857566
-0.203956
0.0815014
-0.198809
0.0774117
-0.193743
0.0734904
-0.188622
0.0696856
-0.183602
0.0660501
-0.178643
0.0625501
-0.173724
0.0591984
-0.16889
0.0559788
-0.164122
0.0528889
-0.159422
0.0499163
-0.154796
0.0470697
-0.150253
0.0443379
-0.145781
0.0417123
-0.14139
0.0391917
-0.137076
0.0367696
-0.132844
0.0344524
-0.128699
0.0322289
-0.124628
0.0300941
-0.120649
0.0280481
-0.116745
0.0260849
-0.112925
0.0241992
-0.109188
0.022396
-0.105532
0.020665
-0.10196
0.0190105
-0.0984692
0.0174228
-0.0950579
0.0159012
-0.0917238
0.0144454
-0.0884789
0.0130553
-0.0853012
0.00222616
-0.210632
0.0910648
-0.205607
0.0866118
-0.200574
0.0823743
-0.195611
0.0783034
-0.190632
0.0743004
-0.185696
0.070564
-0.180841
0.0669246
-0.176023
0.0634307
-0.171257
0.0600823
-0.166558
0.0568661
-0.161921
0.0537771
-0.157346
0.0508127
-0.152843
0.047963
-0.14841
0.0452259
-0.144044
0.0426008
-0.139764
0.0400855
-0.135551
0.0376666
-0.131419
0.0353449
-0.127364
0.0331169
-0.123382
0.0309825
-0.119485
0.0289302
-0.115663
0.0269665
-0.111921
0.02508
-0.10826
0.0232705
-0.104674
0.0215378
-0.101172
0.0198767
-0.0977451
0.0182865
-0.0943926
0.0167574
-0.0911216
0.0152989
-0.0879294
0.0138959
-0.0848087
0.0125628
-0.0817664
0.00223008
-0.206848
0.0918508
-0.201959
0.0874169
-0.197111
0.0831486
-0.192284
0.079047
-0.187489
0.0751608
-0.182735
0.07134
-0.178027
0.06775
-0.173371
0.0642721
-0.168751
0.0609248
-0.16419
0.0577145
-0.159677
0.0546225
-0.155231
0.0516614
-0.150846
0.0488163
-0.14653
0.0460833
-0.142281
0.0434628
-0.138102
0.0409395
-0.133986
0.0385197
-0.129951
0.0361985
-0.125991
0.0339722
-0.122097
0.031832
-0.118283
0.0297805
-0.114544
0.0278107
-0.110882
0.0259276
-0.107292
0.0241118
-0.103781
0.0223773
-0.100348
0.0207141
-0.0969805
0.0191121
-0.0936963
0.0175902
-0.0904881
0.0161239
-0.0873484
0.0147179
-0.0842845
0.0133717
-0.0812936
0.0120899
-0.0783777
0.0022341
-0.202983
0.0925841
-0.19828
0.0881718
-0.193616
0.0839225
-0.188973
0.0798372
-0.184359
0.0759175
-0.17974
0.0721651
-0.175229
0.0685416
-0.170684
0.0650635
-0.166206
0.0617272
-0.161778
0.0585127
-0.157399
0.0554365
-0.153082
0.0524738
-0.148814
0.0496293
-0.144609
0.0468959
-0.140474
0.0442759
-0.136394
0.0417544
-0.132387
0.0393414
-0.128447
0.0370158
-0.124581
0.0347887
-0.120773
0.0326489
-0.117047
0.0305965
-0.113395
0.0286313
-0.109808
0.0267373
-0.106289
0.0249252
-0.102853
0.0231841
-0.0994844
0.0215138
-0.0961856
0.0199193
-0.0929695
0.0183852
-0.089814
0.0169161
-0.0867362
0.0155117
-0.0837287
0.0141621
-0.0807888
0.012867
-0.0779187
0.0116309
-0.0751201
0.00223797
-0.199039
0.0932202
-0.19452
0.0888242
-0.190087
0.0846423
-0.185627
0.0805772
-0.181197
0.076675
-0.17676
0.0729375
-0.172349
0.0692854
-0.167956
0.0658134
-0.163622
0.0624792
-0.159328
0.059277
-0.155084
0.0561979
-0.150889
0.0532434
-0.146744
0.0504035
-0.142656
0.0476757
-0.138631
0.0450527
-0.13466
0.0425416
-0.130752
0.0401193
-0.126913
0.0378067
-0.123138
0.0355725
-0.119423
0.0334381
-0.11578
0.0313812
-0.112207
0.0294089
-0.108697
0.0275201
-0.105258
0.0257058
-0.101896
0.0239679
-0.0985959
0.0222956
-0.0953655
0.0206936
-0.092207
0.0191568
-0.0891136
0.0176849
-0.0860927
0.0162726
-0.0831366
0.0149197
-0.0802525
0.0136258
-0.0774326
0.0123809
-0.074679
0.0111898
-0.0719936
0.00223711
-0.195115
0.093903
-0.190827
0.0895273
-0.186529
0.0852663
-0.182201
0.0812162
-0.177952
0.0773316
-0.17365
0.0735655
-0.169401
0.0699891
-0.165197
0.0665269
-0.161007
0.0631988
-0.156854
0.0600049
-0.152737
0.0569292
-0.148667
0.0539767
-0.144639
0.0511388
-0.140673
0.0484205
-0.136756
0.0458016
-0.132891
0.043284
-0.129083
0.040872
-0.125341
0.0385474
-0.121653
0.0363213
-0.118036
0.0341861
-0.114478
0.0321368
-0.110986
0.03016
-0.107558
0.0282692
-0.104191
0.0264539
-0.100899
0.0247092
-0.0976678
0.0230398
-0.0945053
0.0214355
-0.0914095
0.0198961
-0.0883781
0.0184213
-0.0854136
0.0170058
-0.0825135
0.0156494
-0.0796846
0.0143518
-0.0769149
0.013108
-0.0742157
0.0119176
-0.0715745
0.0107707
-0.0689978
0.00224092
-0.19116
0.0944887
-0.187056
0.090132
-0.182937
0.0859356
-0.178839
0.0819043
-0.174723
0.0779877
-0.170566
0.0742477
-0.166487
0.0706514
-0.162407
0.0671989
-0.158361
0.0638806
-0.15434
0.0606852
-0.150354
0.0576227
-0.146413
0.0546749
-0.142507
0.0518439
-0.138655
0.0491213
-0.134843
0.0465071
-0.131088
0.0439985
-0.127387
0.0415885
-0.123738
0.0392694
-0.120153
0.0370474
-0.116618
0.0349028
-0.113145
0.0328527
-0.109734
0.0308849
-0.106384
0.0289869
-0.103097
0.0271747
-0.0998785
0.0254331
-0.0967153
0.0237566
-0.0936155
0.0221499
-0.0905866
0.0206126
-0.0876167
0.0191347
-0.0847084
0.0177162
-0.0818689
0.0163612
-0.0790904
0.0150552
-0.0763705
0.0138074
-0.0737158
0.0126081
-0.0711234
0.0114665
-0.0685951
0.010368
-0.0661278
0.00224469
-0.187176
0.0950741
-0.183252
0.0906852
-0.179314
0.0865091
-0.175348
0.0824445
-0.171386
0.0785676
-0.167437
0.0748587
-0.163513
0.0712736
-0.159587
0.0678309
-0.155679
0.0645173
-0.151795
0.0613353
-0.147947
0.0582776
-0.144127
0.0553367
-0.14034
0.0525078
-0.136602
0.0497908
-0.132904
0.0471821
-0.129256
0.0446755
-0.125655
0.042266
-0.122103
0.0399537
-0.118609
0.037726
-0.115165
0.0355941
-0.111782
0.0335396
-0.108452
0.0315709
-0.105181
0.0296819
-0.101974
0.027864
-0.0988244
0.0261207
-0.0957283
0.0244461
-0.0927007
0.0228418
-0.0897336
0.0212969
-0.0868203
0.0198162
-0.0839728
0.0183991
-0.0811885
0.0170358
-0.0784603
0.0157311
-0.0757995
0.0144843
-0.0731939
0.0132856
-0.0706502
0.0121348
-0.0681652
0.0110366
-0.0657359
0.00997609
-0.063364
0.00224374
-0.183159
0.0955584
-0.179367
0.0911885
-0.175659
0.08703
-0.171873
0.083034
-0.16809
0.0791484
-0.164301
0.075431
-0.160515
0.0718606
-0.156736
0.0684228
-0.152966
0.0651177
-0.149223
0.0619454
-0.145501
0.0588898
-0.141805
0.0559559
-0.138143
0.0531402
-0.134526
0.0504315
-0.130938
0.0478248
-0.127393
0.0453188
-0.123894
0.0429149
-0.120443
0.0406054
-0.11704
0.0383846
-0.113687
0.0362483
-0.11039
0.0342028
-0.107143
0.0322306
-0.103951
0.0303408
-0.100818
0.0285255
-0.0977391
0.0267787
-0.094716
0.0251083
-0.0917563
0.0235018
-0.0888508
0.021959
-0.0860033
0.0204799
-0.0832163
0.0190597
-0.0804873
0.0176979
-0.0778137
0.0163892
-0.0752022
0.0151337
-0.0726406
0.013931
-0.0701453
0.0127807
-0.0677034
0.0116731
-0.0653169
0.0106175
-0.062992
0.00960414
-0.0607159
0.00224263
-0.179065
0.0959967
-0.175503
0.0916941
-0.171974
0.0875036
-0.168365
0.0835224
-0.164731
0.0796743
-0.16112
0.0759681
-0.157486
0.0724027
-0.153855
0.0689797
-0.150231
0.065688
-0.146624
0.0625191
-0.143033
0.0594769
-0.139462
0.0565464
-0.13592
0.0537327
-0.132417
0.051031
-0.128935
0.0484285
-0.125503
0.0459344
-0.122105
0.0435298
-0.11875
0.0412222
-0.115439
0.0390042
-0.112181
0.0368783
-0.108968
0.0348258
-0.105801
0.0328604
-0.102694
0.0309733
-0.0996328
0.0291559
-0.0966268
0.0274132
-0.0936773
0.02574
-0.0907828
0.0241348
-0.0879383
0.0225893
-0.0851516
0.0211072
-0.0824248
0.0196884
-0.0797506
0.018323
-0.0771313
0.0170155
-0.0745738
0.0157608
-0.0720657
0.0145588
-0.0696137
0.0133994
-0.0672196
0.0122968
-0.0648755
0.0112317
-0.0625927
0.0102182
-0.0603582
0.0092465
-0.0581831
0.00225108
-0.17499
0.0964348
-0.171657
0.0921511
-0.168257
0.0879768
-0.16484
0.0839785
-0.161365
0.0801565
-0.157911
0.0764652
-0.154433
0.0729146
-0.150949
0.0694965
-0.147466
0.0662146
-0.143994
0.0630578
-0.140533
0.060019
-0.137091
0.0571055
-0.133672
0.0542988
-0.130282
0.0515977
-0.126912
0.0490085
-0.123583
0.0465088
-0.120287
0.044116
-0.117033
0.0418127
-0.113817
0.0396002
-0.110649
0.0374722
-0.10752
0.03543
-0.104441
0.0334662
-0.101407
0.0315733
-0.0984231
0.0297636
-0.0954957
0.0280249
-0.0926124
0.0263483
-0.0897843
0.0247415
-0.0870011
0.0231976
-0.0842796
0.0217173
-0.0816127
0.0202952
-0.0789932
0.018931
-0.0764281
0.0176198
-0.0739193
0.016361
-0.0714597
0.0151548
-0.0690554
0.0140006
-0.066709
0.0128888
-0.064412
0.0118333
-0.062171
0.01081
-0.0599732
0.00983311
-0.0578343
0.00889771
-0.0557416
0.00225
-0.170886
0.0968242
-0.167731
0.0925084
-0.164506
0.0884
-0.161288
0.0844243
-0.157984
0.0805974
-0.154677
0.0769222
-0.151351
0.0733829
-0.148017
0.0699832
-0.144679
0.0667098
-0.141342
0.0635628
-0.138009
0.0605347
-0.134693
0.057621
-0.131392
0.0548249
-0.128114
0.0521309
-0.124862
0.0495473
-0.121639
0.0470644
-0.118449
0.0446709
-0.115285
0.0423682
-0.112164
0.0401599
-0.109085
0.0380361
-0.106044
0.0359968
-0.103045
0.0340335
-0.100093
0.032152
-0.0971913
0.0303414
-0.0943314
0.0285993
-0.0915191
0.0269316
-0.0887571
0.0253211
-0.0860438
0.0237842
-0.0833827
0.0223008
-0.0807707
0.0208753
-0.0782103
0.0195123
-0.0756991
0.0182021
-0.0732438
0.0169443
-0.0708372
0.0157385
-0.0684807
0.01458
-0.0661768
0.0134683
-0.0639216
0.0123985
-0.0617175
0.0113798
-0.0595658
0.0104027
-0.0574631
0.00946183
-0.0554107
0.00856685
-0.0534055
0.00225354
-0.166794
0.0972147
-0.163823
0.0929164
-0.160794
0.0887971
-0.157711
0.0848227
-0.154571
0.0810121
-0.151425
0.0773455
-0.148248
0.0738197
-0.145064
0.0704299
-0.141861
0.067165
-0.138664
0.0640314
-0.13546
0.061013
-0.132272
0.0581136
-0.129092
0.055321
-0.125931
0.0526425
-0.122791
0.0500597
-0.119669
0.0475774
-0.116574
0.0451896
-0.113515
0.042901
-0.110493
0.0406969
-0.107503
0.0385787
-0.104547
0.0365386
-0.101631
0.0345831
-0.0987599
0.0327008
-0.0959274
0.0308881
-0.0931435
0.0291536
-0.090401
0.0274811
-0.0877051
0.0258796
-0.085057
0.0243344
-0.0824563
0.0228578
-0.0799085
0.0214385
-0.0774021
0.0200671
-0.0749446
0.0187578
-0.0725425
0.0175008
-0.0701837
0.0162908
-0.0678747
0.0151326
-0.0656179
0.0140211
-0.0634094
0.0129561
-0.0612516
0.0119326
-0.0591361
0.0109502
-0.0570693
0.0100089
-0.0550526
0.00910368
-0.0530824
0.00824379
-0.051165
0.00225223
-0.162643
0.0974599
-0.159836
0.0932275
-0.156998
0.0891195
-0.154088
0.0851749
-0.151134
0.0813855
-0.148148
0.0777351
-0.145127
0.0742242
-0.142088
0.0708429
-0.139029
0.0675977
-0.135964
0.064465
-0.132888
0.06146
-0.129826
0.0585677
-0.126765
0.0557871
-0.123721
0.0531107
-0.120687
0.0505384
-0.117675
0.0480655
-0.114685
0.0456882
-0.111725
0.0433989
-0.108792
0.0412004
-0.105891
0.0390851
-0.103022
0.0370541
-0.100189
0.0350965
-0.0973952
0.0332184
-0.094645
0.0314183
-0.0919358
0.0296804
-0.0892608
0.0280134
-0.0866345
0.0264106
-0.0840512
0.0248737
-0.0815147
0.0233928
-0.0790214
0.0219707
-0.0765689
0.0206053
-0.0741743
0.0192968
-0.0718204
0.0180356
-0.0695092
0.0168263
-0.0672524
0.0156684
-0.0650423
0.0145569
-0.0628755
0.0134872
-0.0607542
0.0124587
-0.0586796
0.011476
-0.0566533
0.0105342
-0.0546767
0.00963302
-0.0527464
0.00876765
-0.050854
0.00793281
-0.0490104
0.00225577
-0.158489
0.0977532
-0.155876
0.0934999
-0.153198
0.089428
-0.150468
0.0854997
-0.147679
0.0817202
-0.144847
0.0780847
-0.141982
0.07459
-0.139086
0.0712222
-0.13617
0.0679842
-0.133237
0.0648712
-0.1303
0.061877
-0.127359
0.0589931
-0.124421
0.0562232
-0.121491
0.0535574
-0.118567
0.0509908
-0.115661
0.0485248
-0.112775
0.0461554
-0.10991
0.0438731
-0.107072
0.0416789
-0.104257
0.0395665
-0.101477
0.0375398
-0.0987297
0.0355948
-0.0960182
0.0337195
-0.0933392
0.0319125
-0.0906962
0.0301787
-0.0880958
0.0285154
-0.0855343
0.0269131
-0.083017
0.0253764
-0.080539
0.0238981
-0.0781099
0.0224813
-0.0757152
0.021117
-0.0733738
0.0198048
-0.0710726
0.018549
-0.0688136
0.0173401
-0.066604
0.0161779
-0.0644357
0.0150619
-0.0623153
0.0139968
-0.0602398
0.0129728
-0.0582106
0.0119897
-0.0562199
0.0110426
-0.0542784
0.0101359
-0.052383
0.00926956
-0.050525
0.00843865
-0.0487157
0.00763813
-0.0469462
0.00225434
-0.154311
0.0979482
-0.151881
0.0937585
-0.149393
0.0896943
-0.146828
0.0857872
-0.144207
0.0820275
-0.141535
0.0784083
-0.138816
0.0749194
-0.136067
0.0715714
-0.133295
0.0683469
-0.130496
0.0652424
-0.12769
0.0622603
-0.124871
0.0593885
-0.122052
0.0566243
-0.119232
0.0539642
-0.116419
0.0514096
-0.113623
0.0489529
-0.11084
0.0465905
-0.10807
0.0443161
-0.105329
0.0421297
-0.102606
0.0400278
-0.0999146
0.038004
-0.0972434
0.0360535
-0.0946093
0.0341859
-0.0920099
0.0323902
-0.0894478
0.0306642
-0.0869171
0.0290001
-0.0844218
0.0274028
-0.0819679
0.025864
-0.0795545
0.0243919
-0.077178
0.0229662
-0.0748417
0.0216078
-0.0725579
0.0203011
-0.0703091
0.0190413
-0.0680974
0.0178328
-0.0659394
0.0166755
-0.0638173
0.0155596
-0.0617383
0.0144848
-0.0597036
0.0134606
-0.0577102
0.0124723
-0.0557644
0.0115342
-0.0538628
0.0106269
-0.0520019
0.0097549
-0.0501737
0.00891821
-0.0483983
0.00812122
-0.0466625
0.00735444
-0.0449676
0.00225284
-0.150146
0.0981935
-0.147908
0.0939749
-0.145566
0.0899319
-0.143174
0.0860409
-0.140718
0.0822975
-0.138198
0.0786905
-0.135636
0.0752277
-0.133036
0.0718883
-0.130399
0.068676
-0.127736
0.0655872
-0.125061
0.0626136
-0.122363
0.0597525
-0.119665
0.0570017
-0.116966
0.0543586
-0.114263
0.0518084
-0.11157
0.049356
-0.108885
0.0469979
-0.106213
0.0447328
-0.103565
0.042552
-0.100931
0.0404543
-0.0983202
0.0384335
-0.0957399
0.0365005
-0.0931868
0.034631
-0.0906635
0.0328395
-0.0881663
0.0311087
-0.0857053
0.0294523
-0.0832796
0.0278579
-0.080894
0.026329
-0.078544
0.0248535
-0.076226
0.0234398
-0.0739527
0.0220772
-0.0717167
0.0207665
-0.0695153
0.0195074
-0.0673603
0.0183043
-0.0652489
0.0171423
-0.0631732
0.0160313
-0.06114
0.0149613
-0.0591508
0.013932
-0.0571976
0.012948
-0.0552918
0.0119997
-0.0534202
0.0110916
-0.0515939
0.0102188
-0.0498046
0.00938581
-0.0480678
0.0085877
-0.0463608
0.00781947
-0.0446943
0.00708122
-0.0430695
0.002256
-0.145947
0.0983299
-0.143869
0.0941553
-0.141728
0.0901371
-0.139502
0.0862597
-0.137208
0.0825312
-0.13485
0.078949
-0.132436
0.0754912
-0.129979
0.0721702
-0.127482
0.0689714
-0.124956
0.0658961
-0.122407
0.0629332
-0.11984
0.0600905
-0.11726
0.0573477
-0.11467
0.0547054
-0.112076
0.0521708
-0.10949
0.0497291
-0.106911
0.0473816
-0.104337
0.0451222
-0.10178
0.042948
-0.0992371
0.0408582
-0.0967173
0.0388514
-0.0942193
0.0369129
-0.0917374
0.0350511
-0.0892937
0.0332612
-0.0868711
0.0315444
-0.0844848
0.0298882
-0.0821226
0.0282953
-0.0798017
0.0267656
-0.0775102
0.0252951
-0.075254
0.0238816
-0.0730338
0.0225209
-0.0708557
0.0212162
-0.0687111
0.0199623
-0.0666075
0.0187545
-0.0645376
0.0175929
-0.0625127
0.0164819
-0.0605202
0.0154116
-0.0585763
0.0143868
-0.0566634
0.0133978
-0.0547925
0.0124487
-0.0529652
0.0115447
-0.0511732
0.010671
-0.0494227
0.00983696
-0.04771
0.00902809
-0.0460318
0.00825868
-0.0443985
0.00752361
-0.0428063
0.00681806
-0.0412423
0.00225446
-0.141737
0.0984644
-0.139844
0.0943044
-0.137871
0.0902987
-0.135819
0.0864538
-0.133692
0.0827438
-0.131485
0.0791665
-0.129223
0.0757358
-0.126914
0.0724271
-0.12456
0.069248
-0.122169
0.0661849
-0.119746
0.0632355
-0.117302
0.0603958
-0.114838
0.0576678
-0.112362
0.0550398
-0.109881
0.052511
-0.107399
0.0500799
-0.104922
0.0477404
-0.102444
0.0454888
-0.0999794
0.0433216
-0.0975239
0.0412348
-0.0950901
0.039231
-0.0926732
0.0373052
-0.0902745
0.03545
-0.0879055
0.0336629
-0.0855589
0.031949
-0.0832361
0.0302957
-0.0809484
0.028714
-0.0786896
0.0271832
-0.0764601
0.0257155
-0.0742637
0.0243048
-0.0721018
0.0229496
-0.0699791
0.0216443
-0.0678863
0.0203913
-0.0658293
0.0191841
-0.0638104
0.0180274
-0.0618312
0.0169114
-0.0598843
0.0158459
-0.0579806
0.0148158
-0.0561075
0.013831
-0.054281
0.0128863
-0.0524883
0.0119718
-0.0507304
0.0111019
-0.0490186
0.0102669
-0.0473348
0.00946167
-0.0456945
0.00869082
-0.0440941
0.00795429
-0.0425252
0.00724249
-0.0409888
0.00656457
-0.0395
0.00225742
-0.137496
0.0985641
-0.135796
0.0944162
-0.13401
0.0904429
-0.132123
0.086603
-0.130152
0.0829141
-0.128107
0.0793653
-0.126
0.0759432
-0.123833
0.0726543
-0.121613
0.0694798
-0.119352
0.0664301
-0.117063
0.0635014
-0.114742
0.0606752
-0.112399
0.0579566
-0.110035
0.0553407
-0.107667
0.0528261
-0.105293
0.0504044
-0.102908
0.0480656
-0.100532
0.0458283
-0.0981582
0.0436677
-0.0957937
0.0415914
-0.0934508
0.0395955
-0.0911135
0.0376713
-0.0887958
0.0358266
-0.0865015
0.034046
-0.0842283
0.0323323
-0.0819738
0.0306867
-0.0797545
0.0291017
-0.0775556
0.02758
-0.0753894
0.0261125
-0.073255
0.0247068
-0.0711474
0.0233504
-0.0690782
0.0220487
-0.0670367
0.0207948
-0.0650355
0.0195975
-0.0630672
0.0184409
-0.0611338
0.0173299
-0.0592321
0.0162592
-0.0573684
0.0152337
-0.05554
0.0142483
-0.0537529
0.0133029
-0.0519944
0.0123924
-0.0502753
0.0115167
-0.0485925
0.0106758
-0.0469467
0.00987887
-0.0453396
0.00910675
-0.0437673
0.00836398
-0.0422214
0.00765052
-0.040722
0.00697567
-0.0392557
0.00632036
-0.0378188
0.00225556
-0.133275
0.0986188
-0.131746
0.094514
-0.13014
0.0905463
-0.128415
0.0867347
-0.126609
0.0830594
-0.124718
0.0795255
-0.122757
0.0761219
-0.120735
0.0728452
-0.118654
0.0696954
-0.116533
0.0666615
-0.114371
0.0637387
-0.112165
0.0609246
-0.109945
0.0582217
-0.107694
0.0556152
-0.105433
0.0531063
-0.103162
0.0506953
-0.100883
0.0483793
-0.0986027
0.0461365
-0.0963214
0.0439914
-0.0940527
0.0419267
-0.0917895
0.0399301
-0.0895319
0.0380138
-0.0872939
0.0361694
-0.0850729
0.034398
-0.0828744
0.0326921
-0.0806945
0.031053
-0.0785373
0.0294695
-0.0764067
0.0279528
-0.074306
0.0264966
-0.0722287
0.0250862
-0.0701795
0.0237389
-0.0681672
0.0224395
-0.0661807
0.0211927
-0.0642262
0.0199855
-0.0623036
0.0188338
-0.0604155
0.0177226
-0.0585586
0.0166565
-0.0567398
0.0156307
-0.0549509
0.0146445
-0.053203
0.0136984
-0.0514835
0.012792
-0.0498032
0.0119203
-0.0481537
0.011078
-0.0465413
0.0102703
-0.0449624
0.00950164
-0.043418
0.00875748
-0.0419093
0.00805185
-0.0404372
0.00736579
-0.0389887
0.00670861
-0.0375833
0.0060849
-0.0362127
0.00225827
-0.129028
0.0986535
-0.127694
0.0945671
-0.126247
0.0906209
-0.124698
0.0868293
-0.123053
0.0831788
-0.121322
0.0796634
-0.119509
0.0762783
-0.117632
0.0730187
-0.11569
0.0698811
-0.113697
0.0668594
-0.11166
0.06395
-0.109582
0.0611553
-0.107477
0.0584568
-0.105339
0.0558673
-0.103192
0.0533742
-0.101027
0.0509711
-0.0988437
0.048656
-0.0966557
0.0464323
-0.0944738
0.0442889
-0.0922898
0.0422285
-0.0901062
0.0402434
-0.0879382
0.0383364
-0.0857798
0.0364998
-0.0836384
0.0347349
-0.0815083
0.0330319
-0.0794017
0.0313993
-0.0773115
0.0298272
-0.0752478
0.0283107
-0.0732056
0.0268524
-0.0711854
0.0254533
-0.0691981
0.0241048
-0.0672353
0.0228069
-0.0653008
0.0215596
-0.0633962
0.0203627
-0.0615242
0.0192061
-0.0596813
0.0180996
-0.0578693
0.0170333
-0.056095
0.0160117
-0.0543502
0.01503
-0.0526367
0.0140782
-0.0509559
0.0131708
-0.0493092
0.012298
-0.0476978
0.0114644
-0.0461187
0.0106554
-0.0445725
0.00988044
-0.0430559
0.00913955
-0.0415794
0.00842764
-0.0401299
0.00774455
-0.0387131
0.00709019
-0.0373392
0.00646447
-0.0359857
0.00585792
-0.0346674
0.0022563
-0.124784
0.0986567
-0.123616
0.0945754
-0.122348
0.0906683
-0.120975
0.0868978
-0.119488
0.0832645
-0.117912
0.0797689
-0.116248
0.0764023
-0.114508
0.0731549
-0.112706
0.0700345
-0.110851
0.0670349
-0.10894
0.0641399
-0.106984
0.0613524
-0.104993
0.058671
-0.102973
0.0560909
-0.10093
0.0536058
-0.098866
0.0512134
-0.0967837
0.0489112
-0.0947015
0.0467018
-0.0926092
0.0445677
-0.0905112
0.0425103
-0.0884172
0.0405394
-0.0863351
0.0386403
-0.084255
0.0368116
-0.082187
0.0350483
-0.0801288
0.0333554
-0.0780892
0.0317194
-0.0760625
0.0301503
-0.0740657
0.0286451
-0.0720855
0.0271906
-0.0701259
0.025793
-0.0681943
0.0244495
-0.0662836
0.0231532
-0.0644048
0.0219109
-0.0625507
0.0207141
-0.0607245
0.019563
-0.0589314
0.0184562
-0.057164
0.0173943
-0.0554339
0.0163721
-0.0537283
0.0153898
-0.0520537
0.014447
-0.0504163
0.0135386
-0.0488031
0.0126647
-0.0472249
0.0118251
-0.0456787
0.0110243
-0.0441651
0.010248
-0.0426811
0.00950562
-0.041232
0.0087921
-0.0398096
0.00810734
-0.0384244
0.00745584
-0.0370724
0.00682345
-0.0357452
0.00622402
-0.034453
0.00564358
-0.033192
0.00225874
-0.120528
0.0986215
-0.119549
0.0945903
-0.118461
0.0906884
-0.117243
0.0869363
-0.115914
0.0833242
-0.114492
0.0798445
-0.112976
0.0764964
-0.11138
0.0732738
-0.10972
0.0701692
-0.107992
0.0671754
-0.106203
0.0642976
-0.104377
0.0615321
-0.102506
0.0588651
-0.100597
0.0562944
-0.0986596
0.05382
-0.0967022
0.051442
-0.0947208
0.0491505
-0.092733
0.0469428
-0.0907254
0.044818
-0.0887219
0.0427784
-0.0867174
0.0408105
-0.0847074
0.0389117
-0.0827055
0.0370909
-0.0807095
0.0353341
-0.0787309
0.0336504
-0.0767598
0.0320259
-0.0748049
0.0304618
-0.0728688
0.0289534
-0.0709471
0.0275067
-0.0690495
0.0261142
-0.0671785
0.0247771
-0.0653234
0.0234893
-0.0634988
0.0222472