/*--------------------------------*- C++ -*----------------------------------*\
  =========                 |
  \\      /  F ield         | OpenFOAM: The Open Source CFD Toolbox
   \\    /   O peration     | Website:  https://openfoam.org
    \\  /    A nd           | Version:  7
     \\/     M anipulation  |
\*---------------------------------------------------------------------------*/
FoamFile
{
    version     2.0;
    format      ascii;
    class       volVectorField;
    location    "1000";
    object      U;
}
// * * * * * * * * * * * * * * * * * * * * * * * * * * * * * * * * * * * * * //

dimensions      [0 1 -1 0 0 0 0];

internalField   nonuniform List<vector> 
23052
(
(49.5629 12.9627 -2.83442e-17)
(49.5948 12.9844 0)
(49.6469 13.1336 1.15936e-17)
(49.6175 13.0075 0)
(49.6399 13.1308 4.61188e-17)
(49.6104 13.131 6.15233e-18)
(49.6312 13.0304 1.20506e-17)
(49.6385 13.1329 5.18289e-19)
(49.6215 13.1412 -6.52011e-18)
(49.6183 13.1249 2.08472e-17)
(49.6405 13.0522 8.60089e-17)
(49.6409 13.1382 -7.13621e-17)
(49.6288 13.1501 -1.28806e-17)
(49.6179 13.1312 1.38085e-17)
(49.6065 13.1303 7.3789e-18)
(49.5969 13.123 8.00141e-18)
(49.6467 13.0726 -2.05109e-18)
(49.6441 13.1453 0)
(49.6338 13.1587 -8.57008e-17)
(49.619 13.1387 1.34182e-17)
(49.6078 13.1377 2.19877e-17)
(49.5948 13.1305 2.3617e-17)
(49.5771 13.1194 -2.04368e-18)
(49.5602 13.1127 0)
(49.6512 13.0914 1.59357e-17)
(49.6473 13.1534 1.1596e-16)
(49.6377 13.1671 9.77765e-17)
(49.6209 13.1469 -5.4758e-17)
(49.6087 13.1452 -1.17259e-16)
(49.5941 13.1384 -6.31084e-17)
(49.5766 13.1281 8.40541e-18)
(49.5592 13.1172 -2.27194e-18)
(49.537 13.1085 1.3655e-21)
(49.6546 13.1088 -1.17465e-16)
(49.6501 13.1619 -1.1585e-16)
(49.6409 13.1756 -4.92499e-17)
(49.6228 13.1555 4.09131e-17)
(49.6094 13.1528 -1.45607e-17)
(49.5938 13.1465 4.74104e-17)
(49.5759 13.1366 -8.6264e-18)
(49.5572 13.1261 0)
(49.5361 13.1135 0)
(49.513 13.1045 0)
(49.6572 13.1249 1.75491e-17)
(49.6525 13.1705 0)
(49.6435 13.184 2.40558e-17)
(49.6248 13.1642 2.61388e-17)
(49.6102 13.1606 -4.32905e-17)
(49.5938 13.1547 -4.69252e-17)
(49.5753 13.1451 -8.41018e-17)
(49.5558 13.135 -1.81663e-17)
(49.5343 13.1231 0)
(49.5119 13.1097 -2.13317e-17)
(49.4862 13.0999 -2.57826e-20)
(49.6594 13.1396 -2.27774e-16)
(49.6545 13.1791 0)
(49.6458 13.1923 0)
(49.6265 13.1729 -1.0724e-16)
(49.611 13.1686 1.3034e-16)
(49.5939 13.1629 7.8054e-17)
(49.5748 13.1536 6.73633e-17)
(49.5546 13.1439 -3.61314e-17)
(49.5328 13.1326 -9.66364e-18)
(49.5097 13.1198 3.20722e-17)
(49.4851 13.1055 -2.59254e-17)
(49.4579 13.0953 2.34515e-20)
(49.6613 13.1533 1.83214e-16)
(49.6561 13.1875 0)
(49.6477 13.2004 -1.64827e-16)
(49.6281 13.1816 8.01654e-17)
(49.6118 13.1766 0)
(49.5941 13.1711 1.08119e-16)
(49.5744 13.1622 -1.64614e-17)
(49.5537 13.1528 7.23721e-17)
(49.5315 13.142 0)
(49.5079 13.1298 5.29634e-17)
(49.4828 13.1162 1.16581e-17)
(49.4567 13.1012 6.21264e-18)
(49.4276 13.0905 0)
(49.663 13.1659 -3.53306e-17)
(49.6574 13.1956 4.93132e-17)
(49.6493 13.2083 -2.36767e-17)
(49.6294 13.1902 -2.56916e-17)
(49.6125 13.1847 2.82405e-17)
(49.5944 13.1793 -5.73508e-19)
(49.5742 13.1707 1.32878e-16)
(49.5529 13.1616 -1.828e-17)
(49.5303 13.1514 -7.7603e-17)
(49.5063 13.1397 -1.28675e-19)
(49.481 13.1267 4.58693e-17)
(49.4543 13.1124 0)
(49.4264 13.0968 -3.29331e-18)
(49.3958 13.0856 0)
(49.6646 13.1776 -2.23531e-16)
(49.6585 13.2035 0)
(49.6507 13.216 1.64711e-16)
(49.6306 13.1986 2.55887e-17)
(49.6132 13.1927 0)
(49.5946 13.1875 -2.45092e-16)
(49.574 13.1792 -1.32872e-16)
(49.5523 13.1705 1.81993e-17)
(49.5293 13.1607 9.65624e-17)
(49.5049 13.1495 -6.32213e-17)
(49.4792 13.1372 -1.42227e-19)
(49.4522 13.1235 -6.1121e-17)
(49.4239 13.1086 6.78239e-18)
(49.3945 13.0923 1.81279e-17)
(49.3624 13.0807 -3.50108e-20)
(49.6661 13.1884 -4.27068e-17)
(49.6595 13.211 -4.56639e-17)
(49.6519 13.2234 2.43945e-17)
(49.6317 13.2068 5.22611e-17)
(49.6138 13.2007 0)
(49.5949 13.1956 6.13811e-19)
(49.5739 13.1877 0)
(49.5518 13.1793 -1.4226e-16)
(49.5284 13.1699 -7.62398e-17)
(49.5037 13.1593 2.11941e-17)
(49.4777 13.1475 -1.24492e-16)
(49.4504 13.1345 1.10155e-16)
(49.4218 13.1202 3.94175e-17)
(49.392 13.1046 -1.41429e-17)
(49.3611 13.0877 -7.81836e-18)
(49.3275 13.0757 3.88042e-20)
(49.6676 13.1985 2.23337e-16)
(49.6603 13.2182 1.88084e-16)
(49.6529 13.2305 4.75767e-17)
(49.6327 13.2148 -2.54181e-17)
(49.6144 13.2086 -2.78917e-17)
(49.5952 13.2037 1.52813e-16)
(49.5739 13.1961 -3.34083e-17)
(49.5514 13.188 6.71552e-19)
(49.5276 13.1791 9.63513e-17)
(49.5026 13.169 6.23537e-17)
(49.4763 13.1578 6.78513e-17)
(49.4487 13.1454 -3.67459e-17)
(49.4199 13.1318 -1.04962e-16)
(49.3899 13.1169 6.77794e-18)
(49.3585 13.1007 -7.63317e-18)
(49.3261 13.0832 4.14748e-18)
(49.2911 13.0708 -4.08888e-20)
(49.6691 13.2078 -1.84825e-16)
(49.6611 13.2252 -1.85568e-16)
(49.6538 13.2373 9.61627e-17)
(49.6336 13.2226 -2.65962e-17)
(49.6149 13.2163 2.25086e-16)
(49.5955 13.2116 1.20825e-16)
(49.5739 13.2044 -1.96096e-16)
(49.551 13.1967 1.76564e-16)
(49.527 13.1883 -1.52367e-16)
(49.5017 13.1787 -1.24089e-16)
(49.4751 13.168 2.27359e-17)
(49.4473 13.1562 -7.19541e-17)
(49.4182 13.1432 6.58925e-17)
(49.3879 13.129 -1.39866e-17)
(49.3564 13.1135 2.33234e-17)
(49.3236 13.0968 0)
(49.2897 13.0786 1.35708e-17)
(49.2532 13.066 4.53208e-20)
(49.6705 13.2166 2.29948e-16)
(49.6618 13.2318 0)
(49.6546 13.2439 4.84991e-17)
(49.6344 13.2301 -2.32282e-16)
(49.6155 13.2239 -2.26512e-16)
(49.5958 13.2195 -1.51781e-16)
(49.5739 13.2126 2.60873e-16)
(49.5508 13.2053 -1.12164e-18)
(49.5265 13.1973 7.69313e-19)
(49.5009 13.1882 0)
(49.4741 13.1781 2.18909e-17)
(49.446 13.1669 7.28386e-17)
(49.4167 13.1546 -3.89561e-17)
(49.3861 13.141 -5.59991e-17)
(49.3543 13.1262 0)
(49.3214 13.1102 -8.70844e-20)
(49.2871 13.0929 -8.92012e-18)
(49.2518 13.0742 5.05038e-18)
(49.2139 13.0611 -4.78007e-20)
(49.672 13.2247 -2.85702e-16)
(49.6626 13.2381 1.37125e-16)
(49.6554 13.2501 0)
(49.6351 13.2374 3.65965e-16)
(49.6159 13.2313 -2.76484e-17)
(49.5961 13.2272 6.03319e-17)
(49.574 13.2207 3.12397e-17)
(49.5507 13.2138 0)
(49.5261 13.2062 1.89298e-16)
(49.5003 13.1977 -1.63399e-16)
(49.4732 13.1881 0)
(49.4449 13.1775 -9.56834e-17)
(49.4153 13.1658 0)
(49.3846 13.1529 8.46276e-17)
(49.3526 13.1389 3.04105e-17)
(49.3193 13.1235 -9.94813e-17)
(49.2849 13.107 6.29005e-17)
(49.2492 13.0891 -1.93879e-17)
(49.2125 13.0698 -2.65675e-17)
(49.1731 13.0564 -1.88322e-21)
(49.6734 13.2322 4.04799e-16)
(49.6633 13.2441 -1.89106e-16)
(49.656 13.2561 0)
(49.6358 13.2444 5.15246e-17)
(49.6164 13.2386 0)
(49.5964 13.2347 -3.05166e-17)
(49.5742 13.2287 -1.28956e-16)
(49.5506 13.2222 1.39479e-16)
(49.5258 13.2151 0)
(49.4998 13.2071 1.6364e-16)
(49.4724 13.198 0)
(49.4439 13.188 7.14289e-17)
(49.4142 13.1769 -2.63296e-17)
(49.3832 13.1647 2.8547e-17)
(49.351 13.1514 -1.36569e-16)
(49.3175 13.1368 1.64801e-17)
(49.2829 13.1209 -5.41893e-17)
(49.247 13.1038 4.88552e-17)
(49.2099 13.0853 -1.88606e-19)
(49.1717 13.0654 1.74292e-17)
(49.1308 13.0517 1.09782e-19)
(49.6749 13.2393 -3.26591e-16)
(49.664 13.2499 -4.17978e-16)
(49.6567 13.2618 -2.35164e-16)
(49.6365 13.2512 -1.32607e-18)
(49.6169 13.2456 -2.67295e-17)
(49.5968 13.2421 0)
(49.5744 13.2366 6.46447e-17)
(49.5506 13.2305 -1.74195e-16)
(49.5256 13.2239 0)
(49.4994 13.2163 0)
(49.4718 13.2079 -1.75312e-16)
(49.4431 13.1985 2.42022e-17)
(49.4132 13.188 -7.74054e-17)
(49.382 13.1764 5.58589e-17)
(49.3496 13.1637 3.09002e-17)
(49.3159 13.1499 8.25466e-17)
(49.2811 13.1348 0)
(49.245 13.1184 -1.97842e-17)
(49.2077 13.1008 4.20698e-17)
(49.1691 13.0817 1.12624e-17)
(49.1295 13.0612 -1.22612e-17)
(49.0871 13.0471 5.92553e-21)
(49.6764 13.2459 3.65654e-16)
(49.6647 13.2554 7.92654e-16)
(49.6573 13.2673 3.17119e-19)
(49.6372 13.2577 -2.07712e-16)
(49.6173 13.2525 2.50744e-16)
(49.5971 13.2494 1.78366e-16)
(49.5746 13.2443 0)
(49.5507 13.2386 1.04329e-16)
(49.5255 13.2325 0)
(49.4991 13.2255 1.20304e-16)
(49.4714 13.2176 3.50265e-16)
(49.4425 13.2088 0)
(49.4123 13.1989 7.76105e-17)
(49.381 13.188 0)
(49.3484 13.176 -1.49813e-16)
(49.3145 13.1629 0)
(49.2795 13.1485 -1.74374e-17)
(49.2432 13.1329 0)
(49.2057 13.116 -5.26585e-17)
(49.1669 13.0978 -1.16161e-17)
(49.1269 13.0782 0)
(49.0858 13.0571 -6.88522e-18)
(49.0419 13.0426 -6.30292e-20)
(49.6779 13.252 6.97198e-18)
(49.6655 13.2607 -7.4777e-16)
(49.6579 13.2726 1.40795e-16)
(49.6378 13.264 5.03791e-17)
(49.6178 13.2592 -2.23552e-16)
(49.5975 13.2564 -2.68753e-16)
(49.5748 13.2519 -2.24453e-16)
(49.5508 13.2467 -2.77211e-16)
(49.5255 13.241 0)
(49.4989 13.2345 -1.61979e-16)
(49.471 13.2272 -3.06072e-16)
(49.442 13.219 1.88198e-16)
(49.4117 13.2097 0)
(49.3801 13.1995 1.10361e-16)
(49.3474 13.1882 1.50807e-16)
(49.3133 13.1757 0)
(49.2781 13.1621 7.04525e-17)
(49.2416 13.1473 9.60684e-17)
(49.2039 13.1312 2.12395e-17)
(49.1649 13.1138 1.11308e-17)
(49.1247 13.095 -4.57326e-19)
(49.0831 13.0748 0)
(49.0406 13.053 -1.48649e-17)
(48.9951 13.0381 -7.0791e-20)
(49.6793 13.2578 3.96809e-16)
(49.6663 13.2657 3.73197e-16)
(49.6585 13.2776 -2.36139e-16)
(49.6385 13.2701 0)
(49.6183 13.2657 5.63353e-17)
(49.5979 13.2633 3.02313e-17)
(49.5752 13.2593 2.5726e-16)
(49.551 13.2546 3.79e-16)
(49.5256 13.2494 0)
(49.4988 13.2435 -1.60399e-16)
(49.4708 13.2367 1.74466e-16)
(49.4416 13.2291 -2.50886e-17)
(49.4111 13.2205 0)
(49.3794 13.2109 -1.10528e-16)
(49.3465 13.2002 0)
(49.3123 13.1885 -3.18398e-17)
(49.2769 13.1756 -5.25518e-17)
(49.2403 13.1615 -7.64932e-17)
(49.2023 13.1462 -2.03689e-17)
(49.1632 13.1296 -7.8596e-17)
(49.1227 13.1117 0)
(49.081 13.0923 1.30993e-17)
(49.0379 13.0714 1.45437e-17)
(48.9938 13.049 1.5831e-17)
(48.9468 13.0337 -2.82063e-21)
(49.6808 13.2631 4.00096e-17)
(49.6671 13.2705 0)
(49.6591 13.2824 4.68731e-16)
(49.6392 13.2759 5.03492e-17)
(49.6188 13.272 0)
(49.5983 13.2701 1.479e-16)
(49.5755 13.2666 -6.39997e-17)
(49.5512 13.2623 -2.76725e-16)
(49.5257 13.2577 3.66069e-17)
(49.4989 13.2523 3.20864e-16)
(49.4707 13.2461 0)
(49.4414 13.239 -2.11864e-16)
(49.4108 13.2311 -1.77214e-16)
(49.3789 13.2221 0)
(49.3458 13.2121 -3.02923e-17)
(49.3115 13.2011 0)
(49.2759 13.189 0)
(49.2391 13.1756 5.71021e-17)
(49.201 13.1611 8.2305e-17)
(49.1616 13.1453 1.34383e-16)
(49.121 13.1282 2.43949e-17)
(49.079 13.1097 0)
(49.0358 13.0897 -1.47115e-17)
(48.9912 13.0683 -3.93798e-17)
(48.9455 13.0452 -8.40684e-18)
(48.8969 13.0294 -3.05386e-21)
(49.6823 13.2682 -7.12377e-16)
(49.6679 13.2751 -4.79833e-17)
(49.6597 13.287 -2.24626e-18)
(49.6398 13.2815 3.07942e-16)
(49.6194 13.2781 0)
(49.5987 13.2766 -2.07985e-16)
(49.5759 13.2737 2.85672e-16)
(49.5515 13.27 3.07853e-16)
(49.5259 13.2659 0)
(49.499 13.261 -1.6054e-16)
(49.4708 13.2554 -2.16128e-16)
(49.4413 13.2489 4.75234e-17)
(49.4105 13.2415 2.27585e-16)
(49.3786 13.2333 2.78452e-17)
(49.3454 13.224 3.01727e-17)
(49.3109 13.2136 6.42909e-17)
(49.2752 13.2022 1.03457e-16)
(49.2382 13.1896 -2.07375e-16)
(49.1999 13.1759 -1.43294e-16)
(49.1603 13.1609 -4.23481e-19)
(49.1195 13.1446 0)
(49.0773 13.127 3.96683e-17)
(49.0338 13.1079 -7.18831e-17)
(48.989 13.0873 4.66227e-17)
(48.9428 13.0652 -2.55993e-17)
(48.8955 13.0414 -1.39726e-17)
(48.8453 13.0252 1.76022e-19)
(49.6837 13.2728 4.1663e-18)
(49.6688 13.2795 3.26125e-16)
(49.6604 13.2914 -7.55593e-16)
(49.6405 13.2868 -2.06652e-16)
(49.62 13.284 1.66192e-16)
(49.5992 13.283 0)
(49.5764 13.2806 -3.19396e-16)
(49.5519 13.2775 -2.15353e-18)
(49.5262 13.2739 0)
(49.4992 13.2696 0)
(49.4709 13.2645 2.16707e-16)
(49.4413 13.2587 4.5812e-17)
(49.4105 13.2519 1.51152e-16)
(49.3784 13.2443 2.7745e-17)
(49.345 13.2357 1.03346e-18)
(49.3104 13.226 -3.14518e-17)
(49.2746 13.2153 -3.49115e-17)
(49.2374 13.2035 5.70162e-17)
(49.199 13.1905 6.18692e-17)
(49.1592 13.1763 -1.10812e-16)
(49.1182 13.1609 -7.16602e-17)
(49.0758 13.1441 -5.25674e-17)
(49.0321 13.1259 4.263e-17)
(48.9871 13.1062 -4.67144e-17)
(48.9407 13.085 3.386e-17)
(48.8929 13.0622 9.21879e-18)
(48.844 13.0377 4.92452e-18)
(48.7921 13.021 -1.90445e-19)
(49.6852 13.2773 3.59597e-16)
(49.6697 13.2836 -3.77038e-16)
(49.661 13.2956 5.08572e-17)
(49.6412 13.292 -5.22452e-17)
(49.6206 13.2898 -1.66251e-16)
(49.5997 13.2893 6.00136e-17)
(49.5769 13.2874 0)
(49.5524 13.2848 -4.78988e-16)
(49.5266 13.2818 0)
(49.4995 13.278 -1.17998e-16)
(49.4711 13.2735 -4.36808e-17)
(49.4415 13.2683 -4.56701e-17)
(49.4105 13.2622 -4.26989e-16)
(49.3783 13.2552 0)
(49.3449 13.2472 -2.89216e-17)
(49.3101 13.2383 -3.13343e-17)
(49.2741 13.2283 -1.38637e-16)
(49.2369 13.2173 1.50384e-16)
(49.1983 13.205 -1.9993e-17)
(49.1584 13.1917 2.25194e-17)
(49.1171 13.177 2.16501e-16)
(49.0746 13.1611 5.18799e-17)
(49.0307 13.1437 5.6616e-17)
(48.9854 13.125 1.54364e-16)
(48.9387 13.1047 -4.9926e-17)
(48.8907 13.0829 0)
(48.8413 13.0594 0)
(48.7907 13.0341 -1.08371e-17)
(48.737 13.0168 -1.05605e-19)
(49.6866 13.2814 3.10517e-16)
(49.6706 13.2876 0)
(49.6616 13.2996 3.79957e-16)
(49.642 13.297 -4.59591e-16)
(49.6212 13.2953 -1.48102e-18)
(49.6003 13.2954 1.52458e-18)
(49.5774 13.2941 -9.47914e-17)
(49.5529 13.292 3.70025e-17)
(49.5271 13.2895 -7.36267e-17)
(49.4999 13.2864 5.15624e-16)
(49.4715 13.2825 8.48709e-17)
(49.4417 13.2778 4.55355e-17)
(49.4107 13.2723 2.00843e-16)
(49.3784 13.266 5.41823e-17)
(49.3449 13.2587 0)
(49.31 13.2504 3.23442e-17)
(49.2739 13.2412 3.50709e-17)
(49.2365 13.2309 0)
(49.1978 13.2194 0)
(49.1577 13.2068 -1.10161e-16)
(49.1163 13.193 -2.14628e-16)
(49.0736 13.1779 -2.59707e-16)
(49.0295 13.1615 -1.41502e-16)
(48.984 13.1436 -2.81147e-19)
(48.9371 13.1243 5.05468e-17)
(48.8888 13.1034 6.81532e-19)
(48.8391 13.0809 0)
(48.788 13.0566 -1.93201e-19)
(48.7356 13.0306 0)
(48.6802 13.0127 -8.36411e-21)
(49.688 13.2852 3.38618e-17)
(49.6715 13.2914 -3.26676e-16)
(49.6623 13.3035 4.83235e-17)
(49.6427 13.3018 4.12499e-16)
(49.6219 13.3007 2.75811e-16)
(49.6009 13.3013 -1.16711e-16)
(49.578 13.3006 -6.24679e-17)
(49.5535 13.2991 3.59815e-17)
(49.5276 13.2971 -7.34564e-17)
(49.5004 13.2945 -5.94015e-16)
(49.4719 13.2912 -8.68991e-17)
(49.4421 13.2872 4.54076e-17)
(49.411 13.2823 0)
(49.3787 13.2766 2.74681e-17)
(49.345 13.27 -2.61536e-16)
(49.3101 13.2625 -3.22314e-17)
(49.2739 13.2539 1.37952e-16)
(49.2363 13.2444 -1.8486e-16)
(49.1975 13.2337 -2.02058e-16)
(49.1573 13.2219 8.78806e-17)
(49.1157 13.2089 1.18799e-16)
(49.0728 13.1946 1.03662e-16)
(49.0285 13.179 1.40255e-16)
(48.9828 13.1621 -1.37752e-16)
(48.9357 13.1437 6.62991e-17)
(48.8872 13.1237 0)
(48.8372 13.1022 4.00141e-17)
(48.7858 13.079 -5.37007e-17)
(48.7329 13.054 1.14639e-17)
(48.6788 13.0271 -1.26991e-17)
(48.6215 13.0087 2.36674e-19)
(49.6894 13.2888 -3.57223e-16)
(49.6725 13.2951 3.77852e-16)
(49.663 13.3072 -3.77885e-16)
(49.6435 13.3064 -1.02478e-16)
(49.6226 13.306 -1.65886e-16)
(49.6016 13.307 1.784e-16)
(49.5787 13.3069 -6.2373e-17)
(49.5541 13.306 2.47967e-18)
(49.5282 13.3046 2.91584e-16)
(49.501 13.3026 6.70311e-16)
(49.4725 13.2999 -2.14406e-16)
(49.4426 13.2964 -1.37945e-16)
(49.4115 13.2922 0)
(49.3791 13.2872 -2.73832e-17)
(49.3453 13.2812 2.05166e-16)
(49.3103 13.2744 2.51351e-16)
(49.274 13.2666 -1.03589e-16)
(49.2363 13.2577 2.3405e-18)
(49.1974 13.2478 1.61335e-16)
(49.157 13.2368 4.2879e-17)
(49.1153 13.2246 0)
(49.0722 13.2112 1.2887e-16)
(49.0278 13.1965 0)
(48.9819 13.1804 6.09507e-17)
(48.9346 13.1629 3.27662e-17)
(48.8858 13.144 7.17544e-17)
(48.8356 13.1234 -1.37262e-16)
(48.7839 13.1012 2.17675e-17)
(48.7307 13.0772 -4.35475e-19)
(48.676 13.0514 2.55419e-17)
(48.62 13.0237 -7.02071e-18)
(48.5609 13.0046 0)
(49.6908 13.2921 0)
(49.6735 13.2985 0)
(49.6637 13.3107 3.81358e-16)
(49.6442 13.3108 0)
(49.6233 13.311 1.10086e-16)
(49.6023 13.3126 -5.82115e-17)
(49.5794 13.3131 -3.20391e-17)
(49.5548 13.3128 2.56557e-18)
(49.5289 13.312 -5.47407e-16)
(49.5017 13.3105 -2.87825e-18)
(49.4731 13.3084 4.32077e-17)
(49.4432 13.3056 4.67606e-17)
(49.4121 13.302 -1.97494e-16)
(49.3796 13.2976 -2.73011e-17)
(49.3458 13.2923 2.59818e-16)
(49.3107 13.2862 -5.02928e-16)
(49.2743 13.2791 -3.47027e-17)
(49.2365 13.271 1.85868e-16)
(49.1975 13.2618 1.45486e-18)
(49.157 13.2516 -2.21533e-17)
(49.1152 13.2402 2.40521e-17)
(49.0719 13.2277 -1.02806e-16)
(49.0273 13.2138 1.03469e-18)
(48.9812 13.1986 -1.51554e-16)
(48.9337 13.1821 -6.59612e-17)
(48.8847 13.164 -1.60672e-16)
(48.8342 13.1445 7.8026e-17)
(48.7823 13.1232 2.08019e-17)
(48.7288 13.1003 1.17559e-17)
(48.6738 13.0756 6.24557e-17)
(48.6172 13.0489 -1.34344e-17)
(48.5594 13.0203 7.32049e-18)
(48.4983 13.0006 0)
(49.6922 13.2953 3.94726e-16)
(49.6745 13.3019 -4.62962e-17)
(49.6644 13.3142 -3.78403e-16)
(49.6451 13.3151 0)
(49.6241 13.3159 -5.57096e-17)
(49.603 13.3181 -5.81422e-17)
(49.5801 13.3191 0)
(49.5556 13.3194 3.4015e-16)
(49.5297 13.3192 2.81083e-18)
(49.5025 13.3183 -6.67201e-16)
(49.4739 13.3168 0)
(49.444 13.3146 1.38805e-16)
(49.4128 13.3116 1.48332e-16)
(49.3802 13.3079 0)
(49.3464 13.3033 -4.63992e-16)
(49.3113 13.2978 1.99731e-18)
(49.2748 13.2915 3.459e-17)
(49.2369 13.2841 1.82856e-16)
(49.1977 13.2757 -3.92303e-17)
(49.1572 13.2663 1.58407e-18)
(49.1152 13.2557 -1.88294e-16)
(49.0718 13.244 -2.50752e-17)
(49.027 13.231 0)
(48.9808 13.2167 -2.89077e-17)
(48.933 13.201 -9.84623e-17)
(48.8838 13.184 3.65946e-19)
(48.8331 13.1653 0)
(48.7809 13.1451 -1.05553e-16)
(48.7272 13.1233 0)
(48.6719 13.0996 -1.24821e-16)
(48.615 13.0741 1.38588e-17)
(48.5565 13.0466 -4.46589e-17)
(48.4967 13.017 8.2266e-18)
(48.4336 12.9965 3.11031e-19)
(49.6935 13.2982 -3.59905e-16)
(49.6755 13.305 -9.3754e-17)
(49.6652 13.3174 8.09071e-16)
(49.6459 13.3192 -5.19814e-17)
(49.6249 13.3207 -5.56401e-17)
(49.6038 13.3234 2.91642e-16)
(49.581 13.325 -3.19279e-17)
(49.5564 13.3259 0)
(49.5306 13.3262 2.93617e-16)
(49.5033 13.326 3.15092e-16)
(49.4747 13.3251 0)
(49.4448 13.3235 -2.28139e-16)
(49.4136 13.3211 0)
(49.381 13.318 5.24709e-17)
(49.3472 13.3141 2.31819e-16)
(49.312 13.3094 2.81692e-16)
(49.2754 13.3037 0)
(49.2375 13.2971 -1.83367e-16)
(49.1982 13.2895 -1.58538e-16)
(49.1575 13.2808 -1.7202e-16)
(49.1155 13.2711 3.28693e-16)
(49.0719 13.2602 -9.407e-19)
(49.027 13.248 0)
(48.9806 13.2346 1.5095e-16)
(48.9327 13.2199 1.30775e-16)
(48.8833 13.2037 7.10727e-17)
(48.8323 13.1861 1.96493e-17)
(48.7799 13.1669 1.67667e-16)
(48.7258 13.146 2.23974e-17)
(48.6702 13.1235 2.15017e-19)
(48.613 13.099 4.08209e-17)
(48.5543 13.0727 -1.43386e-17)
(48.4938 13.0442 1.57435e-17)
(48.432 13.0137 -8.57914e-18)
(48.3668 12.9924 -3.24115e-19)
(49.6948 13.301 -8.28417e-17)
(49.6765 13.308 4.6765e-16)
(49.6659 13.3206 -3.34323e-16)
(49.6468 13.3232 4.07155e-16)
(49.6258 13.3253 5.41973e-17)
(49.6047 13.3285 -1.77741e-16)
(49.5818 13.3308 -6.37536e-17)
(49.5573 13.3322 -9.80659e-19)
(49.5315 13.3332 0)
(49.5043 13.3335 -7.82978e-17)
(49.4757 13.3332 4.28924e-17)
(49.4458 13.3322 4.10552e-16)
(49.4145 13.3305 4.84153e-17)
(49.382 13.3281 0)
(49.3481 13.3249 0)
(49.3128 13.3208 0)
(49.2762 13.3158 0)
(49.2382 13.31 0)
(49.1989 13.3031 3.17233e-16)
(49.1581 13.2952 1.72695e-16)
(49.1159 13.2863 -1.87366e-16)
(49.0723 13.2762 0)
(49.0272 13.2649 1.36707e-16)
(48.9806 13.2524 -1.19156e-16)
(48.9325 13.2386 -3.18914e-17)
(48.8829 13.2234 -3.59816e-17)
(48.8318 13.2067 1.95593e-17)
(48.7791 13.1885 -1.87353e-16)
(48.7248 13.1687 0)
(48.6689 13.1472 4.94871e-17)
(48.6114 13.1238 5.36223e-17)
(48.5523 13.0986 -7.27161e-17)
(48.4915 13.0713 1.62406e-17)
(48.429 13.042 8.84556e-18)
(48.3652 13.0104 0)
(48.2978 12.9883 -3.63875e-19)
(49.6961 13.3035 0)
(49.6776 13.3109 -3.30803e-16)
(49.6667 13.3236 3.30685e-16)
(49.6476 13.327 -4.11376e-16)
(49.6267 13.3298 -4.36799e-16)
(49.6055 13.3335 0)
(49.5827 13.3364 6.36626e-17)
(49.5583 13.3384 3.68813e-16)
(49.5325 13.34 -2.52647e-16)
(49.5053 13.3409 0)
(49.4767 13.3412 -1.34121e-18)
(49.4468 13.3408 -2.27312e-16)
(49.4156 13.3398 1.63946e-18)
(49.383 13.338 1.57176e-16)
(49.3491 13.3355 0)
(49.3138 13.3321 -2.15761e-16)
(49.2772 13.3278 2.68013e-16)
(49.2391 13.3227 1.45242e-16)
(49.1997 13.3166 -1.5876e-16)
(49.1589 13.3095 0)
(49.1166 13.3014 -4.74229e-17)
(49.0728 13.2921 -1.7551e-16)
(49.0276 13.2817 -8.20721e-17)
(48.9809 13.2701 8.91147e-17)
(48.9326 13.2572 -9.59784e-17)
(48.8828 13.2429 0)
(48.8315 13.2272 -1.14842e-16)
(48.7786 13.21 1.22754e-18)
(48.724 13.1912 2.30268e-17)
(48.6679 13.1707 -9.80163e-17)
(48.6101 13.1485 -1.06904e-16)
(48.5506 13.1244 5.83e-17)
(48.4895 13.0983 1.55515e-17)
(48.4267 13.0701 -8.57755e-17)
(48.3621 13.0397 -9.22431e-18)
(48.2961 13.0071 0)
(48.2265 12.9841 7.72608e-19)
(49.6974 13.3059 -3.93997e-17)
(49.6786 13.3137 0)
(49.6675 13.3265 -7.1402e-16)
(49.6485 13.3307 -4.06419e-16)
(49.6276 13.3341 4.41367e-16)
(49.6065 13.3384 0)
(49.5837 13.3419 0)
(49.5593 13.3445 -3.0286e-16)
(49.5335 13.3466 2.18569e-16)
(49.5064 13.3482 3.95844e-17)
(49.4779 13.3491 0)
(49.448 13.3493 4.0524e-16)
(49.4168 13.3489 0)
(49.3842 13.3478 -5.29224e-16)
(49.3503 13.3459 5.63075e-17)
(49.315 13.3432 -2.92601e-17)
(49.2783 13.3397 -3.53928e-17)
(49.2402 13.3353 -4.35655e-16)
(49.2007 13.33 1.56996e-16)
(49.1598 13.3237 1.26721e-16)
(49.1174 13.3163 -4.72727e-17)
(49.0736 13.3079 4.5206e-16)
(49.0283 13.2984 -2.68357e-17)
(48.9814 13.2876 -5.93851e-17)
(48.933 13.2756 3.24873e-17)
(48.883 13.2623 -3.43829e-17)
(48.8315 13.2475 9.03015e-19)
(48.7783 13.2313 1.65403e-16)
(48.7236 13.2135 -2.20784e-17)
(48.6671 13.1941 1.71567e-16)
(48.609 13.1729 5.33139e-17)
(48.5493 13.15 -5.77368e-17)
(48.4878 13.125 0)
(48.4246 13.0981 6.86992e-17)
(48.3597 13.069 0)
(48.2929 13.0375 0)
(48.2248 13.0037 0)
(48.1529 12.9799 -4.16557e-19)
(49.6986 13.3082 -3.07628e-16)
(49.6797 13.3163 0)
(49.6683 13.3293 4.31865e-16)
(49.6494 13.3342 3.60582e-16)
(49.6285 13.3383 -3.80375e-16)
(49.6074 13.3431 5.91943e-17)
(49.5847 13.3472 2.48722e-16)
(49.5604 13.3504 0)
(49.5347 13.3531 -3.56104e-17)
(49.5076 13.3553 3.83136e-17)
(49.4791 13.3568 2.49461e-16)
(49.4493 13.3577 -3.63625e-16)
(49.4181 13.3579 -1.94298e-16)
(49.3855 13.3575 -5.15791e-17)
(49.3516 13.3563 2.83409e-16)
(49.3163 13.3543 2.169e-16)
(49.2796 13.3515 -2.36035e-16)
(49.2415 13.3478 2.91348e-16)
(49.202 13.3432 -1.36057e-18)
(49.161 13.3377 -1.71186e-16)
(49.1185 13.3312 4.54256e-17)
(49.0746 13.3236 -1.52158e-16)
(49.0291 13.3149 -2.17017e-16)
(48.9821 13.305 8.76856e-17)
(48.9336 13.2939 -3.28694e-19)
(48.8835 13.2815 -1.39054e-16)
(48.8317 13.2677 1.13405e-16)
(48.7784 13.2525 8.16346e-17)
(48.7234 13.2357 -8.92847e-17)
(48.6667 13.2173 -9.76107e-17)
(48.6083 13.1973 0)
(48.5482 13.1754 1.15164e-16)
(48.4864 13.1517 -1.59706e-17)
(48.4229 13.1259 0)
(48.3575 13.098 0)
(48.2904 13.0679 2.05998e-17)
(48.2215 13.0354 -2.19688e-17)
(48.1511 13.0004 -6.11141e-18)
(48.0769 12.9755 0)
(49.6998 13.3103 3.51976e-16)
(49.6807 13.3188 0)
(49.6691 13.3319 -4.27665e-16)
(49.6504 13.3376 -5.03987e-17)
(49.6295 13.3423 8.75854e-16)
(49.6084 13.3478 -5.77781e-17)
(49.5858 13.3524 -5.61387e-16)
(49.5615 13.3562 2.66614e-16)
(49.5359 13.3595 2.86623e-16)
(49.5088 13.3623 -3.94203e-17)
(49.4804 13.3644 -3.78868e-16)
(49.4506 13.366 -2.68571e-16)
(49.4195 13.3668 2.45497e-16)
(49.387 13.367 1.58121e-16)
(49.3531 13.3665 -3.99585e-16)
(49.3178 13.3652 0)
(49.281 13.3631 3.2815e-17)
(49.2429 13.3602 0)
(49.2033 13.3564 3.85351e-17)
(49.1623 13.3516 0)
(49.1198 13.3459 0)
(49.0758 13.3391 5.0992e-17)
(49.0302 13.3313 2.45652e-16)
(48.9831 13.3223 -3.83219e-16)
(48.9344 13.3121 1.27249e-16)
(48.8841 13.3006 1.38189e-16)
(48.8322 13.2878 3.85025e-17)
(48.7787 13.2735 -1.24321e-16)
(48.7235 13.2578 8.94428e-17)
(48.6665 13.2405 0)
(48.6079 13.2215 2.68707e-17)
(48.5475 13.2007 -1.71791e-16)
(48.4854 13.1781 -1.58917e-17)
(48.4215 13.1535 1.01619e-16)
(48.3558 13.1269 -7.36581e-17)
(48.2882 13.098 -6.05727e-17)
(48.2189 13.0668 1.15774e-17)
(48.1477 13.0332 -1.21418e-17)
(48.0749 12.997 1.29881e-17)
(47.9983 12.971 0)
(49.7009 13.3122 0)
(49.6818 13.3212 -3.25949e-16)
(49.67 13.3345 3.84031e-16)
(49.6513 13.3409 -3.03229e-16)
(49.6306 13.3463 -4.40309e-16)
(49.6095 13.3522 -5.22472e-16)
(49.5869 13.3575 1.87775e-16)
(49.5627 13.3619 -2.69436e-16)
(49.5371 13.3658 -2.89547e-16)
(49.5102 13.3692 0)
(49.4818 13.3719 4.11074e-17)
(49.4521 13.3741 7.64482e-16)
(49.421 13.3756 -4.78478e-17)
(49.3885 13.3764 -1.05162e-16)
(49.3546 13.3766 5.10393e-16)
(49.3194 13.376 3.13116e-17)
(49.2826 13.3746 0)
(49.2445 13.3724 0)
(49.2049 13.3693 3.83818e-17)
(49.1638 13.3654 -2.10408e-16)
(49.1213 13.3604 1.83068e-16)
(49.0772 13.3545 -5.08451e-17)
(49.0315 13.3475 -5.31707e-17)
(48.9843 13.3394 2.07059e-16)
(48.9355 13.3301 3.13293e-17)
(48.8851 13.3195 -1.30129e-18)
(48.833 13.3077 3.69548e-17)
(48.7793 13.2944 -8.18396e-17)
(48.7238 13.2797 -2.26511e-17)
(48.6667 13.2634 -9.62761e-17)
(48.6078 13.2455 0)
(48.5471 13.2259 1.67688e-18)
(48.4847 13.2044 3.1639e-17)
(48.4204 13.181 1.62544e-17)
(48.3543 13.1556 5.55653e-17)
(48.2864 13.128 4.00391e-17)
(48.2166 13.0981 3.24426e-17)
(48.145 13.0658 -5.88884e-17)
(48.0714 13.031 6.66564e-20)
(47.9963 12.9935 -1.40557e-17)
(47.9172 12.9664 0)
(49.7021 13.314 -3.01563e-16)
(49.6829 13.3235 7.48932e-16)
(49.6708 13.337 -9.65714e-17)
(49.6523 13.3441 4.10341e-16)
(49.6316 13.3501 -5.39303e-17)
(49.6106 13.3566 9.31662e-16)
(49.5881 13.3624 -1.85941e-16)
(49.564 13.3674 3.20584e-17)
(49.5385 13.3719 -3.21933e-16)
(49.5116 13.3759 0)
(49.4834 13.3793 3.31064e-16)
(49.4537 13.382 -3.61429e-16)
(49.4226 13.3842 0)
(49.3902 13.3857 0)
(49.3564 13.3865 -1.14481e-16)
(49.3211 13.3866 2.44033e-16)
(49.2844 13.386 -2.96934e-16)
(49.2463 13.3845 3.66547e-17)
(49.2066 13.3822 -4.67091e-16)
(49.1655 13.379 1.28321e-16)
(49.1229 13.3749 -1.64355e-18)
(49.0788 13.3698 0)
(49.033 13.3636 2.40486e-16)
(48.9857 13.3564 0)
(48.9368 13.348 0)
(48.8862 13.3384 3.52126e-17)
(48.834 13.3274 1.86322e-16)
(48.7801 13.3152 0)
(48.7245 13.3015 6.60422e-17)
(48.6671 13.2862 2.42081e-17)
(48.6079 13.2694 1.0425e-16)
(48.547 13.2509 2.27313e-16)
(48.4843 13.2306 -3.03403e-17)
(48.4197 13.2083 -1.62004e-17)
(48.3532 13.1841 0)
(48.2849 13.1578 -2.02646e-17)
(48.2147 13.1292 -6.52156e-17)
(48.1426 13.0983 2.36074e-17)
(48.0686 13.0648 3.87332e-17)
(47.9926 13.0287 -2.79297e-17)
(47.915 12.9899 7.46606e-18)
(47.8334 12.9616 0)
(49.7032 13.3157 3.93645e-16)
(49.684 13.3256 -4.23539e-16)
(49.6717 13.3394 -3.31023e-16)
(49.6533 13.3471 -3.54085e-16)
(49.6327 13.3538 0)
(49.6117 13.3608 -4.68399e-16)
(49.5893 13.3672 2.50414e-16)
(49.5653 13.3729 -2.6513e-16)
(49.5399 13.378 3.23977e-16)
(49.5131 13.3825 3.80251e-17)
(49.4849 13.3865 -4.14166e-18)
(49.4554 13.3899 0)
(49.4244 13.3927 0)
(49.392 13.3949 2.07939e-16)
(49.3582 13.3963 2.24907e-16)
(49.323 13.3971 -3.06278e-16)
(49.2863 13.3972 2.66414e-16)
(49.2482 13.3965 -3.65642e-17)
(49.2086 13.3949 2.74436e-16)
(49.1674 13.3925 -2.10803e-16)
(49.1248 13.3892 -2.30355e-16)
(49.0806 13.3849 0)
(49.0348 13.3796 -2.92946e-17)
(48.9874 13.3732 2.86911e-17)
(48.9383 13.3657 2.52651e-16)
(48.8877 13.3571 0)
(48.8353 13.3471 -1.4869e-16)
(48.7812 13.3358 0)
(48.7254 13.3231 0)
(48.6678 13.3089 4.81904e-17)
(48.6084 13.2932 -1.04492e-16)
(48.5472 13.2757 -1.42416e-16)
(48.4842 13.2566 1.54106e-16)
(48.4193 13.2355 -2.0053e-16)
(48.3525 13.2125 -1.78626e-17)
(48.2838 13.1874 2.01682e-17)
(48.2132 13.1602 6.42617e-17)
(48.1406 13.1306 4.68653e-17)
(48.0661 13.0985 1.25144e-17)
(47.9897 13.0638 -1.36238e-17)
(47.9112 13.0264 1.4836e-17)
(47.8311 12.9861 -8.21117e-18)
(47.7469 12.9566 0)
(49.7042 13.3173 -4.0126e-17)
(49.685 13.3277 -4.63476e-16)
(49.6726 13.3416 3.84436e-16)
(49.6543 13.3501 3.07932e-16)
(49.6338 13.3573 0)
(49.6129 13.365 5.87897e-17)
(49.5906 13.3719 0)
(49.5667 13.3782 3.61977e-18)
(49.5414 13.3838 0)
(49.5147 13.389 0)
(49.4866 13.3936 -3.33851e-16)
(49.4571 13.3976 3.10041e-16)
(49.4262 13.4011 0)
(49.3939 13.4039 -2.0993e-16)
(49.3602 13.406 -4.5132e-16)
(49.325 13.4075 0)
(49.2884 13.4083 0)
(49.2503 13.4083 2.84866e-16)
(49.2106 13.4075 3.07344e-16)
(49.1695 13.4059 3.36447e-16)
(49.1268 13.4034 2.72863e-16)
(49.0826 13.3999 -1.98822e-16)
(49.0367 13.3955 -2.1569e-16)
(48.9893 13.39 2.60653e-16)
(48.9401 13.3834 -5.05933e-16)
(48.8893 13.3756 0)
(48.8368 13.3666 0)
(48.7826 13.3563 -2.01117e-16)
(48.7266 13.3446 -1.75297e-16)
(48.6688 13.3315 1.90458e-16)
(48.6092 13.3168 2.54884e-17)
(48.5477 13.3005 -2.8762e-17)
(48.4844 13.2824 -9.28539e-17)
(48.4192 13.2626 1.98119e-18)
(48.3521 13.2408 0)
(48.283 13.2169 2.00785e-17)
(48.212 13.191 -2.1034e-17)
(48.139 13.1627 -9.2973e-17)
(48.0641 13.132 -7.54799e-17)
(47.9871 13.0988 0)
(47.9082 13.0628 4.52662e-17)
(47.8271 13.024 -1.64592e-17)
(47.7444 12.9823 0)
(47.6575 12.9514 5.20738e-21)
(49.7052 13.3188 0)
(49.6861 13.3297 3.29864e-16)
(49.6735 13.3438 -3.30849e-16)
(49.6553 13.3529 0)
(49.6349 13.3608 4.85927e-16)
(49.6141 13.369 -5.87056e-17)
(49.5919 13.3765 -9.27432e-17)
(49.5681 13.3833 2.34122e-16)
(49.5429 13.3896 0)
(49.5164 13.3954 -2.6622e-16)
(49.4884 13.4006 0)
(49.459 13.4052 -3.59327e-16)
(49.4282 13.4093 4.74341e-17)
(49.3959 13.4128 0)
(49.3623 13.4156 2.26505e-16)
(49.3272 13.4178 0)
(49.2906 13.4193 0)
(49.2525 13.42 -2.87276e-16)
(49.2129 13.42 -3.29214e-18)
(49.1718 13.4191 -1.27457e-16)
(49.1291 13.4174 -3.63987e-16)
(49.0848 13.4148 1.4987e-16)
(49.0389 13.4112 1.07203e-16)
(48.9914 13.4066 -2.06835e-18)
(48.9421 13.4009 2.1594e-18)
(48.8912 13.394 0)
(48.8386 13.386 0)
(48.7842 13.3767 1.62098e-16)
(48.728 13.366 1.31303e-16)
(48.6701 13.3539 -1.91164e-16)
(48.6102 13.3403 -1.03142e-16)
(48.5485 13.325 -2.86655e-17)
(48.485 13.3081 1.51795e-16)
(48.4195 13.2895 1.33154e-16)
(48.352 13.2689 -1.42567e-16)
(48.2826 13.2463 1.99963e-17)
(48.2112 13.2216 -2.09411e-17)
(48.1378 13.1946 6.9313e-17)
(48.0624 13.1653 5.05435e-17)
(47.9849 13.1335 5.47596e-17)
(47.9054 13.0991 2.96833e-17)
(47.8239 13.0618 -1.62437e-17)
(47.7402 13.0216 8.68764e-18)
(47.6549 12.9782 9.81369e-18)
(47.5652 12.9459 0)
(49.7062 13.3202 0)
(49.6872 13.3315 4.61359e-17)
(49.6744 13.346 4.32733e-16)
(49.6564 13.3556 0)
(49.6361 13.3641 -4.38086e-16)
(49.6154 13.3729 0)
(49.5933 13.381 -1.84591e-16)
(49.5696 13.3884 6.64479e-17)
(49.5445 13.3952 -1.00595e-18)
(49.5181 13.4016 4.32156e-17)
(49.4902 13.4074 1.27222e-18)
(49.4609 13.4127 0)