/*--------------------------------*- C++ -*----------------------------------*\
  =========                 |
  \\      /  F ield         | OpenFOAM: The Open Source CFD Toolbox
   \\    /   O peration     | Website:  https://openfoam.org
    \\  /    A nd           | Version:  7
     \\/     M anipulation  |
\*---------------------------------------------------------------------------*/
FoamFile
{
    version     2.0;
    format      ascii;
    class       volScalarField;
    location    "1000";
    object      yPlus;
}
// * * * * * * * * * * * * * * * * * * * * * * * * * * * * * * * * * * * * * //

dimensions      [0 0 0 0 0 0 0];

internalField   uniform 0;

boundaryField
{
    inlet-l
    {
        type            calculated;
        value           uniform 0;
    }
    airfoil-l1
    {
        type            calculated;
        value           nonuniform List<scalar> 
107
(
31.5745
30.821
29.806
28.6019
27.2878
25.9298
24.5791
23.2709
22.0274
20.8577
19.7657
18.7455
17.7845
16.8832
16.0326
15.2166
14.4259
13.6766
12.9821
12.3519
11.7714
11.2189
10.6909
10.182
9.69095
9.21764
8.75359
8.29674
7.84314
7.38498
6.92328
6.44983
5.9565
5.44171
4.88979
4.28469
3.59514
2.75354
1.53147
1.67451
2.81435
3.60857
4.2547
4.81396
5.31564
5.77503
6.20243
6.60658
6.99097
7.3585
7.70956
8.0521
8.38567
8.71121
9.03291
9.34932
9.66279
9.97627
10.288
10.5959
10.9052
11.2163
11.5327
11.8547
12.187
12.5339
12.8901
13.252
13.6077
13.9478
14.28
14.5946
14.8982
15.1876
15.4733
15.7469
16.0115
16.2711
16.5256
16.7739
17.0146
17.2526
17.4843
17.71
17.9344
18.1553
18.3663
18.5745
18.7796
18.9778
19.1743
19.3641
19.5495
19.7272
19.899
20.071
20.2329
20.3904
20.5425
20.6906
20.829
20.9623
21.0898
21.2116
21.3266
21.4299
21.5311
)
;
    }
    empty-1
    {
        type            empty;
    }
    empty-2
    {
        type            empty;
    }
    wall-l1
    {
        type            calculated;
        value           nonuniform 0();
    }
    airfoil-l2
    {
        type            calculated;
        value           uniform 21.7599;
    }
    empty-3
    {
        type            empty;
    }
    empty-4
    {
        type            empty;
    }
    wall-l2
    {
        type            calculated;
        value           nonuniform 0();
    }
    outlet-l
    {
        type            calculated;
        value           nonuniform 0();
    }
    empty-5
    {
        type            empty;
    }
    empty-6
    {
        type            empty;
    }
    outlet-h
    {
        type            calculated;
        value           nonuniform 0();
    }
    wall-h2
    {
        type            calculated;
        value           nonuniform 0();
    }
    empty-7
    {
        type            empty;
    }
    empty-8
    {
        type            empty;
    }
    airfoil-h2
    {
        type            calculated;
        value           nonuniform 0();
    }
    wall-h1
    {
        type            calculated;
        value           nonuniform 0();
    }
    empty-9
    {
        type            empty;
    }
    empty-10
    {
        type            empty;
    }
    inlet-h
    {
        type            calculated;
        value           uniform 0;
    }
    airfoil-h1
    {
        type            calculated;
        value           nonuniform List<scalar> 
16
(
32.0628
32.3645
32.4522
32.2577
31.8387
31.2901
30.6916
30.0921
29.5077
28.9501
28.4384
27.971
27.5385
27.1451
26.7886
26.4662
)
;
    }
    empty-11
    {
        type            empty;
    }
    empty-12
    {
        type            empty;
    }
    procBoundary0to1
    {
        type            processor;
        value           uniform 0;
    }
    procBoundary0to3
    {
        type            processor;
        value           uniform 0;
    }
}


// ************************************************************************* //
