/*--------------------------------*- C++ -*----------------------------------*\
  =========                 |
  \\      /  F ield         | OpenFOAM: The Open Source CFD Toolbox
   \\    /   O peration     | Website:  https://openfoam.org
    \\  /    A nd           | Version:  7
     \\/     M anipulation  |
\*---------------------------------------------------------------------------*/
FoamFile
{
    version     2.0;
    format      ascii;
    class       volScalarField;
    location    "1800";
    object      nut;
}
// * * * * * * * * * * * * * * * * * * * * * * * * * * * * * * * * * * * * * //

dimensions      [0 2 -1 0 0 0 0];

internalField   nonuniform List<scalar> 
23052
(
5.20709e-06
5.20677e-06
5.20788e-06
5.20675e-06
5.20793e-06
5.20893e-06
5.20681e-06
5.20785e-06
5.20866e-06
5.20893e-06
5.20685e-06
5.2078e-06
5.20846e-06
5.20868e-06
5.20837e-06
5.20793e-06
5.20684e-06
5.20769e-06
5.20824e-06
5.20842e-06
5.20815e-06
5.20781e-06
5.20808e-06
5.20911e-06
5.20681e-06
5.20757e-06
5.20804e-06
5.20818e-06
5.20795e-06
5.20775e-06
5.20815e-06
5.20918e-06
5.2106e-06
5.20677e-06
5.20745e-06
5.20785e-06
5.20797e-06
5.20779e-06
5.20772e-06
5.20826e-06
5.20933e-06
5.21066e-06
5.21212e-06
5.20673e-06
5.20732e-06
5.20768e-06
5.20778e-06
5.20766e-06
5.20773e-06
5.20839e-06
5.20948e-06
5.21079e-06
5.21216e-06
5.21355e-06
5.20669e-06
5.20721e-06
5.20752e-06
5.20762e-06
5.20756e-06
5.20779e-06
5.20853e-06
5.20964e-06
5.21092e-06
5.21224e-06
5.21356e-06
5.21488e-06
5.20665e-06
5.20711e-06
5.20739e-06
5.20748e-06
5.20751e-06
5.20789e-06
5.2087e-06
5.2098e-06
5.21105e-06
5.21233e-06
5.21362e-06
5.21488e-06
5.21613e-06
5.20662e-06
5.20703e-06
5.20728e-06
5.20738e-06
5.20751e-06
5.20801e-06
5.20887e-06
5.20997e-06
5.21118e-06
5.21242e-06
5.21367e-06
5.21491e-06
5.21613e-06
5.21732e-06
5.20661e-06
5.20697e-06
5.20719e-06
5.20732e-06
5.20755e-06
5.20815e-06
5.20905e-06
5.21014e-06
5.21131e-06
5.21251e-06
5.21373e-06
5.21493e-06
5.21613e-06
5.21731e-06
5.21844e-06
5.20662e-06
5.20693e-06
5.20713e-06
5.2073e-06
5.20765e-06
5.20832e-06
5.20924e-06
5.2103e-06
5.21144e-06
5.21261e-06
5.21379e-06
5.21497e-06
5.21614e-06
5.21729e-06
5.21842e-06
5.21949e-06
5.20665e-06
5.20691e-06
5.20711e-06
5.20733e-06
5.20778e-06
5.2085e-06
5.20942e-06
5.21046e-06
5.21156e-06
5.2127e-06
5.21385e-06
5.21501e-06
5.21615e-06
5.21728e-06
5.21839e-06
5.21946e-06
5.22048e-06
5.2067e-06
5.20692e-06
5.20712e-06
5.20741e-06
5.20794e-06
5.20869e-06
5.2096e-06
5.21061e-06
5.21169e-06
5.2128e-06
5.21392e-06
5.21505e-06
5.21617e-06
5.21728e-06
5.21836e-06
5.21942e-06
5.22045e-06
5.22141e-06
5.20673e-06
5.20694e-06
5.20717e-06
5.20754e-06
5.20811e-06
5.20887e-06
5.20977e-06
5.21076e-06
5.21181e-06
5.21289e-06
5.21399e-06
5.2151e-06
5.2162e-06
5.21728e-06
5.21835e-06
5.21938e-06
5.2204e-06
5.22137e-06
5.22229e-06
5.20677e-06
5.20698e-06
5.20726e-06
5.20768e-06
5.20828e-06
5.20905e-06
5.20994e-06
5.21091e-06
5.21193e-06
5.21299e-06
5.21407e-06
5.21515e-06
5.21623e-06
5.21729e-06
5.21833e-06
5.21936e-06
5.22035e-06
5.22131e-06
5.22224e-06
5.22311e-06
5.2068e-06
5.20704e-06
5.20738e-06
5.20784e-06
5.20845e-06
5.20922e-06
5.21009e-06
5.21105e-06
5.21205e-06
5.21309e-06
5.21414e-06
5.2152e-06
5.21626e-06
5.2173e-06
5.21833e-06
5.21933e-06
5.22031e-06
5.22126e-06
5.22218e-06
5.22306e-06
5.22388e-06
5.20683e-06
5.20713e-06
5.2075e-06
5.20799e-06
5.20862e-06
5.20938e-06
5.21025e-06
5.21118e-06
5.21217e-06
5.21319e-06
5.21422e-06
5.21526e-06
5.2163e-06
5.21732e-06
5.21833e-06
5.21931e-06
5.22027e-06
5.22121e-06
5.22211e-06
5.22299e-06
5.22383e-06
5.22461e-06
5.20685e-06
5.20721e-06
5.20762e-06
5.20813e-06
5.20877e-06
5.20953e-06
5.21039e-06
5.21131e-06
5.21228e-06
5.21328e-06
5.2143e-06
5.21532e-06
5.21634e-06
5.21734e-06
5.21833e-06
5.2193e-06
5.22025e-06
5.22117e-06
5.22206e-06
5.22292e-06
5.22376e-06
5.22456e-06
5.2253e-06
5.20688e-06
5.20728e-06
5.20773e-06
5.20827e-06
5.20892e-06
5.20968e-06
5.21053e-06
5.21144e-06
5.2124e-06
5.21338e-06
5.21438e-06
5.21538e-06
5.21638e-06
5.21737e-06
5.21834e-06
5.21929e-06
5.22022e-06
5.22113e-06
5.22201e-06
5.22286e-06
5.22368e-06
5.22448e-06
5.22524e-06
5.22594e-06
5.2069e-06
5.20735e-06
5.20783e-06
5.20839e-06
5.20906e-06
5.20982e-06
5.21067e-06
5.21157e-06
5.21251e-06
5.21348e-06
5.21446e-06
5.21544e-06
5.21643e-06
5.2174e-06
5.21835e-06
5.21929e-06
5.22021e-06
5.2211e-06
5.22197e-06
5.22281e-06
5.22362e-06
5.2244e-06
5.22516e-06
5.22589e-06
5.22654e-06
5.20692e-06
5.20742e-06
5.20793e-06
5.20851e-06
5.20919e-06
5.20996e-06
5.2108e-06
5.21169e-06
5.21262e-06
5.21357e-06
5.21454e-06
5.21551e-06
5.21647e-06
5.21743e-06
5.21837e-06
5.21929e-06
5.22019e-06
5.22107e-06
5.22193e-06
5.22276e-06
5.22356e-06
5.22433e-06
5.22508e-06
5.2258e-06
5.22649e-06
5.22711e-06
5.20694e-06
5.20748e-06
5.20802e-06
5.20863e-06
5.20932e-06
5.21009e-06
5.21092e-06
5.21181e-06
5.21272e-06
5.21366e-06
5.21462e-06
5.21557e-06
5.21652e-06
5.21746e-06
5.21839e-06
5.2193e-06
5.22019e-06
5.22105e-06
5.2219e-06
5.22271e-06
5.22351e-06
5.22427e-06
5.22501e-06
5.22572e-06
5.2264e-06
5.22705e-06
5.22764e-06
5.20695e-06
5.20754e-06
5.20811e-06
5.20874e-06
5.20944e-06
5.21021e-06
5.21104e-06
5.21192e-06
5.21283e-06
5.21376e-06
5.2147e-06
5.21564e-06
5.21657e-06
5.2175e-06
5.21841e-06
5.21931e-06
5.22018e-06
5.22104e-06
5.22187e-06
5.22268e-06
5.22346e-06
5.22421e-06
5.22494e-06
5.22564e-06
5.22632e-06
5.22697e-06
5.22759e-06
5.22814e-06
5.20697e-06
5.20759e-06
5.20819e-06
5.20884e-06
5.20955e-06
5.21033e-06
5.21116e-06
5.21203e-06
5.21293e-06
5.21385e-06
5.21478e-06
5.2157e-06
5.21662e-06
5.21754e-06
5.21844e-06
5.21932e-06
5.22018e-06
5.22102e-06
5.22184e-06
5.22264e-06
5.22341e-06
5.22416e-06
5.22488e-06
5.22557e-06
5.22624e-06
5.22688e-06
5.2275e-06
5.22809e-06
5.22862e-06
5.20699e-06
5.20764e-06
5.20827e-06
5.20894e-06
5.20966e-06
5.21044e-06
5.21127e-06
5.21214e-06
5.21303e-06
5.21394e-06
5.21485e-06
5.21577e-06
5.21668e-06
5.21758e-06
5.21846e-06
5.21933e-06
5.22018e-06
5.22102e-06
5.22183e-06
5.22261e-06
5.22338e-06
5.22411e-06
5.22482e-06
5.22551e-06
5.22617e-06
5.2268e-06
5.22742e-06
5.228e-06
5.22856e-06
5.22906e-06
5.207e-06
5.20768e-06
5.20834e-06
5.20903e-06
5.20977e-06
5.21055e-06
5.21138e-06
5.21225e-06
5.21313e-06
5.21403e-06
5.21493e-06
5.21583e-06
5.21673e-06
5.21762e-06
5.21849e-06
5.21935e-06
5.22019e-06
5.22101e-06
5.22181e-06
5.22259e-06
5.22334e-06
5.22407e-06
5.22477e-06
5.22545e-06
5.2261e-06
5.22673e-06
5.22734e-06
5.22792e-06
5.22847e-06
5.22901e-06
5.22948e-06
5.20701e-06
5.20773e-06
5.20841e-06
5.20912e-06
5.20986e-06
5.21066e-06
5.21149e-06
5.21235e-06
5.21323e-06
5.21411e-06
5.21501e-06
5.2159e-06
5.21679e-06
5.21766e-06
5.21852e-06
5.21937e-06
5.2202e-06
5.22101e-06
5.2218e-06
5.22257e-06
5.22331e-06
5.22403e-06
5.22472e-06
5.22539e-06
5.22604e-06
5.22666e-06
5.22726e-06
5.22784e-06
5.22839e-06
5.22892e-06
5.22943e-06
5.22987e-06
5.20702e-06
5.20777e-06
5.20848e-06
5.2092e-06
5.20996e-06
5.21076e-06
5.21159e-06
5.21245e-06
5.21332e-06
5.2142e-06
5.21508e-06
5.21597e-06
5.21684e-06
5.2177e-06
5.21856e-06
5.21939e-06
5.22021e-06
5.22101e-06
5.22179e-06
5.22255e-06
5.22328e-06
5.22399e-06
5.22468e-06
5.22534e-06
5.22598e-06
5.2266e-06
5.22719e-06
5.22776e-06
5.22831e-06
5.22884e-06
5.22934e-06
5.22982e-06
5.23024e-06
5.20703e-06
5.20781e-06
5.20854e-06
5.20928e-06
5.21005e-06
5.21086e-06
5.21169e-06
5.21254e-06
5.21341e-06
5.21428e-06
5.21516e-06
5.21603e-06
5.2169e-06
5.21775e-06
5.21859e-06
5.21942e-06
5.22023e-06
5.22102e-06
5.22179e-06
5.22254e-06
5.22326e-06
5.22396e-06
5.22464e-06
5.2253e-06
5.22593e-06
5.22654e-06
5.22713e-06
5.22769e-06
5.22824e-06
5.22876e-06
5.22926e-06
5.22973e-06
5.23019e-06
5.23059e-06
5.20705e-06
5.20784e-06
5.20859e-06
5.20935e-06
5.21014e-06
5.21095e-06
5.21178e-06
5.21263e-06
5.2135e-06
5.21436e-06
5.21523e-06
5.2161e-06
5.21695e-06
5.2178e-06
5.21863e-06
5.21945e-06
5.22025e-06
5.22103e-06
5.22179e-06
5.22253e-06
5.22324e-06
5.22394e-06
5.22461e-06
5.22526e-06
5.22588e-06
5.22649e-06
5.22707e-06
5.22763e-06
5.22817e-06
5.22868e-06
5.22918e-06
5.22965e-06
5.23011e-06
5.23054e-06
5.23092e-06
5.20705e-06
5.20788e-06
5.20865e-06
5.20943e-06
5.21022e-06
5.21104e-06
5.21187e-06
5.21272e-06
5.21358e-06
5.21444e-06
5.2153e-06
5.21616e-06
5.21701e-06
5.21784e-06
5.21867e-06
5.21947e-06
5.22027e-06
5.22104e-06
5.22179e-06
5.22252e-06
5.22323e-06
5.22391e-06
5.22458e-06
5.22522e-06
5.22584e-06
5.22644e-06
5.22701e-06
5.22757e-06
5.2281e-06
5.22861e-06
5.2291e-06
5.22958e-06
5.23003e-06
5.23046e-06
5.23087e-06
5.23123e-06
5.20706e-06
5.20791e-06
5.2087e-06
5.20949e-06
5.2103e-06
5.21112e-06
5.21196e-06
5.21281e-06
5.21367e-06
5.21452e-06
5.21538e-06
5.21622e-06
5.21706e-06
5.21789e-06
5.21871e-06
5.2195e-06
5.22029e-06
5.22105e-06
5.22179e-06
5.22251e-06
5.22321e-06
5.22389e-06
5.22455e-06
5.22518e-06
5.2258e-06
5.22639e-06
5.22696e-06
5.22751e-06
5.22804e-06
5.22855e-06
5.22903e-06
5.2295e-06
5.22995e-06
5.23038e-06
5.23079e-06
5.23118e-06
5.23153e-06
5.20707e-06
5.20794e-06
5.20875e-06
5.20956e-06
5.21038e-06
5.21121e-06
5.21205e-06
5.2129e-06
5.21375e-06
5.2146e-06
5.21545e-06
5.21629e-06
5.21712e-06
5.21794e-06
5.21875e-06
5.21954e-06
5.22031e-06
5.22106e-06
5.2218e-06
5.22251e-06
5.22321e-06
5.22388e-06
5.22453e-06
5.22515e-06
5.22576e-06
5.22635e-06
5.22691e-06
5.22746e-06
5.22798e-06
5.22849e-06
5.22897e-06
5.22943e-06
5.22988e-06
5.2303e-06
5.23071e-06
5.2311e-06
5.23148e-06
5.2318e-06
5.20708e-06
5.20797e-06
5.2088e-06
5.20962e-06
5.21045e-06
5.21128e-06
5.21213e-06
5.21298e-06
5.21383e-06
5.21467e-06
5.21552e-06
5.21635e-06
5.21718e-06
5.21799e-06
5.21879e-06
5.21957e-06
5.22034e-06
5.22108e-06
5.22181e-06
5.22251e-06
5.2232e-06
5.22386e-06
5.22451e-06
5.22513e-06
5.22573e-06
5.22631e-06
5.22687e-06
5.22741e-06
5.22793e-06
5.22843e-06
5.22891e-06
5.22937e-06
5.22981e-06
5.23023e-06
5.23064e-06
5.23103e-06
5.2314e-06
5.23175e-06
5.23206e-06
5.20709e-06
5.208e-06
5.20885e-06
5.20968e-06
5.21052e-06
5.21136e-06
5.21221e-06
5.21305e-06
5.2139e-06
5.21475e-06
5.21558e-06
5.21641e-06
5.21723e-06
5.21804e-06
5.21883e-06
5.2196e-06
5.22036e-06
5.2211e-06
5.22182e-06
5.22252e-06
5.22319e-06
5.22385e-06
5.22449e-06
5.2251e-06
5.2257e-06
5.22627e-06
5.22683e-06
5.22736e-06
5.22788e-06
5.22837e-06
5.22885e-06
5.22931e-06
5.22974e-06
5.23017e-06
5.23057e-06
5.23096e-06
5.23132e-06
5.23168e-06
5.23201e-06
5.2323e-06
5.20709e-06
5.20802e-06
5.20889e-06
5.20974e-06
5.21058e-06
5.21143e-06
5.21228e-06
5.21313e-06
5.21398e-06
5.21482e-06
5.21565e-06
5.21648e-06
5.21729e-06
5.21809e-06
5.21887e-06
5.21964e-06
5.22039e-06
5.22112e-06
5.22183e-06
5.22252e-06
5.22319e-06
5.22384e-06
5.22447e-06
5.22508e-06
5.22567e-06
5.22624e-06
5.22679e-06
5.22732e-06
5.22783e-06
5.22832e-06
5.22879e-06
5.22925e-06
5.22968e-06
5.2301e-06
5.2305e-06
5.23089e-06
5.23125e-06
5.2316e-06
5.23194e-06
5.23226e-06
5.23253e-06
5.2071e-06
5.20805e-06
5.20893e-06
5.20979e-06
5.21065e-06
5.2115e-06
5.21235e-06
5.2132e-06
5.21405e-06
5.21489e-06
5.21572e-06
5.21654e-06
5.21735e-06
5.21814e-06
5.21892e-06
5.21968e-06
5.22042e-06
5.22114e-06
5.22184e-06
5.22253e-06
5.22319e-06
5.22384e-06
5.22446e-06
5.22507e-06
5.22565e-06
5.22621e-06
5.22676e-06
5.22728e-06
5.22779e-06
5.22828e-06
5.22874e-06
5.22919e-06
5.22963e-06
5.23004e-06
5.23044e-06
5.23082e-06
5.23119e-06
5.23153e-06
5.23187e-06
5.23218e-06
5.23248e-06
5.23275e-06
5.20711e-06
5.20807e-06
5.20897e-06
5.20984e-06
5.21071e-06
5.21157e-06
5.21242e-06
5.21328e-06
5.21412e-06
5.21496e-06
5.21578e-06
5.2166e-06
5.2174e-06
5.21819e-06
5.21896e-06
5.21971e-06
5.22045e-06
5.22116e-06
5.22186e-06
5.22254e-06
5.2232e-06
5.22383e-06
5.22445e-06
5.22505e-06
5.22563e-06
5.22619e-06
5.22673e-06
5.22725e-06
5.22775e-06
5.22823e-06
5.2287e-06
5.22914e-06
5.22957e-06
5.22998e-06
5.23038e-06
5.23076e-06
5.23112e-06
5.23147e-06
5.2318e-06
5.23211e-06
5.23241e-06
5.2327e-06
5.23295e-06
5.20711e-06
5.20809e-06
5.20901e-06
5.20989e-06
5.21077e-06
5.21163e-06
5.21249e-06
5.21335e-06
5.21419e-06
5.21503e-06
5.21585e-06
5.21666e-06
5.21746e-06
5.21824e-06
5.219e-06
5.21975e-06
5.22048e-06
5.22119e-06
5.22188e-06
5.22255e-06
5.2232e-06
5.22383e-06
5.22445e-06
5.22504e-06
5.22561e-06
5.22616e-06
5.2267e-06
5.22721e-06
5.22771e-06
5.22819e-06
5.22865e-06
5.2291e-06
5.22952e-06
5.22993e-06
5.23032e-06
5.2307e-06
5.23106e-06
5.2314e-06
5.23173e-06
5.23205e-06
5.23235e-06
5.23263e-06
5.2329e-06
5.23314e-06
5.20712e-06
5.20811e-06
5.20904e-06
5.20994e-06
5.21082e-06
5.2117e-06
5.21256e-06
5.21342e-06
5.21426e-06
5.21509e-06
5.21591e-06
5.21672e-06
5.21751e-06
5.21829e-06
5.21905e-06
5.21979e-06
5.22051e-06
5.22121e-06
5.2219e-06
5.22256e-06
5.22321e-06
5.22383e-06
5.22444e-06
5.22503e-06
5.2256e-06
5.22614e-06
5.22667e-06
5.22718e-06
5.22768e-06
5.22815e-06
5.22861e-06
5.22905e-06
5.22947e-06
5.22988e-06
5.23027e-06
5.23064e-06
5.231e-06
5.23134e-06
5.23167e-06
5.23198e-06
5.23228e-06
5.23256e-06
5.23284e-06
5.2331e-06
5.23332e-06
5.20712e-06
5.20813e-06
5.20907e-06
5.20998e-06
5.21088e-06
5.21176e-06
5.21263e-06
5.21348e-06
5.21433e-06
5.21516e-06
5.21598e-06
5.21678e-06
5.21757e-06
5.21834e-06
5.21909e-06
5.21982e-06
5.22054e-06
5.22124e-06
5.22192e-06
5.22258e-06
5.22322e-06
5.22384e-06
5.22444e-06
5.22502e-06
5.22558e-06
5.22613e-06
5.22665e-06
5.22716e-06
5.22765e-06
5.22812e-06
5.22857e-06
5.22901e-06
5.22943e-06
5.22983e-06
5.23022e-06
5.23059e-06
5.23094e-06
5.23128e-06
5.23161e-06
5.23192e-06
5.23222e-06
5.2325e-06
5.23277e-06
5.23303e-06
5.23328e-06
5.23349e-06
5.20713e-06
5.20815e-06
5.20911e-06
5.21003e-06
5.21093e-06
5.21182e-06
5.21269e-06
5.21355e-06
5.21439e-06
5.21522e-06
5.21604e-06
5.21684e-06
5.21762e-06
5.21839e-06
5.21913e-06
5.21986e-06
5.22057e-06
5.22127e-06
5.22194e-06
5.22259e-06
5.22323e-06
5.22384e-06
5.22444e-06
5.22502e-06
5.22557e-06
5.22611e-06
5.22663e-06
5.22713e-06
5.22762e-06
5.22809e-06
5.22854e-06
5.22897e-06
5.22939e-06
5.22979e-06
5.23017e-06
5.23054e-06
5.23089e-06
5.23123e-06
5.23155e-06
5.23186e-06
5.23216e-06
5.23244e-06
5.23271e-06
5.23297e-06
5.23322e-06
5.23345e-06
5.23365e-06
5.20713e-06
5.20817e-06
5.20914e-06
5.21007e-06
5.21098e-06
5.21187e-06
5.21275e-06
5.21361e-06
5.21446e-06
5.21529e-06
5.2161e-06
5.21689e-06
5.21767e-06
5.21843e-06
5.21918e-06
5.2199e-06
5.22061e-06
5.22129e-06
5.22196e-06
5.22261e-06
5.22324e-06
5.22385e-06
5.22444e-06
5.22501e-06
5.22556e-06
5.2261e-06
5.22661e-06
5.22711e-06
5.22759e-06
5.22806e-06
5.2285e-06
5.22893e-06
5.22935e-06
5.22974e-06
5.23013e-06
5.23049e-06
5.23084e-06
5.23118e-06
5.2315e-06
5.23181e-06
5.2321e-06
5.23238e-06
5.23265e-06
5.23291e-06
5.23315e-06
5.23339e-06
5.23361e-06
5.2338e-06
5.20714e-06
5.20819e-06
5.20917e-06
5.21011e-06
5.21103e-06
5.21193e-06
5.21281e-06
5.21367e-06
5.21452e-06
5.21535e-06
5.21616e-06
5.21695e-06
5.21773e-06
5.21848e-06
5.21922e-06
5.21994e-06
5.22064e-06
5.22132e-06
5.22199e-06
5.22263e-06
5.22325e-06
5.22386e-06
5.22444e-06
5.22501e-06
5.22556e-06
5.22609e-06
5.2266e-06
5.22709e-06
5.22757e-06
5.22803e-06
5.22847e-06
5.2289e-06
5.22931e-06
5.22971e-06
5.23008e-06
5.23045e-06
5.23079e-06
5.23113e-06
5.23145e-06
5.23175e-06
5.23205e-06
5.23233e-06
5.23259e-06
5.23285e-06
5.2331e-06
5.23333e-06
5.23355e-06
5.23377e-06
5.23395e-06
5.20714e-06
5.20821e-06
5.2092e-06
5.21015e-06
5.21108e-06
5.21198e-06
5.21287e-06
5.21373e-06
5.21458e-06
5.21541e-06
5.21622e-06
5.21701e-06
5.21778e-06
5.21853e-06
5.21927e-06
5.21998e-06
5.22068e-06
5.22135e-06
5.22201e-06
5.22265e-06
5.22327e-06
5.22387e-06
5.22445e-06
5.22501e-06
5.22555e-06
5.22608e-06
5.22659e-06
5.22708e-06
5.22755e-06
5.22801e-06
5.22845e-06
5.22887e-06
5.22928e-06
5.22967e-06
5.23004e-06
5.2304e-06
5.23075e-06
5.23108e-06
5.2314e-06
5.2317e-06
5.23199e-06
5.23227e-06
5.23254e-06
5.2328e-06
5.23304e-06
5.23327e-06
5.2335e-06
5.23371e-06
5.23391e-06
5.23408e-06
5.20715e-06
5.20822e-06
5.20923e-06
5.21019e-06
5.21112e-06
5.21204e-06
5.21292e-06
5.21379e-06
5.21464e-06
5.21546e-06
5.21627e-06
5.21706e-06
5.21783e-06
5.21858e-06
5.21931e-06
5.22002e-06
5.22071e-06
5.22139e-06
5.22204e-06
5.22267e-06
5.22329e-06
5.22388e-06
5.22446e-06
5.22501e-06
5.22555e-06
5.22607e-06
5.22658e-06
5.22706e-06
5.22753e-06
5.22799e-06
5.22842e-06
5.22884e-06
5.22925e-06
5.22963e-06
5.23001e-06
5.23036e-06
5.23071e-06
5.23104e-06
5.23135e-06
5.23165e-06
5.23194e-06
5.23222e-06
5.23249e-06
5.23274e-06
5.23299e-06
5.23322e-06
5.23344e-06
5.23365e-06
5.23386e-06
5.23405e-06
5.23421e-06
5.20715e-06
5.20824e-06
5.20925e-06
5.21023e-06
5.21117e-06
5.21209e-06
5.21298e-06
5.21385e-06
5.21469e-06
5.21552e-06
5.21633e-06
5.21711e-06
5.21788e-06
5.21863e-06
5.21935e-06
5.22006e-06
5.22075e-06
5.22142e-06
5.22207e-06
5.22269e-06
5.2233e-06
5.22389e-06
5.22447e-06
5.22502e-06
5.22555e-06
5.22607e-06
5.22657e-06
5.22705e-06
5.22752e-06
5.22797e-06
5.2284e-06
5.22882e-06
5.22922e-06
5.2296e-06
5.22997e-06
5.23033e-06
5.23067e-06
5.23099e-06
5.23131e-06
5.23161e-06
5.2319e-06
5.23217e-06
5.23244e-06
5.23269e-06
5.23293e-06
5.23317e-06
5.23339e-06
5.2336e-06
5.2338e-06
5.23399e-06
5.23417e-06
5.23433e-06
5.20716e-06
5.20825e-06
5.20928e-06
5.21026e-06
5.21121e-06
5.21213e-06
5.21303e-06
5.2139e-06
5.21475e-06
5.21558e-06
5.21638e-06
5.21717e-06
5.21793e-06
5.21868e-06
5.2194e-06
5.2201e-06
5.22079e-06
5.22145e-06
5.22209e-06
5.22272e-06
5.22332e-06
5.22391e-06
5.22448e-06
5.22502e-06
5.22555e-06
5.22607e-06
5.22656e-06
5.22704e-06
5.2275e-06
5.22795e-06
5.22838e-06
5.22879e-06
5.22919e-06
5.22957e-06
5.22994e-06
5.23029e-06
5.23063e-06
5.23095e-06
5.23127e-06
5.23156e-06
5.23185e-06
5.23213e-06
5.23239e-06
5.23264e-06
5.23289e-06
5.23312e-06
5.23334e-06
5.23355e-06
5.23375e-06
5.23394e-06
5.23412e-06
5.23429e-06
5.23444e-06
5.20716e-06
5.20827e-06
5.2093e-06
5.2103e-06
5.21125e-06
5.21218e-06
5.21308e-06
5.21396e-06
5.21481e-06
5.21563e-06
5.21644e-06
5.21722e-06
5.21798e-06
5.21872e-06
5.21944e-06
5.22014e-06
5.22082e-06
5.22148e-06
5.22212e-06
5.22274e-06
5.22334e-06
5.22392e-06
5.22449e-06
5.22503e-06
5.22556e-06
5.22607e-06
5.22656e-06
5.22703e-06
5.22749e-06
5.22793e-06
5.22836e-06
5.22877e-06
5.22917e-06
5.22954e-06
5.22991e-06
5.23026e-06
5.23059e-06
5.23092e-06
5.23123e-06
5.23152e-06
5.23181e-06
5.23208e-06
5.23235e-06
5.2326e-06
5.23284e-06
5.23307e-06
5.23329e-06
5.2335e-06
5.2337e-06
5.23389e-06
5.23407e-06
5.23425e-06
5.23441e-06
5.23455e-06
5.20716e-06
5.20828e-06
5.20933e-06
5.21033e-06
5.21129e-06
5.21223e-06
5.21313e-06
5.21401e-06
5.21486e-06
5.21569e-06
5.21649e-06
5.21727e-06
5.21803e-06
5.21877e-06
5.21949e-06
5.22019e-06
5.22086e-06
5.22152e-06
5.22215e-06
5.22277e-06
5.22336e-06
5.22394e-06
5.2245e-06
5.22504e-06
5.22556e-06
5.22607e-06
5.22656e-06
5.22703e-06
5.22748e-06
5.22792e-06
5.22834e-06
5.22875e-06
5.22914e-06
5.22952e-06
5.22988e-06
5.23023e-06
5.23056e-06
5.23088e-06
5.23119e-06
5.23149e-06
5.23177e-06
5.23204e-06
5.2323e-06
5.23255e-06
5.23279e-06
5.23302e-06
5.23324e-06
5.23345e-06
5.23365e-06
5.23384e-06
5.23402e-06
5.23419e-06
5.23436e-06
5.23451e-06
5.23464e-06
5.20717e-06
5.2083e-06
5.20935e-06
5.21036e-06
5.21133e-06
5.21227e-06
5.21318e-06
5.21406e-06
5.21491e-06
5.21574e-06
5.21654e-06
5.21732e-06
5.21808e-06
5.21882e-06
5.21953e-06
5.22023e-06
5.2209e-06
5.22155e-06
5.22218e-06
5.22279e-06
5.22339e-06
5.22396e-06
5.22451e-06
5.22505e-06
5.22557e-06
5.22607e-06
5.22656e-06
5.22702e-06
5.22747e-06
5.22791e-06
5.22833e-06
5.22873e-06
5.22912e-06
5.22949e-06
5.22985e-06
5.2302e-06
5.23053e-06
5.23085e-06
5.23115e-06
5.23145e-06
5.23173e-06
5.232e-06
5.23226e-06
5.23251e-06
5.23275e-06
5.23298e-06
5.2332e-06
5.23341e-06
5.2336e-06
5.23379e-06
5.23397e-06
5.23415e-06
5.23431e-06
5.23447e-06
5.23461e-06
5.23473e-06
5.20717e-06
5.20831e-06
5.20937e-06
5.21039e-06
5.21137e-06
5.21231e-06
5.21323e-06
5.21411e-06
5.21497e-06
5.21579e-06
5.2166e-06
5.21738e-06
5.21813e-06
5.21887e-06
5.21958e-06
5.22027e-06
5.22094e-06
5.22158e-06
5.22221e-06
5.22282e-06
5.22341e-06
5.22398e-06
5.22453e-06
5.22506e-06
5.22558e-06
5.22608e-06
5.22656e-06
5.22702e-06
5.22747e-06
5.2279e-06
5.22832e-06
5.22872e-06
5.2291e-06
5.22947e-06
5.22983e-06
5.23017e-06
5.2305e-06
5.23082e-06
5.23112e-06
5.23141e-06
5.2317e-06
5.23196e-06
5.23222e-06
5.23247e-06
5.23271e-06
5.23294e-06
5.23315e-06
5.23336e-06
5.23356e-06
5.23375e-06
5.23393e-06
5.2341e-06
5.23426e-06
5.23442e-06
5.23457e-06
5.2347e-06
5.23482e-06
5.20717e-06
5.20832e-06
5.2094e-06
5.21042e-06
5.21141e-06
5.21236e-06
5.21327e-06
5.21416e-06
5.21502e-06
5.21585e-06
5.21665e-06
5.21743e-06
5.21818e-06
5.21891e-06
5.21962e-06
5.22031e-06
5.22097e-06
5.22162e-06
5.22224e-06
5.22285e-06
5.22343e-06
5.224e-06
5.22455e-06
5.22508e-06
5.22559e-06
5.22608e-06
5.22656e-06
5.22702e-06
5.22746e-06
5.22789e-06
5.22831e-06
5.2287e-06
5.22909e-06
5.22945e-06
5.22981e-06
5.23015e-06
5.23047e-06
5.23079e-06
5.23109e-06
5.23138e-06
5.23166e-06
5.23193e-06
5.23219e-06
5.23243e-06
5.23267e-06
5.2329e-06
5.23311e-06
5.23332e-06
5.23352e-06
5.23371e-06
5.23388e-06
5.23406e-06
5.23422e-06
5.23437e-06
5.23452e-06
5.23466e-06
5.23479e-06
5.2349e-06
5.20718e-06
5.20833e-06
5.20942e-06
5.21045e-06
5.21144e-06
5.2124e-06
5.21332e-06
5.21421e-06
5.21507e-06
5.2159e-06
5.2167e-06
5.21748e-06
5.21823e-06
5.21896e-06
5.21966e-06
5.22035e-06
5.22101e-06
5.22165e-06
5.22227e-06
5.22288e-06
5.22346e-06
5.22402e-06
5.22457e-06
5.22509e-06
5.2256e-06
5.22609e-06
5.22656e-06
5.22702e-06
5.22746e-06
5.22789e-06
5.2283e-06
5.22869e-06
5.22907e-06
5.22943e-06
5.22979e-06
5.23012e-06
5.23045e-06
5.23076e-06
5.23106e-06
5.23135e-06
5.23163e-06
5.2319e-06
5.23215e-06
5.2324e-06
5.23263e-06
5.23286e-06
5.23307e-06
5.23328e-06
5.23348e-06
5.23366e-06
5.23384e-06
5.23401e-06
5.23417e-06
5.23433e-06
5.23448e-06
5.23461e-06
5.23475e-06
5.23487e-06
5.23498e-06
5.20718e-06
5.20835e-06
5.20944e-06
5.21048e-06
5.21148e-06
5.21244e-06
5.21336e-06
5.21425e-06
5.21511e-06
5.21594e-06
5.21675e-06
5.21752e-06
5.21828e-06
5.219e-06
5.21971e-06
5.22039e-06
5.22105e-06
5.22169e-06
5.22231e-06
5.2229e-06
5.22348e-06
5.22404e-06
5.22458e-06
5.22511e-06
5.22561e-06
5.2261e-06
5.22657e-06
5.22702e-06
5.22746e-06
5.22788e-06
5.22829e-06
5.22868e-06
5.22906e-06
5.22942e-06
5.22977e-06
5.2301e-06
5.23043e-06
5.23074e-06
5.23104e-06
5.23132e-06
5.2316e-06
5.23186e-06
5.23212e-06
5.23236e-06
5.2326e-06
5.23282e-06
5.23304e-06
5.23324e-06
5.23344e-06
5.23362e-06
5.2338e-06
5.23397e-06
5.23413e-06
5.23429e-06
5.23443e-06
5.23457e-06
5.2347e-06
5.23483e-06
5.23495e-06
5.23505e-06
5.20718e-06
5.20836e-06
5.20946e-06
5.21051e-06
5.21151e-06
5.21248e-06
5.21341e-06
5.2143e-06
5.21516e-06
5.21599e-06
5.2168e-06
5.21757e-06
5.21832e-06
5.21905e-06
5.21975e-06
5.22043e-06
5.22109e-06
5.22172e-06
5.22234e-06
5.22294e-06
5.22351e-06
5.22407e-06
5.2246e-06
5.22512e-06
5.22563e-06
5.22611e-06
5.22658e-06
5.22703e-06
5.22746e-06
5.22788e-06
5.22828e-06
5.22867e-06
5.22904e-06
5.2294e-06
5.22975e-06
5.23008e-06
5.23041e-06
5.23071e-06
5.23101e-06
5.2313e-06
5.23157e-06
5.23184e-06
5.23209e-06
5.23233e-06
5.23257e-06
5.23279e-06
5.233e-06
5.23321e-06
5.2334e-06
5.23359e-06
5.23376e-06
5.23393e-06
5.23409e-06
5.23425e-06
5.23439e-06
5.23453e-06
5.23466e-06
5.23479e-06
5.23491e-06
5.23502e-06
5.23512e-06
5.20719e-06
5.20837e-06
5.20948e-06
5.21053e-06
5.21154e-06
5.21251e-06
5.21345e-06
5.21434e-06
5.21521e-06
5.21604e-06
5.21684e-06
5.21762e-06
5.21837e-06
5.21909e-06
5.21979e-06
5.22047e-06
5.22113e-06
5.22176e-06
5.22237e-06
5.22297e-06
5.22354e-06
5.22409e-06
5.22463e-06
5.22514e-06
5.22564e-06
5.22612e-06
5.22658e-06
5.22703e-06
5.22746e-06
5.22788e-06
5.22828e-06
5.22866e-06
5.22903e-06
5.22939e-06
5.22974e-06
5.23007e-06
5.23039e-06
5.23069e-06
5.23099e-06
5.23127e-06
5.23155e-06
5.23181e-06
5.23206e-06
5.2323e-06
5.23253e-06
5.23276e-06
5.23297e-06
5.23317e-06
5.23336e-06
5.23355e-06
5.23373e-06
5.23389e-06
5.23405e-06
5.23421e-06
5.23435e-06
5.23449e-06
5.23462e-06
5.23475e-06
5.23487e-06
5.23499e-06
5.23509e-06
5.23518e-06
5.20719e-06
5.20838e-06
5.2095e-06
5.21056e-06
5.21158e-06
5.21255e-06
5.21349e-06
5.21439e-06
5.21525e-06
5.21609e-06
5.21689e-06
5.21767e-06
5.21842e-06
5.21914e-06
5.21984e-06
5.22051e-06
5.22117e-06
5.2218e-06
5.22241e-06
5.223e-06
5.22357e-06
5.22412e-06
5.22465e-06
5.22516e-06
5.22565e-06
5.22613e-06
5.22659e-06
5.22704e-06
5.22746e-06
5.22788e-06
5.22827e-06
5.22866e-06
5.22902e-06
5.22938e-06
5.22972e-06
5.23005e-06
5.23037e-06
5.23067e-06
5.23097e-06
5.23125e-06
5.23152e-06
5.23178e-06
5.23203e-06
5.23227e-06
5.2325e-06
5.23272e-06
5.23294e-06
5.23314e-06
5.23333e-06
5.23351e-06
5.23369e-06
5.23386e-06
5.23402e-06
5.23417e-06
5.23431e-06
5.23445e-06
5.23459e-06
5.23471e-06
5.23483e-06
5.23495e-06
5.23506e-06
5.23516e-06
5.23524e-06
5.20719e-06
5.20839e-06
5.20952e-06
5.21059e-06
5.21161e-06
5.21259e-06
5.21353e-06
5.21443e-06
5.2153e-06
5.21613e-06
5.21694e-06
5.21771e-06
5.21846e-06
5.21918e-06
5.21988e-06
5.22056e-06
5.22121e-06
5.22183e-06
5.22244e-06
5.22303e-06
5.22359e-06
5.22414e-06
5.22467e-06
5.22518e-06
5.22567e-06
5.22614e-06
5.2266e-06
5.22704e-06
5.22747e-06
5.22788e-06
5.22827e-06
5.22865e-06
5.22902e-06
5.22937e-06
5.22971e-06
5.23004e-06
5.23035e-06
5.23066e-06
5.23095e-06
5.23123e-06
5.2315e-06
5.23176e-06
5.23201e-06
5.23225e-06
5.23248e-06
5.2327e-06
5.23291e-06
5.23311e-06
5.2333e-06
5.23348e-06
5.23365e-06
5.23382e-06
5.23398e-06
5.23413e-06
5.23428e-06
5.23442e-06
5.23455e-06
5.23468e-06
5.2348e-06
5.23491e-06
5.23502e-06
5.23512e-06
5.23522e-06
5.2353e-06
5.20719e-06
5.2084e-06
5.20954e-06
5.21061e-06
5.21164e-06
5.21262e-06
5.21357e-06
5.21447e-06
5.21534e-06
5.21618e-06
5.21699e-06
5.21776e-06
5.21851e-06
5.21923e-06
5.21993e-06
5.2206e-06
5.22125e-06
5.22187e-06
5.22248e-06
5.22306e-06
5.22362e-06
5.22417e-06
5.22469e-06
5.2252e-06
5.22569e-06
5.22616e-06
5.22661e-06
5.22705e-06
5.22747e-06
5.22788e-06
5.22827e-06
5.22865e-06
5.22901e-06
5.22936e-06
5.2297e-06
5.23003e-06
5.23034e-06
5.23064e-06
5.23093e-06
5.23121e-06
5.23148e-06
5.23174e-06
5.23198e-06
5.23222e-06
5.23245e-06
5.23267e-06
5.23288e-06
5.23308e-06
5.23327e-06
5.23345e-06
5.23362e-06
5.23379e-06
5.23395e-06
5.2341e-06
5.23424e-06
5.23438e-06
5.23451e-06
5.23464e-06
5.23476e-06
5.23487e-06
5.23498e-06
5.23508e-06
5.23519e-06
5.23527e-06
5.23535e-06
5.2072e-06
5.20841e-06
5.20955e-06
5.21064e-06
5.21167e-06
5.21266e-06
5.21361e-06
5.21452e-06
5.21539e-06
5.21623e-06
5.21703e-06
5.21781e-06
5.21855e-06
5.21927e-06
5.21997e-06
5.22064e-06
5.22129e-06
5.22191e-06
5.22251e-06
5.22309e-06
5.22365e-06
5.22419e-06
5.22471e-06
5.22522e-06
5.2257e-06
5.22617e-06
5.22662e-06
5.22706e-06
5.22748e-06
5.22788e-06
5.22827e-06
5.22864e-06
5.22901e-06
5.22936e-06
5.22969e-06
5.23001e-06
5.23033e-06
5.23063e-06
5.23091e-06
5.23119e-06
5.23146e-06
5.23171e-06
5.23196e-06
5.2322e-06
5.23242e-06
5.23264e-06
5.23285e-06
5.23305e-06
5.23324e-06
5.23342e-06
5.23359e-06
5.23376e-06
5.23391e-06
5.23407e-06
5.23421e-06
5.23435e-06
5.23448e-06
5.23461e-06
5.23472e-06
5.23484e-06
5.23495e-06
5.23505e-06
5.23515e-06
5.23524e-06
5.23533e-06
5.2354e-06
5.2072e-06
5.20842e-06
5.20957e-06
5.21066e-06
5.2117e-06
5.21269e-06
5.21365e-06
5.21456e-06
5.21543e-06
5.21627e-06
5.21708e-06
5.21785e-06
5.2186e-06
5.21932e-06
5.22001e-06
5.22068e-06
5.22132e-06
5.22195e-06
5.22254e-06
5.22312e-06
5.22368e-06
5.22422e-06
5.22474e-06
5.22524e-06
5.22572e-06
5.22619e-06
5.22663e-06
5.22707e-06
5.22748e-06
5.22788e-06
5.22827e-06
5.22864e-06
5.229e-06
5.22935e-06
5.22968e-06
5.23001e-06
5.23032e-06
5.23061e-06
5.2309e-06
5.23118e-06
5.23144e-06
5.2317e-06
5.23194e-06
5.23217e-06
5.2324e-06
5.23261e-06
5.23282e-06
5.23302e-06
5.23321e-06
5.23339e-06
5.23356e-06
5.23373e-06
5.23388e-06
5.23403e-06
5.23418e-06
5.23432e-06
5.23445e-06
5.23457e-06
5.23469e-06
5.23481e-06
5.23491e-06
5.23502e-06
5.23512e-06
5.23521e-06
5.2353e-06
5.23537e-06
5.23544e-06
5.2072e-06
5.20843e-06
5.20959e-06
5.21068e-06
5.21173e-06
5.21273e-06
5.21368e-06
5.2146e-06
5.21547e-06
5.21632e-06
5.21712e-06
5.2179e-06
5.21864e-06
5.21936e-06
5.22005e-06
5.22072e-06
5.22136e-06
5.22198e-06
5.22258e-06
5.22315e-06
5.22371e-06
5.22425e-06
5.22476e-06
5.22526e-06
5.22574e-06
5.2262e-06
5.22665e-06
5.22708e-06
5.22749e-06
5.22789e-06
5.22827e-06
5.22865e-06
5.229e-06
5.22935e-06
5.22968e-06
5.23e-06
5.23031e-06
5.2306e-06
5.23089e-06
5.23116e-06
5.23142e-06
5.23168e-06
5.23192e-06
5.23215e-06
5.23238e-06
5.23259e-06
5.2328e-06
5.23299e-06
5.23318e-06
5.23336e-06
5.23353e-06
5.2337e-06
5.23385e-06
5.234e-06
5.23415e-06
5.23428e-06
5.23441e-06
5.23454e-06
5.23466e-06
5.23477e-06
5.23488e-06
5.23498e-06
5.23508e-06
5.23518e-06
5.23526e-06
5.23535e-06
5.23542e-06
5.23549e-06
5.20721e-06
5.20844e-06
5.2096e-06
5.21071e-06
5.21176e-06
5.21276e-06
5.21372e-06
5.21464e-06
5.21552e-06
5.21636e-06
5.21717e-06
5.21794e-06
5.21869e-06
5.2194e-06
5.22009e-06
5.22076e-06
5.2214e-06
5.22202e-06
5.22261e-06
5.22319e-06
5.22374e-06
5.22427e-06
5.22479e-06
5.22528e-06
5.22576e-06
5.22622e-06
5.22666e-06
5.22709e-06
5.2275e-06
5.2279e-06
5.22828e-06
5.22865e-06
5.229e-06
5.22934e-06
5.22967e-06
5.22999e-06
5.2303e-06
5.23059e-06
5.23088e-06
5.23115e-06
5.23141e-06
5.23166e-06
5.2319e-06
5.23213e-06
5.23236e-06
5.23257e-06
5.23277e-06
5.23297e-06
5.23315e-06
5.23333e-06
5.2335e-06
5.23367e-06
5.23382e-06
5.23397e-06
5.23412e-06
5.23425e-06
5.23438e-06
5.23451e-06
5.23463e-06
5.23474e-06
5.23485e-06
5.23495e-06
5.23505e-06
5.23514e-06
5.23523e-06
5.23531e-06
5.23539e-06
5.23546e-06
5.23552e-06
5.20721e-06
5.20845e-06
5.20962e-06
5.21073e-06
5.21179e-06
5.21279e-06
5.21375e-06
5.21467e-06
5.21555e-06
5.2164e-06
5.21721e-06
5.21798e-06
5.21873e-06
5.21945e-06
5.22014e-06
5.2208e-06
5.22144e-06
5.22205e-06
5.22265e-06
5.22322e-06
5.22377e-06
5.2243e-06
5.22481e-06
5.2253e-06
5.22578e-06
5.22624e-06
5.22668e-06
5.2271e-06
5.22751e-06
5.22791e-06
5.22829e-06
5.22865e-06
5.229e-06
5.22934e-06
5.22967e-06
5.22999e-06
5.23029e-06
5.23058e-06
5.23087e-06
5.23114e-06
5.2314e-06
5.23164e-06
5.23188e-06
5.23211e-06
5.23234e-06
5.23255e-06
5.23275e-06
5.23294e-06
5.23313e-06
5.23331e-06
5.23348e-06
5.23364e-06
5.2338e-06
5.23395e-06
5.23409e-06
5.23422e-06
5.23436e-06
5.23448e-06
5.2346e-06
5.23471e-06