/*--------------------------------*- C++ -*----------------------------------*\
  =========                 |
  \\      /  F ield         | OpenFOAM: The Open Source CFD Toolbox
   \\    /   O peration     | Website:  https://openfoam.org
    \\  /    A nd           | Version:  7
     \\/     M anipulation  |
\*---------------------------------------------------------------------------*/
FoamFile
{
    version     2.0;
    format      ascii;
    class       volScalarField;
    location    "1800";
    object      p;
}
// * * * * * * * * * * * * * * * * * * * * * * * * * * * * * * * * * * * * * //

dimensions      [0 2 -2 0 0 0 0];

internalField   nonuniform List<scalar> 
23052
(
41.866
39.111
26.4416
37.2784
27.6442
30.3816
35.9598
28.1241
29.5102
30.9468
34.9945
28.2913
29.013
31.0324
31.7564
32.5469
34.252
28.3144
28.6839
30.9384
31.6019
32.5531
33.7966
34.7409
33.6586
28.2814
28.4382
30.7775
31.4854
32.4894
33.6835
34.7468
35.9934
33.165
28.2322
28.237
30.5934
31.3721
32.3887
33.5807
34.6952
35.9509
37.1613
32.7423
28.1827
28.0637
30.4048
31.2521
32.2708
33.4724
34.6188
35.8598
37.1373
38.4642
32.3662
28.1382
27.9099
30.2186
31.1243
32.142
33.3546
34.522
35.7631
37.0563
38.4254
39.799
32.0223
28.0981
27.7716
30.0371
30.99
32.0052
33.2265
34.4104
35.6549
36.9606
38.3293
39.7606
41.2151
31.7035
28.0603
27.6446
29.8604
30.8505
31.8622
33.0885
34.286
35.5352
36.8491
38.2231
39.6597
41.1696
42.6896
31.3973
28.0225
27.527
29.6873
30.707
31.7134
32.9417
34.1501
35.4039
36.7245
38.1032
39.5467
41.0582
42.6402
44.2352
31.103
27.9811
27.4163
29.5171
30.5598
31.5596
32.7871
34.0036
35.2617
36.5871
37.9709
39.4189
40.9357
42.5204
44.18
45.8476
30.8148
27.9344
27.3097
29.3487
30.4091
31.4009
32.625
33.8476
35.1089
36.4382
37.8262
39.2784
40.7988
42.3891
44.0504
45.7874
47.5311
30.5281
27.8796
27.2054
29.1806
30.2548
31.2377
32.4558
33.6825
34.9459
36.278
37.6695
39.1252
40.6492
42.2431
43.9094
45.6483
47.4653
49.2862
30.2436
27.8156
27.1014
29.0117
30.0962
31.0699
32.2802
33.5087
34.7733
36.107
37.5013
38.9597
40.4868
42.0841
43.7536
45.4976
47.3163
49.2148
51.1152
29.96
27.7413
26.996
28.8413
29.933
30.897
32.098
33.3269
34.5912
35.9257
37.322
38.7825
40.312
41.912
43.5847
45.3318
47.1555
49.0558
51.0381
53.0199
29.6736
27.6555
26.8875
28.6683
29.7649
30.7191
31.9094
33.1369
34.4003
35.7343
37.1318
38.5939
40.1251
41.7274
43.4027
45.1529
46.9796
48.8849
50.8689
52.9371
55.0025
29.3831
27.5571
26.7749
28.4917
29.5912
30.5357
31.7144
32.9392
34.2007
35.5334
36.9311
38.3941
39.9265
41.5305
43.2079
44.9605
46.7903
48.6987
50.6878
52.7576
54.9137
57.0652
29.0912
27.4459
26.6565
28.311
29.4115
30.3467
31.5127
32.7339
33.9925
35.3232
36.7204
38.1834
39.7166
41.3217
43.0006
44.7552
46.5874
48.4988
50.491
52.566
54.7239
56.9703
59.2102
28.7955
27.3222
26.5321
28.1254
29.2253
30.1517
31.3047
32.5209
33.776
35.1038
36.4997
37.9622
39.4954
41.1011
42.781
44.5372
46.3713
48.2851
50.2803
52.3585
54.5217
56.77
59.1091
61.44
28.4943
27.1853
26.4007
27.9343
29.0323
29.9503
31.09
32.3005
33.5513
34.8755
36.2694
37.7307
39.2634
40.8691
42.5496
44.3067
46.1423
48.0581
50.0557
52.137
54.3034
56.5572
58.8982
61.3326
63.757
28.1886
27.035
26.2614
27.7375
28.8322
29.7423
30.8686
32.0724
33.3185
34.6385
36.0296
37.4892
39.0207
40.626
42.3064
44.0641
45.9006
47.8179
49.8175
51.9012
54.0708
56.3279
58.6746
61.111
63.6432
66.1639
27.88
26.8715
26.1138
27.5343
28.6248
29.5277
30.6402
31.837
33.0777
34.3928
35.7806
37.2379
38.7677
40.3719
42.0519
43.8095
45.6466
47.5647
49.5658
51.6516
53.8237
56.084
58.4342
60.8764
63.4108
66.0436
68.6633
27.5654
26.6952
25.9578
27.3245
28.4099
29.3059
30.4051
31.594
32.8289
34.1387
35.5226
36.977
38.5046
40.1072
41.7861
43.5433
45.3803
47.299
49.301
51.3883
53.5625
55.8254
58.179
60.6247
63.1651
65.8003
68.5363
71.2583
27.2469
26.506
25.7928
27.108
28.1873
29.077
30.1628
31.3436
32.5724
33.8763
35.2557
36.7066
38.2315
39.832
41.5094
43.2655
45.1021
47.0208
49.0234
51.1117
53.2874
55.5525
57.9087
60.3581
62.9021
65.5433
68.282
71.1243
73.9515
26.9236
26.3044
25.6186
26.8844
27.9568
28.8407
29.9134
31.0857
32.3079
33.6056
34.9801
36.4271
37.9486
39.5465
41.222
42.9766
44.8122
46.7304
48.733
50.8218
52.9987
55.2654
57.6239
60.076
62.6238
65.2688
68.0138
70.8588
73.8104
76.7459
26.5956
26.0907
25.4352
26.6538
27.7185
28.597
29.6569
30.8203
32.0357
33.3268
34.6959
36.1384
37.6562
39.2511
40.924
42.6767
44.5108
46.4281
48.4302
50.5191
52.6965
54.9644
57.3245
59.7791
62.3297
64.9787
67.7276
70.5792
73.5336
76.5975
79.6445
26.2637
25.8653
25.2424
26.4159
27.4723
28.3459
29.3932
30.5475
31.7558
33.04
34.4033
35.8409
37.3545
38.9457
40.6157
42.3659
44.1981
46.114
48.1152
50.2037
52.3812
54.6497
57.0111
59.4673
62.0205
64.6725
67.4255
70.2812
73.2424
76.3093
79.4888
82.6506
25.9267
25.6284
25.0402
26.1707
27.2183
28.0871
29.1223
30.2673
31.4683
32.7454
34.1023
35.5347
37.0436
38.6308
40.2973
42.0446
43.8744
45.7883
47.7881
49.8757
52.0528
54.3215
56.6836
59.1411
61.6962
64.3508
67.107
69.967
72.9325
76.0064
79.189
82.4871
85.7672
25.5861
25.3802
24.8287
25.9183
26.9564
27.8209
28.8442
29.9798
31.1732
32.4429
33.7932
35.2198
36.7236
38.3063
39.9689
41.7128
43.5397
45.4513
47.4493
49.5354
51.7116
53.98
56.3423
58.8007
61.3571
64.0137
66.7726
69.6359
72.6059
75.6844
78.8742
82.1758
85.5959
88.9978
25.2413
25.1215
24.6079
25.6586
26.6869
27.5472
28.5589
29.6849
30.8707
32.1327
33.4761
34.8966
36.3948
37.9726
39.6308
41.3709
43.1944
45.1031
47.0988
49.183
51.3579
53.6254
55.9875
58.4461
61.0034
63.6615
66.4226
69.2888
72.2623
75.3454
78.54
81.849
85.2727
88.8182
92.3452
24.8923
24.8525
24.3779
25.3917
26.4096
27.266
28.2666
29.3829
30.5608
31.8149
33.151
34.565
36.0574
37.6298
39.2832
41.0189
42.8387
44.744
46.7368
48.8188
50.9919
53.2579
55.6192
58.0776
60.6353
63.2944
66.0571
68.9256
71.9021
74.9889
78.1883
81.5023
84.9338
88.4832
92.1572
95.8129
24.5394
24.5737
24.1389
25.1178
26.1248
26.9774
27.9672
29.0737
30.2436
31.4897
32.8182
34.2254
35.7114
37.278
38.9262
40.6572
42.4726
44.3742
46.3636
48.4427
50.6135
52.8779
55.2378
57.6954
60.253
62.9125
65.6762
68.5465
71.5255
74.6155
77.8188
81.1378
84.5746
88.1318
91.8103
95.6166
99.4047
24.1833
24.2853
23.8908
24.8367
25.8327
26.6816
27.6609
28.7575
29.9192
31.1571
32.4778
33.8778
35.3571
36.9175
38.5599
40.2857
42.0965
43.9938
45.9794
48.0552
50.2231
52.4852
54.8433
57.2997
59.8567
62.5161
65.2804
68.1518
71.1327
74.2253
77.4319
80.7551
84.1971
87.7599
91.4466
95.2575
99.1996
103.124
23.8237
23.9879
23.6341
24.5488
25.5333
26.3786
27.3477
28.4344
29.5878
30.8172
32.1298
33.5223
34.9946
36.5484
38.1848
39.9049
41.7104
43.603
45.5843
47.6563
49.821
52.0802
54.436
56.8907
59.4464
62.1052
64.8696
67.7417
70.7239
73.8185
77.028
80.3547
83.801
87.3694
91.0619
94.8814
98.8283
102.91
106.973
23.4608
23.6819
23.3689
24.2542
25.2269
26.0687
27.0277
28.1046
29.2494
30.4703
31.7745
33.1592
34.6241
36.171
37.8007
39.5148
41.3146
43.2019
45.1785
47.2463
49.4071
51.663
54.0161
56.4685
59.0224
61.6802
64.444
67.3162
70.2992
73.3954
76.607
79.9367
83.3869
86.9598
90.6579
94.4837
98.4394
102.526
106.75
110.957
23.0946
23.3677
23.0954
23.9529
24.9136
25.7518
26.7012
27.768
28.9043
30.1164
31.4121
32.7886
34.2458
35.7852
37.408
39.1155
40.9093
42.7909
44.7623
46.8253
48.9817
51.2338
53.5836
56.0332
58.5849
61.2411
64.0038
66.8756
69.8588
72.9559
76.1693
79.5013
82.9546
86.5316
90.2346
94.0661
98.0286
102.124
106.354
110.724
115.079
22.7253
23.0458
22.8137
23.6452
24.5937
25.4282
26.3682
27.425
28.5525
29.7558
31.0426
32.4106
33.8597
35.3914
37.0069
38.7074
40.4946
42.3701
44.3357
46.3934
48.5451
50.7928
53.1389
55.5851
58.1342
60.7881
63.5492
66.42
69.4029
72.5003
75.7148
79.0487
82.5045
86.0849
89.7922
93.629
97.5975
101.7
105.94
110.316
114.836
119.341
22.3533
22.7163
22.5242
23.3312
24.2673
25.0981
26.0288
27.0756
28.1942
29.3884
30.6662
32.0255
33.4662
34.9898
36.5974
38.2905
40.0707
41.9395
43.899
45.9509
48.0973
50.3403
52.6819
55.1244
57.6701
60.3213
63.0803
65.9496
68.9317
72.0289
75.2437
78.5789
82.0368
85.62
89.331
93.1723
97.1463
101.256
105.502
109.889
114.415
119.089
123.748
21.9792
22.3799
22.2271
23.0112
23.9346
24.7616
25.6833
26.72
27.8296
29.0146
30.283
31.6334
33.0653
34.5804
36.1799
37.8651
39.6378
41.4995
43.4523
45.498
47.6385
49.8762
52.2129
54.6511
57.193
59.8409
62.5973
65.4645
68.4451
71.5416
74.7564
78.0922
81.5515
85.1369
88.8509
92.6963
96.6752
100.79
105.044
109.438
113.975
118.655
123.486
128.304
21.6018
22.0368
21.9226
22.6852
23.596
24.4189
25.3318
26.3584
27.4588
28.6345
29.8934
31.2344
32.6573
34.1635
35.7544
37.4314
39.1961
41.0503
42.9959
45.0348
47.169
49.4008
51.7321
54.1654
56.7029
59.3471
62.1002
64.9649
67.9435
71.0387
74.2528
77.5886
81.0489
84.6358
88.3522
92.2008
96.1841
100.304
104.564
108.965
113.511
118.202
123.04
128.031
133.011
21.222
21.6876
21.6111
22.3536
23.2515
24.0703
24.9745
25.9909
27.082
28.2482
29.4974
30.8288
32.2422
33.7392
35.3211
36.9895
38.7458
40.592
42.5299
44.5615
46.6889
48.9142
51.2397
53.6676
56.2002
58.84
61.5894
64.4508
67.4269
70.5201
73.7331
77.0685
80.5289
84.1169
87.8353
91.6865
95.6731
99.7981
104.063
108.472
113.025
117.725
122.574
127.573
132.728
137.873
20.8403
21.3324
21.2927
22.0164
22.9015
23.7159
24.6116
25.6178
26.6994
27.8559
29.0952
30.4167
31.8204
33.3078
34.8803
36.5395
38.287
40.1247
42.0545
44.0783
46.1983
48.4167
50.7357
53.1576
55.6848
58.3196
61.0647
63.9224
66.8954
69.9862
73.1973
76.5317
79.9917
83.5803
87.2999
91.1533
95.1429
99.2716
103.542
107.956
112.516
117.225
122.083
127.094
132.258
137.579
142.894
20.457
20.9718
20.9678
21.674
22.5461
23.356
24.2432
25.2392
26.3112
27.4579
28.6869
29.9984
31.392
32.8694
34.4322
36.0818
37.82
39.6487
41.5698
43.5854
45.6975
47.9084
50.2204
52.6358
55.1569
57.7864
60.5264
63.3798
66.3492
69.4369
72.6457
75.9785
79.4376
83.0259
86.7461
90.6011
94.5931
98.7251
102.999
107.419
111.986
116.702
121.569
126.59
131.766
137.097
142.59
148.076
20.0713
20.606
20.6367
21.3265
22.1856
22.9908
23.8696
24.8553
25.9175
27.0542
28.2729
29.5739
30.9571
32.4242
33.9768
35.6165
37.345
39.1642
41.0761
43.0829
45.1866
47.3895
49.6939
52.1022
54.6168
57.2402
59.9749
62.8233
65.7883
68.8725
72.0785
75.4088
78.8665
82.454
86.1743
90.03
94.0239
98.1585
102.437
106.861
111.433
116.156
121.032
126.062
131.248
136.593
142.095
147.761
153.424
19.6837
20.2355
20.2996
20.9741
21.8202
22.6205
23.491
24.4664
25.5186
26.6451
27.8532
29.1435
30.516
31.9724
33.5145
35.1438
36.862
38.6713
40.5736
42.571
44.6658
46.8602
49.1565
51.5572
54.0646
56.6812
59.4099
62.2529
65.213
68.293
71.4953
74.8228
78.2784
81.8647
85.5844
89.4404
93.4354
97.5721
101.853
106.281
110.858
115.587
120.471
125.51
130.707
136.062
141.579
147.256
153.098
158.939
19.2949
19.8604
19.9567
20.6171
21.4502
22.2452
23.1075
24.0725
25.1146
26.2308
27.428
28.7073
30.0689
31.5142
33.0453
34.6638
36.3715
38.1703
40.0624
42.05
44.1353
46.3206
48.6082
51.0006
53.5003
56.1098
58.8317
61.6686
64.6233
67.6983
70.8965
74.2208
77.6735
81.2578
84.9765
88.8322
92.8277
96.9658
101.249
105.681
110.263
114.997
119.887
124.934
130.14
135.507
141.036
146.727
152.581
158.603
164.626
18.9044
19.4813
19.6084
20.2556
21.0758
21.8654
22.7193
23.674
24.7058
25.8114
26.9976
28.2657
29.6159
31.0499
32.5696
34.1768
35.8734
37.6613
39.5428
41.52
43.5952
45.7708
48.0492
50.4328
52.9242
55.5259
58.2406
61.0708
64.0193
67.089
70.2824
73.6025
77.0519
80.6337
84.3505
88.2053
92.2007
96.3397
100.625
105.059
109.645
114.384
119.28
124.334
129.549
134.926
140.466
146.171
152.041
158.075
164.279
170.488
18.5124
19.0985
19.255
19.89
20.6972
21.4811
22.3268
23.2709
24.2924
25.3873
26.5621
27.8187
29.1572
30.5795
32.0875
33.683
35.368
37.1446
39.0149
40.9812
43.0458
45.2113
47.4798
49.854
52.3364
54.9296
57.6364
60.4595
63.4012
66.4648
69.6529
72.9681
76.4137
79.9922
83.7066
87.5598
91.5545
95.6937
99.9801
104.416
109.005
113.749
118.65
123.711
128.934
134.32
139.871
145.588
151.472
157.524
163.742
170.129
176.526
18.1194
18.7121
18.8968
19.5203
20.3146
21.0926
21.93
22.8636
23.8745
24.9584
26.1218
27.3665
28.6931
30.1033
31.5992
33.1826
34.8555
36.6203
38.4789
40.4339
42.4873
44.6419
46.9
49.2642
51.7371
54.3213
57.0195
59.8346
62.7691
65.8259
69.008
72.3181
75.7589
79.3336
83.045
86.8959
90.8892
95.028
99.3149
103.753
108.344
113.092
117.998
123.065
128.294
133.689
139.25
144.979
150.877
156.943
163.18
169.583
176.158
182.745
17.7252
18.3226
18.5339
19.1469
19.9284
20.7002
21.5293
22.4522
23.4523
24.5251
25.6768
26.9095
28.2238
29.6215
31.1049
32.6758
34.3362
36.0886
37.9351
39.8781
41.9198
44.0631
46.3102
48.6637
51.1265
53.701
56.3901
59.1966
62.1231
65.1725
68.3479
71.652
75.0876
78.658
82.3655
86.2136
90.205
94.3427
98.6295
103.068
107.661
112.412
117.322
122.394
127.631
133.033
138.604
144.344
150.254
156.336
162.588
169.011
175.603
182.366
189.145
17.3299
17.9302
18.1667
18.7699
19.5386
20.304
21.1247
22.037
23.0261
24.0876
25.2273
26.4477
27.7494
29.1343
30.6048
32.1627
33.8103
35.5498
37.3836
39.314
41.3436
43.4748
45.7104
48.0527
50.5047
53.0689
55.7483
58.5454
61.4634
64.5048
67.6727
70.9701
74.3999
77.9649
81.6684
85.5128
89.5017
93.6376
97.9235
102.362
106.957
111.71
116.623
121.7
126.943
132.353
137.932
143.683
149.605
155.7
161.968
168.408
175.021
181.803
188.757
195.731
16.9338
17.5352
17.7954
18.3895
19.1457
19.9042
20.7166
21.6181
22.5961
23.6461
24.7736
25.9813
27.2701
28.6419
30.0991
31.6437
33.2778
35.004
36.8246
38.742
40.7588
42.8775
45.1008
47.4314
49.8719
52.4252
55.0941
57.8814
60.7899
63.8226
66.9825
70.2727
73.6958
77.255
80.9535
84.7937
88.7792
92.9128
97.1972
101.636
106.231
110.985
115.902
120.983
126.231
131.647
137.235
142.995
148.928
155.036
161.319
167.777
174.408
181.213
188.187
195.333
202.503
16.5371
17.138
17.4204
18.006
18.7497
19.5013
20.3051
21.1958
22.1625
23.2008
24.3159
25.5107
26.7862
28.1446
29.588
31.1188
32.7392
34.4515
36.2584
38.1622
40.1656
42.2713
44.4817
46.7998
49.2283
51.7699
54.4278
57.2044
60.103
63.1264
66.2777
69.5596
72.9756
76.5281
80.2209
84.0563
88.0378
92.1683
96.4507
100.888
105.483
110.238
115.157
120.241
125.494
130.917
136.512
142.281
148.225
154.345
160.642
167.116
173.766
180.591
187.589
194.758
202.097
209.464
16.1397
16.7386
17.042
17.6196
18.3508
19.0952
19.8905
20.7703
21.7255
22.7518
23.8543
25.0359
26.298
27.6424
29.0718
30.5884
32.1945
33.8925
35.6851
37.5749
39.5642
41.6562
43.8532
46.1582
48.5741
51.1035
53.7494
56.5149
59.4027
62.4161
65.558
68.8311
72.239
75.7844
79.4708
83.3006
87.2774
91.404
95.6837
100.119
104.713
109.469
114.389
119.477
124.733
130.161
135.763
141.54
147.494
153.626
159.936
166.425
173.093
179.938
186.959
194.154
201.517
209.052
216.617
15.7418
16.3375
16.6602
17.2304
17.9494
18.6863
19.4729
20.3417
21.2853
22.2995
23.3891
24.5573
25.8055
27.1357
28.5507
30.0526
31.6439
33.3272
35.105
36.9801
38.955
41.0326
43.2156
45.5069
47.9094
50.4258
53.0594
55.8128
58.6894
61.6917
64.8235
68.0874
71.4863
75.024
78.703
82.5265
86.4981
90.6202
94.8963
99.3294
103.922
108.678
113.599
118.688
123.948
129.38
134.988
140.773
146.736
152.879
159.202
165.706
172.391
179.255
186.298
193.517
200.909
208.468
216.198
223.962
15.3433
15.9349
16.2755
16.8387
17.5457
18.2748
19.0526
19.9103
20.8421
21.8439
22.9204
24.0749
25.3089
26.6247
28.0247
29.5116
31.0877
32.7558
34.5183
36.3782
38.338
40.4007
42.5691
44.846
47.2344
49.7372
52.3576
55.0984
57.9629
60.9538
64.0746
67.3283
70.7179
74.2466
77.9178
81.7344
85.6997
89.8167
94.0885
98.5183
103.109
107.864
112.785
117.875
123.138
128.574
134.188
139.979
145.951
152.104
158.44
164.958
171.658
178.541
185.605
192.847
200.266
207.856
215.614
223.537
231.501
14.9447
15.531
15.8881
16.4448
17.1397
17.8609
18.6298
19.4763
20.3961
21.3854
22.4485
23.589
24.8086
26.1095
27.4943
28.9657
30.5262
32.1785
33.9252
35.7693
37.7135
39.7607
41.9138
44.1757
46.5493
49.0379
51.6444
54.3719
57.2235
60.2022
63.3113
66.554
69.9333
73.4527
77.1152
80.924
84.8824
88.9934
93.2604
97.6861
102.274
107.027
111.947
117.038
122.303
127.743
133.361
139.159
145.138
151.301
157.648
164.179
170.896
177.797
184.881
192.145
199.59
207.209
214.999
222.954
231.072
239.233
14.5459
15.126
15.4981
16.0487
16.7319
17.4448
18.2047
19.0399
19.9475
20.9241
21.9737
23.0999
24.3047
25.5903
26.9596
28.4151
29.9595
31.5955
33.326
35.1538
37.0817
39.1128
41.2499
43.4962
45.8545
48.3281
50.9199
53.6333
56.4713
59.437
62.5337
65.7647
69.1331
72.6422
76.2953
80.0956
84.0462
88.1506
92.4117
96.8328
101.417
106.167
111.087
116.178
121.443
126.886
132.508
138.312
144.299
150.47
156.827
163.372
170.103
177.02
184.124
191.411
198.88
206.528
214.349
222.339
230.491
238.802
247.162
14.1471
14.7201
15.106
15.6509
16.3222
17.0267
17.7775
18.6013
19.4966
20.4601
21.4959
22.6076
23.7974
25.0675
26.4208
27.86
29.3878
31.0071
32.7208
34.5317
36.4429
38.4572
40.5778
42.8077
45.15
47.6079
50.1845
52.8829
55.7066
58.6585
61.7422
64.9606
68.3172
71.8152
75.4581
79.2489
83.1911
87.288
91.5426
95.9582
100.538
105.285
110.202
115.293
120.559
126.004
131.629
137.437
143.431
149.61
155.978
162.534
169.279
176.213
183.335
190.644
198.137
205.811
213.664
221.688
229.879
238.228
246.73
255.287
13.7482
14.3137
14.7119
15.2513
15.9112
16.6069
17.3484
18.1607
19.0434
19.9938
21.0156
22.1125
23.2869
24.5411
25.8781
27.3005
28.8114
30.4135
32.1098
33.9034
35.7971
37.7942
39.8975
42.1104
44.4361
46.8775
49.4382
52.121
54.9295
57.8668
60.9366
64.1418
67.4857
70.9719
74.6038
78.3844
82.3172
86.406
90.653
95.0625
99.6372
104.38
109.295
114.383
119.649
125.095
130.723
136.536
142.534
148.722
155.099
161.666
168.424
175.374
182.514
189.843
197.36
205.061
212.943
221.001
229.228
237.619
246.163
254.858
263.607
13.3494
13.9069
14.3161
14.8501
15.4987
16.1855
16.9176
17.7183
18.5884
19.5254
20.5329
21.6148
22.7735
24.0114
25.3317
26.737
28.2305
29.8149
31.4934
33.269
35.1448
37.1239
39.2094
41.4047
43.713
46.1373
48.681
51.3476
54.1402
57.0622
60.1171
63.3081
66.6389
70.1122
73.7324
77.502
81.4246
85.5041
89.7433
94.1456
98.7143
103.452
108.363
113.45
118.715
124.161
129.791
135.606
141.611
147.804
154.191
160.768
167.539
174.504
181.661
189.01
196.55
204.276
212.187
220.277
228.541
236.971
245.562
254.3
263.184
272.124
12.9508
13.4999
13.9187
14.4477
15.0851
15.7628
16.4853
17.2743
18.1315
19.0549
20.048
21.1146
22.2573
23.4787
24.7818
26.1697
27.6453
29.2116
30.8717
32.6288
34.4861
36.4466
38.5137
40.6907
42.9807
45.3873
47.9136
50.563
53.339
56.2449
59.2841
62.4601
65.7766
69.2366
72.8438
76.6016
80.5135
84.5829
88.8129
93.2071
97.7693
102.502
107.408
112.491
117.754
123.2
128.831
134.65
140.658
146.858
153.252
159.84
166.623
173.601
180.775
188.144
195.705
203.457
211.394
219.517
227.815
236.286
244.919
253.708
262.639
271.708
280.836
12.5526
13.0928
13.5201
14.0442
14.6705
15.3389
16.0517
16.8289
17.6731
18.5827
19.5611
20.6121
21.7385
22.9431
24.2288
25.5987
27.056
28.6037
30.245
31.983
33.8212
35.7625
37.8106
39.9685
42.2399
44.6278
47.1359
49.7673
52.5258
55.4148
58.4378
61.598
64.8991
68.3448
71.9386
75.6836
79.5835
83.642
87.8623
92.2476
96.8019
101.528
106.429
111.508
116.769
122.213
127.845
133.665
139.677
145.883
152.283
158.88
165.674
172.667
179.856
187.243
194.826
202.601
210.567
218.719
227.053
235.562
244.238
253.074
262.059
271.18
280.43
289.742
12.1547
12.686
13.1205
13.6398
14.2552
14.9141
15.6169
16.3822
17.2133
18.1089
19.0723
20.1076
21.2175
22.4048
23.6727
25.0243
26.4629
27.9915
29.6134
31.3319
33.1503
35.072
37.1003
39.2386
41.4904
43.859
46.348
48.961
51.7012
54.5724
57.578
60.7217
64.0068
67.4374
71.0165
74.7479
78.6349
82.6815
86.8911
91.2669
95.8124
100.531
105.426
110.501
115.758
121.2
126.831
132.653
138.667
144.877
151.284
157.889
164.694
171.699
178.904
186.308
193.911
201.71
209.703
217.885
226.253
234.799
243.518
252.399
261.436
270.614
279.923
289.35
298.839
11.7574
12.2796
12.72
13.2346
13.8393
14.4886
15.1813
15.9346
16.7523
17.6337
18.582
19.6012
20.6942
21.864
23.1138
24.4468
25.8661
27.3752
28.9773
30.6757
32.4739
34.3752
36.383
38.5011
40.7326
43.0812
45.5505
48.1439
50.8652
53.7177
56.7052
59.8313
63.0997
66.5139
70.0776
73.7944
77.6682
81.7019
85.8998
90.2647
94.801
99.5109
104.399
109.468
114.72
120.16
125.789
131.611
137.628
143.841
150.254
156.867
163.682
170.699
177.918
185.339
192.962
200.783
208.802
217.013
225.413
233.997
242.756
251.684
260.771
270.006
279.376
288.866
298.466
308.128
11.3606
11.8736
12.319
12.8289
13.423
14.0624
14.7449
15.486
16.2903
17.1574
18.0903
19.0932
20.1691
21.3211
22.5523
23.8662
25.266
26.7551
28.3368
30.0146
31.7919
33.6723
35.6592
37.7562
39.9668
42.2947
44.7434
47.3165
50.0179
52.8511
55.8197
58.9273
62.1779
65.575
69.1225
72.8237
76.6828
80.7029
84.8881
89.2416
93.7672
98.4682
103.348
108.41
113.657
119.093
124.72
130.541
136.559
142.776
149.193
155.813
162.636
169.665
176.897
184.335
191.976
199.82
207.863
216.103
224.536
233.156
241.955
250.928
260.064
269.355
278.785
288.343
298.011
307.778
317.605
10.9646
11.4684
11.9175
12.4228
13.0064
13.6358
14.308
15.0369
15.8274
16.68
17.5973
18.5837
19.6422
20.7761
21.9885
23.2829
24.6627
26.1313
27.6922
29.3489
31.1048
32.9637
34.9289
37.0042
39.1932
41.4996
43.927
46.4791
49.1597
51.9726
54.9214
58.0097
61.2416
64.6208
68.151
71.8358
75.6792
79.6845
83.8562
88.1971
92.7113
97.4019
102.273
107.327
112.569
118
123.624
129.443
135.461
141.68
148.101
154.727
161.558
168.596
175.843
183.296
190.955
198.82
206.887
215.155
223.619
232.274
241.114
250.13
259.316
268.66
278.15
287.773
297.514
307.355
317.284
327.266
10.5693
11.0641
11.516
12.0165
12.5898
13.2091
13.8706
14.5872
15.364
16.2018
17.1034
18.0729
19.1138
20.2292
21.4225
22.6971
24.0565
25.5042
27.0438
28.6788
30.4128
32.2494
34.1924
36.2453
38.4121
40.6962
43.1015
45.6319
48.291
51.0825
54.0108
57.0789
60.2911
63.6512
67.1631
70.8305
74.6573
78.6472
82.8041
87.1315
91.6331
96.3128
101.174
106.219
111.454
116.879
122.499
128.316
134.333
140.553
146.977
153.608
160.447
167.495
174.752
182.22
189.897
197.782
205.874
214.168
222.662
231.352
240.23
249.29
258.523
267.921
277.47
287.158
296.97
306.889
316.897
326.979
337.109
10.1749
10.6608
11.1144
11.6102
12.1733
12.7823
13.4331
14.1372
14.9001
15.7229
16.6085
17.5611
18.5841
19.6807
20.8545
22.1089
23.4476
24.8739
26.3917
28.0045
29.716
31.5299
33.45
35.4799
37.6236
39.8847
42.2673
44.7749
47.4117
50.1813
53.0878
56.135
59.3265
62.6668
66.1594
69.8082
73.6175
77.5907
81.7319
86.0447
90.5329
95.2003
100.05
105.087
110.312
115.731
121.346
127.159
133.175
139.395
145.821
152.456
159.302
166.358
173.627
181.109
188.802
196.706
204.82
213.142
221.665
230.389
239.305
248.407
257.688
267.137
276.744
286.496
296.378
306.375
316.467
326.635
336.863
347.129
9.78144
10.2586
10.7131
11.204
11.7571
12.3557
12.9957
13.6871
14.4359
15.2436
16.1131
17.0484
18.0532
19.1308
20.2847
21.5186
22.8361
24.2407
25.7363
27.3264
29.0148
30.8054
32.7019
34.7082
36.8282
39.0656
41.4244
43.9087
46.5222
49.2689
52.1528
55.1781
58.3482
61.6676
65.14
68.7694
72.5599
76.5155
80.64
84.9371
89.4108
94.0648
98.9025
103.928
109.145
114.556
120.165
125.974
131.987
138.206
144.633
151.271
158.122
165.187
172.466
179.96
187.669
195.593
203.728
212.074
220.628
229.383
238.337
247.481
256.808
266.309
275.973
285.787
295.739
305.811
315.986
326.246
336.566
346.931
357.322
9.38907
9.85783
10.3122
10.7982
11.3413
11.9294
12.5583
13.237
13.9717
14.764
15.6171
16.535
17.5214
18.5797
19.7135
20.9265
22.2223
23.6048
25.0777
26.6445
28.3094
30.0761
31.9485
33.9304
36.0259
38.2389
40.5734
43.0334
45.6228
48.3458
51.2062
54.2084
57.3562
60.6538
64.1047
67.7139
71.4846
75.4216
79.528
83.8085
88.2665
92.9061
97.7306
102.744
107.951
113.353
118.954
124.758
130.767
136.985
143.413
150.053
156.908
163.98
171.268
178.775
186.498
194.44
202.597
210.967
219.548
228.336
237.326
246.51
255.882
265.434
275.155
285.031
295.051
305.198
315.456
325.804
336.222
346.687
357.178
367.681
8.99784
9.45845
9.91185
10.3928
10.926
11.5035
12.1212
12.7872
13.5075
14.2844
15.1209
16.0211
16.9888
18.0275
19.1409
20.3327
21.6066
22.9665
24.4161
25.9593
27.6001
29.3423
31.1899
33.1468
35.2172
37.405
39.7144
42.1493
44.7138
47.4121
50.2483
53.2264
56.3507
59.6253
63.0542
66.6418
70.3919
74.3089
78.3965
82.6589
87.1004
91.7242
96.535
101.536
106.73
112.123
117.716
123.513
129.517
135.732
142.159
148.801
155.659
162.737
170.034
177.551
185.289
193.247
201.425
209.819
218.426
227.246
236.27
245.496
254.912
264.514
274.289
284.227
294.314
304.535
314.874
325.31
335.825
346.394
356.993
367.601
378.2
8.60785
9.06066
9.51233
9.98802
10.5116
11.0783
11.6846
12.3377
13.0435
13.8048
14.6245
15.5068
16.4557
17.4745
18.5672
19.7374
20.989
22.3258
23.7518
25.2709
26.887
28.6042
30.4264
32.3577
34.4023
36.5642
38.8476
41.2567
43.7954
46.4682
49.279
52.2322
55.3322
58.5829
61.9885
65.5534
69.2816
73.1777
77.2452
81.4886
85.9121
90.5194
95.3148
100.302
105.484
110.865
116.448
122.238
128.236
134.447
140.872
147.514
154.376
161.458
168.762
176.29
184.041
192.014
200.211
208.628
217.262
226.111
235.171
244.435
253.897
263.546
273.377
283.374
293.528
303.822
314.24
324.764
335.374
346.046
356.757
367.48
378.192
388.873
8.2192
8.66457
9.11381
9.58402
10.0979
10.6538
11.2487
11.8887
12.5799
13.3254
14.1282
14.9925
15.9222
16.9209
17.9925
19.1408
20.3698
21.6832
23.0852
24.5796
26.1705
27.8621
29.6583
31.5633
33.5814
35.7167
37.9734
40.3557
42.8679
45.5142
48.299
51.2263
54.3008
57.5266
60.908
64.4492
68.1545
72.0282
76.0746
80.2979
84.7025
89.2918
94.0704
99.0421
104.21
109.579
115.152
120.933
126.925
133.13
139.552
146.193
153.056
160.142
167.453
174.989
182.752
190.742
198.956
207.394
216.055
224.933
234.026
243.328
252.833
262.531
272.414
282.472
292.691
303.057
313.554
324.165
334.868
345.643
356.465
367.307
378.143
388.947
399.691
7.83193
8.27028
8.71642
9.181
9.68539
10.2303
10.8135
11.4404
12.1169
12.8464
13.6321
14.4781
15.3884
16.3668
17.4171
18.5432
19.7491
21.0388
22.4163
23.8856
25.4508
27.1162
28.8859
30.764
32.7549
34.8629
37.092
39.4468
41.9316
44.5506
47.3083
50.209
53.2568
56.4566
59.8126
63.329
67.0104
70.8609
74.885
79.0869
83.4709
88.0415
92.8021
97.7572
102.91
108.266
113.827
119.598
125.581
131.78
138.198
144.837
151.7
158.788
166.105
173.649
181.423
189.426
197.659
206.118
214.803
223.709
232.835
242.174
251.72
261.466
271.402
281.518
291.802
302.239
312.815
323.511
334.308
345.184
356.115
367.076
378.04
388.975
399.857
410.645
7.44625
7.87794
8.32031
8.77905
9.27397
9.80796
10.3793
10.9929
11.6546
12.368
13.1364
13.964
14.8547
15.8125
16.8412
17.9448
19.1274
20.3928
21.7454
23.1891
24.7282
26.3668
28.1094
29.96
31.923
34.0029
36.2038
38.5304
40.9868
43.5776
46.3073
49.1801
52.2008
55.3734
58.7029
62.1933
65.8496
69.6758
73.6763
77.8557
82.218
86.7683
91.5098
96.4471
101.584
106.925
112.473
118.232
124.206
130.398
136.81
143.446
150.308
157.398
164.718
172.27
180.054
188.069
196.317
204.797
213.506
222.44
231.597
240.973
250.56
260.352
270.34
280.513
290.861
301.369
312.022
322.803
333.692
344.668
355.708
366.787
377.877
388.948
399.97
410.915
421.726
7.06217
7.48763
7.92572
8.37833
8.86379
9.38678
9.94622
10.5464
11.1932
11.8903
12.6413
13.4502
14.3212
15.2581
16.265
17.3458
18.5046
19.7455
21.0727
22.4904
24.0029
25.6143
27.329
29.1515
31.0861
33.1372
35.3091
37.6066
40.0338
42.5956
45.2962
48.1404
51.1325
54.2771
57.579
61.0426
64.6724
68.4728
72.4487
76.6044
80.944
85.4725
90.1937
95.112
100.232
105.556
111.09
116.837
122.799
128.982
135.388
142.019
148.879
155.969
163.293
170.85
178.642
186.67
194.934
203.432
212.162
221.123
230.312
239.722
249.35
259.187
269.226
279.456
289.866
300.444
311.173
322.038
333.018
344.094
355.242
366.438
377.653
388.86
400.026
411.12
422.112
432.924
6.67983
7.09948
7.5327
7.97901
8.45507
8.96696
9.51435
10.101
10.7327
11.4135
12.1469
12.937
13.788
14.7038
15.6886
16.7463
17.881
19.0971
20.3986
21.7899
23.2752
24.8588
26.5453
28.3389
30.2443
32.2659
34.4082
36.6757
39.073
41.6047
44.2755
47.0899
50.0526
53.1681
56.4413
59.8767
63.4791
67.2527
71.2026
75.333
79.6489
84.1543
88.8539
93.752
98.8524
104.16
109.678
115.41
121.361
127.534
133.931
140.557
147.413
154.503
161.827
169.389
177.19
185.228
193.505
202.02
210.773
219.759
228.977
238.422
248.089
257.97
268.059
278.345
288.817
299.463
310.268
321.215
332.287
343.461
354.717
366.028
377.368
388.709
400.019
411.266
422.415
433.437
444.226
6.29932
6.7136
7.14149
7.5812
8.04788
8.54864
9.08378
9.6569
10.2734
10.9377
11.6534
12.4245
13.2553
14.1498
15.1122
16.1465
17.2569
18.4478
19.7232
21.0875
22.5452
24.1006
25.7583
27.5225
29.3981
31.3895
33.5012
35.7381
38.1046
40.6055
43.2453
46.0291
48.9614
52.0467
55.2902
58.6962
62.2696
66.0156
69.9383
74.0422
78.3327
82.814
87.4906
92.3667
97.4473
102.736
108.237
113.954
119.891
126.052
132.44
139.059
145.91
152.997
160.323
167.888
175.694
183.742
192.032
200.563
209.336
218.347
227.593
237.072
246.776
256.701
266.839
277.179
287.713
298.426
309.306
320.335
331.496
342.768
354.13
365.556
377.021
388.495
399.948
411.347
422.659
433.848
444.881
455.62
5.92075
6.33005
6.75216
7.18501
7.64237
8.13192
8.65478
9.21415
9.81546
10.4631
11.1608
11.9128
12.7232
13.5963
14.5361
15.5467
16.6325
17.7977
19.0467
20.3837
21.8133
23.34
24.9683
26.7026
28.5477
30.5082
32.5886
34.7941
37.129
39.598
42.2062
44.9583
47.8589
50.9132
54.1258
57.5013
61.045
64.7615
68.6557
72.7323
76.9958
81.4517
86.1037
90.9568
96.0152
101.284
106.766
112.466
118.389
124.537
130.914
137.524
144.369
151.453
158.777
166.344
174.155
182.211
190.513
199.06
207.851
216.885
226.16
235.669
245.411
255.378
265.564
275.958
286.551
297.331
308.285
319.395
330.645
342.014
353.481
365.022
376.61
388.216
399.812
411.363
422.837
434.196
445.405
456.431
467.093
5.54431
5.9489
6.36486
6.79062
7.2386
7.71703
8.22742
8.77297
9.35891
9.98979
10.6695
11.4022
12.1921
13.0434
13.9604
14.9471
16.008
17.1472
18.3693
19.6787
21.0798
22.5772
24.1755
25.8794
27.6933
29.6222
31.6709
33.8439
36.1464
38.5828
41.1584
43.8779
46.7458
49.7678
52.9485
56.2925
59.8048
63.4911
67.3553
71.4029
75.6386
80.0676
84.6935
89.5224
94.5573
99.8044
105.267
110.949
116.854
122.988
129.353
135.953
142.791
149.869
157.191
164.759
172.573
180.636
188.948
197.509
206.318
215.374
224.674
234.215
243.993
254.001
264.233
274.68
285.332
296.178
307.204