/*--------------------------------*- C++ -*----------------------------------*\
  =========                 |
  \\      /  F ield         | OpenFOAM: The Open Source CFD Toolbox
   \\    /   O peration     | Website:  https://openfoam.org
    \\  /    A nd           | Version:  7
     \\/     M anipulation  |
\*---------------------------------------------------------------------------*/
FoamFile
{
    version     2.0;
    format      ascii;
    class       surfaceScalarField;
    location    "1800";
    object      phi;
}
// * * * * * * * * * * * * * * * * * * * * * * * * * * * * * * * * * * * * * //

dimensions      [0 3 -1 0 0 0 0];

internalField   nonuniform List<scalar> 
45794
(
-0.295092
0.0426565
-0.293466
0.0451762
-0.283554
0.0409397
-0.291724
0.0477173
-0.281826
0.0434476
-0.271974
0.0394891
-0.289846
0.0501638
-0.280038
0.0459293
-0.270389
0.0418625
-0.260999
0.0379466
-0.2878
0.0525573
-0.278119
0.0482455
-0.268644
0.0441846
-0.259432
0.0402957
-0.250449
0.0364928
-0.24164
0.0329097
-0.285695
0.0549413
-0.276162
0.0505999
-0.266849
0.0464503
-0.257779
0.0425319
-0.248947
0.0387935
-0.24028
0.0351331
-0.231831
0.031657
-0.223578
0.00208113
-0.28339
0.0571164
-0.274062
0.0528413
-0.264956
0.0487064
-0.256036
0.0447071
-0.247302
0.0408866
-0.238782
0.037295
-0.230533
0.0338346
-0.222422
0.0305017
-0.214496
0.00208055
-0.28109
0.0593802
-0.27192
0.0549746
-0.262919
0.0508051
-0.254152
0.0468227
-0.245614
0.0430195
-0.237291
0.0393962
-0.229091
0.0358535
-0.221126
0.0325381
-0.213347
0.029353
-0.205767
0.00209972
-0.278596
0.0614346
-0.269635
0.0570949
-0.260839
0.0528945
-0.252226
0.0488793
-0.243835
0.0450435
-0.23561
0.0413385
-0.227557
0.0378625
-0.219787
0.0345145
-0.212104
0.0312956
-0.204633
0.0282191
-0.197346
0.00210895
-0.27606
0.0635258
-0.267307
0.0591068
-0.258619
0.0548749
-0.250207
0.0508755
-0.241964
0.0470081
-0.233937
0.0433704
-0.226031
0.039812
-0.218356
0.0364315
-0.210769
0.0331789
-0.20344
0.0301031
-0.196277
0.0271496
-0.189281
0.00211827
-0.273486
0.0655077
-0.26484
0.0610584
-0.256406
0.0568937
-0.248148
0.052815
-0.240053
0.0489645
-0.232124
0.0451945
-0.224363
0.0417029
-0.216784
0.0382398
-0.20939
0.0350528
-0.202185
0.0319232
-0.195129
0.0289548
-0.188243
0.026112
-0.181534
0.00212744
-0.270724
0.0673817
-0.262284
0.0629523
-0.254056
0.0587076
-0.245898
0.0546442
-0.238002
0.0507638
-0.23022
0.0470607
-0.222655
0.0434866
-0.21517
0.0400894
-0.207969
0.0368186
-0.200831
0.0336995
-0.193912
0.0307062
-0.187142
0.0278531
-0.180542
0.0251197
-0.174103
0.00213645
-0.267975
0.0692444
-0.259689
0.0647871
-0.251613
0.06051
-0.243658
0.0564674
-0.23591
0.0525532
-0.228274
0.0488179
-0.220805
0.0452106
-0.213514
0.04183
-0.206406
0.0385268
-0.199421
0.0354079
-0.192622
0.0324095
-0.185976
0.0295408
-0.179485
0.0267964
-0.173149
0.0241656
-0.166963
0.00214064
-0.265091
0.0710007
-0.257008
0.0665628
-0.249133
0.0623072
-0.241379
0.058231
-0.233729
0.0542858
-0.226289
0.0505679
-0.218966
0.0469782
-0.211817
0.0435138
-0.204802
0.0402254
-0.197967
0.0370732
-0.191274
0.03406
-0.184738
0.0311709
-0.178355
0.0284104
-0.172125
0.0257729
-0.166045
0.0232481
-0.160118
0.00214976
-0.26217
0.072746
-0.254288
0.0682809
-0.246565
0.0639948
-0.238961
0.0598891
-0.231459
0.0559614
-0.224165
0.0521621
-0.216985
0.0485875
-0.209979
0.0451408
-0.203157
0.0418691
-0.196423
0.0386817
-0.189854
0.0356531
-0.183431
0.0327535
-0.177165
0.0299818
-0.171043
0.0273278
-0.165063
0.0247907
-0.159236
0.0223653
-0.153546
0.00215394
-0.259166
0.0743381
-0.251435
0.0698929
-0.243861
0.0655767
-0.236455
0.0614888
-0.22915
0.0575801
-0.222001
0.0537971
-0.215014
0.0501907
-0.208151
0.0467594
-0.20142
0.0434039
-0.194791
0.040237
-0.188367
0.0371947
-0.182067
0.0342887
-0.175913
0.0315013
-0.169896
0.0288355
-0.164021
0.0262863
-0.158293
0.0238481
-0.152696
0.0215155
-0.14724
0.00216303
-0.256075
0.0759194
-0.248544
0.0714474
-0.241169
0.0672004
-0.233912
0.0630339
-0.226754
0.0590922
-0.219797
0.0553766
-0.212955
0.0517386
-0.206185
0.0482247
-0.199594
0.0449328
-0.193124
0.0417368
-0.186823
0.0386933
-0.18064
0.035768
-0.174598
0.0329737
-0.168692
0.0302964
-0.162921
0.027735
-0.157291
0.0252842
-0.151786
0.0229384
-0.146422
0.0206972
-0.141181
0.0021672
-0.252903
0.0774471
-0.24557
0.0729456
-0.238391
0.0686701
-0.231283
0.0645714
-0.224318
0.0605981
-0.217506
0.0568014
-0.210757
0.0531787
-0.204176
0.0497297
-0.197726
0.0463568
-0.191387
0.0431959
-0.185217
0.0401306
-0.179151
0.0372045
-0.173225
0.0343949
-0.167429
0.0317107
-0.161762
0.0291373
-0.15623
0.0266739
-0.150822
0.0243198
-0.145548
0.0220649
-0.140397
0.0199137
-0.135379
0.00217615
-0.249698
0.0789184
-0.242561
0.0744373
-0.235528
0.0700825
-0.228615
0.0660022
-0.221795
0.0620484
-0.215177
0.0582684
-0.208569
0.0546128
-0.20213
0.0511324
-0.19577
0.0477736
-0.189617
0.0445872
-0.183545
0.0415238
-0.177608
0.0385871
-0.171791
0.0357699
-0.166108
0.0330743
-0.160544
0.0304935
-0.155115
0.0280222
-0.149808
0.0256599
-0.14462
0.0233915
-0.139559
0.0212262
-0.134624
0.0191585
-0.129804
0.00218032
-0.246458
0.0802841
-0.239418
0.0757763
-0.232631
0.0715396
-0.225912
0.0673797
-0.219236
0.0634429
-0.21271
0.059582
-0.206294
0.0559941
-0.199996
0.0524782
-0.193823
0.0491857
-0.187788
0.0459442
-0.181824
0.0428666
-0.176005
0.0399216
-0.170303
0.0370995
-0.164735
0.0343968
-0.159279
0.0318088
-0.153946
0.0293247
-0.148735
0.0269495
-0.143642
0.0246821
-0.13867
0.0225027
-0.133818
0.0204206
-0.129075
0.0184303
-0.124455
0.00218938
-0.243088
0.0815963
-0.236292
0.0771572
-0.229648
0.0727931
-0.223074
0.0687014
-0.216591
0.0647348
-0.210206
0.060939
-0.20398
0.0572676
-0.197821
0.0538194
-0.191787
0.0504421
-0.185845
0.0472422
-0.180046
0.0441663
-0.174347
0.0412083
-0.168766
0.0383843
-0.163305
0.0356694
-0.157956
0.0330739
-0.152724
0.0305869
-0.147614
0.0282032
-0.14261
0.0259175
-0.137726
0.0237388
-0.132957
0.0216421
-0.128297
0.0196418
-0.123753
0.0177277
-0.119319
0.00218864
-0.239635
0.0828526
-0.233081
0.0783856
-0.226582
0.0740913
-0.22025
0.0699687
-0.213908
0.0660192
-0.207715
0.0622431
-0.20163
0.0585886
-0.195609
0.0550557
-0.189676
0.0517088
-0.183896
0.0484934
-0.178213
0.0454095
-0.172634
0.0424533
-0.167175
0.0396174
-0.161822
0.0369019
-0.156579
0.0342928
-0.151449
0.0317989
-0.146434
0.0294069
-0.141529
0.0271221
-0.136733
0.0249245
-0.132047
0.0228282
-0.127478
0.0208229
-0.123009
0.0188984
-0.118651
0.0170591
-0.1144
0.00219756
-0.236199
0.0841052
-0.229837
0.079609
-0.22353
0.0753336
-0.217341
0.0711828
-0.211141
0.0672009
-0.205088
0.0633924
-0.19914
0.0597537
-0.193308
0.0562873
-0.187543
0.0529226
-0.181889
0.0497017
-0.17633
0.0466097
-0.170874
0.0436492
-0.165529
0.0408077
-0.160289
0.038084
-0.155157
0.0354792
-0.150132
0.0329763
-0.145215
0.0305806
-0.140404
0.0282821
-0.135696
0.0260851
-0.131102
0.0239792
-0.126608
0.021959
-0.122216
0.0200291
-0.117931
0.0181791
-0.113754
0.0164136
-0.109672
0.00220171
-0.232731
0.085255
-0.226513
0.0807806
-0.220396
0.0764759
-0.214349
0.0723411
-0.208336
0.0683779
-0.202474
0.0645866
-0.196714
0.0609662
-0.190969
0.0574152
-0.185331
0.0540748
-0.179821
0.0508546
-0.174393
0.0477647
-0.169061
0.0447974
-0.163833
0.0419527
-0.158708
0.039227
-0.153682
0.0366091
-0.148761
0.0341075
-0.143943
0.0317042
-0.139226
0.0294022
-0.13461
0.0271961
-0.130097
0.0250806
-0.125685
0.0230554
-0.121377
0.0211201
-0.117171
0.0192691
-0.113063
0.0174876
-0.109049
0.0157898
-0.105137
0.00220085
-0.229133
0.0863517
-0.223154
0.0818964
-0.217177
0.077561
-0.211319
0.0734464
-0.205498
0.0695033
-0.199824
0.0657279
-0.194151
0.0620242
-0.188544
0.0585411
-0.183106
0.0551903
-0.177706
0.0519598
-0.172405
0.0488667
-0.167201
0.0459037
-0.162094
0.0430585
-0.157081
0.0403259
-0.152166
0.037711
-0.147349
0.0351977
-0.142625
0.0327894
-0.137999
0.0304778
-0.133476
0.0282677
-0.129053
0.0261525
-0.124726
0.024122
-0.120498
0.0221764
-0.116366
0.0203148
-0.112326
0.018532
-0.108389
0.0168276
-0.104543
0.0151964
-0.100788
0.00220499
-0.225552
0.0873953
-0.219714
0.0829121
-0.213927
0.0786467
-0.20826
0.0745014
-0.202624
0.070573
-0.197087
0.0667666
-0.191553
0.0631297
-0.18615
0.05963
-0.180816
0.0562518
-0.175546
0.0530307
-0.170378
0.0499334
-0.165298
0.0469637
-0.160307
0.0441166
-0.155404
0.0413808
-0.150598
0.0387578
-0.145884
0.0362461
-0.141263
0.0338359
-0.136736
0.0315259
-0.132308
0.0293101
-0.127971
0.027185
-0.123723
0.0251496
-0.119574
0.0231983
-0.115521
0.0213309
-0.111553
0.0195419
-0.107683
0.0178262
-0.103904
0.0161881
-0.100214
0.0146225
-0.0966151
0.00221386
-0.221891
0.0883873
-0.216242
0.0839231
-0.210642
0.0796271
-0.205162
0.0755489
-0.199715
0.0715924
-0.194267
0.0677525
-0.188917
0.0641302
-0.183649
0.0606292
-0.17846
0.057274
-0.173343
0.0540488
-0.168304
0.0509561
-0.163349
0.0479846
-0.158474
0.0451307
-0.153685
0.042398
-0.148994
0.0397766
-0.144383
0.0372568
-0.139859
0.034842
-0.135427
0.0325274
-0.131091
0.0303085
-0.126839
0.0281789
-0.122676
0.0261383
-0.118611
0.0241864
-0.114631
0.0223082
-0.11074
0.0205179
-0.106936
0.0187956
-0.103228
0.0171507
-0.0995986
0.015573
-0.0960597
0.0140671
-0.0926092
0.00221798
-0.218199
0.0893275
-0.212739
0.0848838
-0.207326
0.0806068
-0.201984
0.0764496
-0.196674
0.0725079
-0.191409
0.068735
-0.186245
0.0650805
-0.181123
0.0616039
-0.176072
0.0582411
-0.171087
0.0550179
-0.166178
0.0519234
-0.161349
0.0489564
-0.156595
0.0461056
-0.151926
0.0433711
-0.147337
0.0407417
-0.14283
0.0382235
-0.138413
0.0358105
-0.134078
0.0334926
-0.129832
0.0312685
-0.125665
0.0291338
-0.12159
0.0270929
-0.117603
0.0251306
-0.1137
0.0232563
-0.109887
0.021455
-0.106154
0.019736
-0.102512
0.0180793
-0.0989473
0.0164994
-0.0954727
0.0149861
-0.0920763
0.0135341
-0.0887649
0.00221711
-0.214426
0.0901652
-0.209153
0.0857418
-0.203927
0.0814852
-0.198772
0.077394
-0.193696
0.0734711
-0.188566
0.0696647
-0.183537
0.0660275
-0.178569
0.0625259
-0.173641
0.0591727
-0.168798
0.0559518
-0.164021
0.0528605
-0.159312
0.0498868
-0.154677
0.0470392
-0.150126
0.0443064
-0.145646
0.0416801
-0.141247
0.0391588
-0.136926
0.0367363
-0.132686
0.0344188
-0.128535
0.0321951
-0.124457
0.0300603
-0.120471
0.0280144
-0.116561
0.0260514
-0.112736
0.0241661
-0.108994
0.0223633
-0.105332
0.0206328
-0.101755
0.0189791
-0.09826
0.0173921
-0.0948446
0.0158713
-0.0915066
0.0144164
-0.088258
0.0130273
-0.0850769
0.00222121
-0.210624
0.0910519
-0.205586
0.086598
-0.200545
0.0823591
-0.195573
0.0782867
-0.190584
0.0742822
-0.185639
0.0705442
-0.180776
0.0669032
-0.175949
0.0634077
-0.171173
0.0600578
-0.166465
0.0568402
-0.161819
0.0537499
-0.157236
0.0507843
-0.152724
0.0479336
-0.148283
0.0451955
-0.14391
0.0425697
-0.139621
0.0400538
-0.135401
0.0376343
-0.131262
0.0353123
-0.1272
0.033084
-0.123211
0.0309496
-0.119308
0.0288972
-0.115481
0.0269337
-0.111732
0.0250475
-0.108066
0.0232385
-0.104475
0.0215063
-0.100968
0.0198457
-0.0975371
0.0182562
-0.0941805
0.0167279
-0.0909056
0.0152702
-0.0877098
0.0138682
-0.0845856
0.012536
-0.0815402
0.00222517
-0.206839
0.0918388
-0.201938
0.0874039
-0.197081
0.0831344
-0.192245
0.0790314
-0.187441
0.0751436
-0.182678
0.0713213
-0.177961
0.0677297
-0.173296
0.0642502
-0.168667
0.0609014
-0.164097
0.0576898
-0.159575
0.0545965
-0.15512
0.0516342
-0.150728
0.048788
-0.146403
0.0460541
-0.142147
0.0434327
-0.13796
0.0409087
-0.133836
0.0384884
-0.129795
0.0361668
-0.125828
0.0339403
-0.121927
0.0317999
-0.118107
0.0297484
-0.114362
0.0277787
-0.110694
0.0258958
-0.107099
0.0240803
-0.103583
0.0223462
-0.100145
0.0206836
-0.0967737
0.0190822
-0.0934854
0.0175611
-0.0902732
0.0160956
-0.08713
0.0146904
-0.0840626
0.0133452
-0.0810686
0.0120644
-0.0781497
0.00222923
-0.202974
0.0925729
-0.198259
0.0881596
-0.193586
0.0839091
-0.188933
0.0798224
-0.184311
0.0759013
-0.179682
0.0721474
-0.175162
0.0685223
-0.170609
0.0650427
-0.166121
0.0617049
-0.161685
0.058489
-0.157297
0.0554116
-0.152972
0.0524476
-0.148696
0.049602
-0.144483
0.0468677
-0.140339
0.0442468
-0.136252
0.0417247
-0.132238
0.0393111
-0.128291
0.036985
-0.124419
0.0347576
-0.120604
0.0326176
-0.116872
0.0305651
-0.113214
0.0286
-0.109622
0.0267062
-0.106097
0.0248943
-0.102656
0.0231537
-0.099283
0.0214838
-0.0959799
0.0198898
-0.0927596
0.0183564
-0.0896002
0.0168881
-0.0865189
0.0154845
-0.0835079
0.0141358
-0.0805649
0.0128416
-0.0776919
0.0116066
-0.0748906
0.00223315
-0.199031
0.0932097
-0.194499
0.0888129
-0.190056
0.0846297
-0.185588
0.0805633
-0.181148
0.0766598
-0.176701
0.0729207
-0.172282
0.0692671
-0.16788
0.0657936
-0.163537
0.062458
-0.159234
0.0592544
-0.154982
0.056174
-0.150778
0.0532183
-0.146626
0.0503773
-0.142529
0.0476485
-0.138496
0.0450246
-0.134518
0.0425128
-0.130604
0.0400899
-0.126757
0.0377768
-0.122976
0.0355422
-0.119254
0.0334076
-0.115605
0.0313506
-0.112027
0.0293783
-0.108511
0.0274896
-0.105067
0.0256755
-0.1017
0.0239379
-0.0983954
0.0222661
-0.0951607
0.0206646
-0.0919982
0.0191284
-0.088901
0.0176571
-0.0858764
0.0162456
-0.082917
0.0148935
-0.0800297
0.0136005
-0.0772069
0.0123566
-0.0744506
0.0111666
-0.0717626
0.00223236
-0.195106
0.0938932
-0.190806
0.0895167
-0.186498
0.0852545
-0.182161
0.0812031
-0.177902
0.0773172
-0.173591
0.0735497
-0.169333
0.0699718
-0.165121
0.0665081
-0.160922
0.0631785
-0.15676
0.0599833
-0.152634
0.0569063
-0.148557
0.0539525
-0.144521
0.0511135
-0.140546
0.0483942
-0.136622
0.0457745
-0.13275
0.0432561
-0.128934
0.0408435
-0.125185
0.0385184
-0.121491
0.0362919
-0.117868
0.0341564
-0.114304
0.032107
-0.110806
0.0301302
-0.107372
0.0282393
-0.104001
0.0264243
-0.100704
0.0246798
-0.0974683
0.0230108
-0.0943015
0.0214069
-0.0912016
0.0198681
-0.0881665
0.0183939
-0.0851983
0.0169791
-0.0822949
0.0156235
-0.079463
0.0143268
-0.0766903
0.0130839
-0.0739884
0.0118944
-0.0713447
0.0107486
-0.0687656
0.00223623
-0.191152
0.0944795
-0.187034
0.090122
-0.182906
0.0859246
-0.178799
0.0818921
-0.174673
0.0779741
-0.170507
0.0742327
-0.166419
0.0706349
-0.16233
0.067181
-0.158275
0.0638612
-0.154246
0.0606645
-0.150252
0.0576008
-0.146302
0.0546517
-0.142388
0.0518197
-0.138529
0.049096
-0.134709
0.0464809
-0.130947
0.0439716
-0.127239
0.0415609
-0.123583
0.0392412
-0.119991
0.0370188
-0.11645
0.0348739
-0.112972
0.0328236
-0.109555
0.0308557
-0.1062
0.0289577
-0.102908
0.0271457
-0.0996843
0.0254043
-0.0965166
0.0237281
-0.0934126
0.0221218
-0.0903796
0.020585
-0.087406
0.0191076
-0.0844942
0.0176898
-0.0816513
0.0163355
-0.0788697
0.0150303
-0.0761469
0.0137834
-0.0734895
0.012585
-0.0708946
0.0114444
-0.068364
0.010347
-0.0658944
0.00224008
-0.187167
0.0950655
-0.183231
0.0906759
-0.179283
0.0864988
-0.175307
0.082433
-0.171336
0.0785548
-0.167377
0.0748445
-0.163444
0.071258
-0.159509
0.0678139
-0.155593
0.0644989
-0.1517
0.0613155
-0.147844
0.0582566
-0.144016
0.0553145
-0.140221
0.0524844
-0.136476
0.0497664
-0.13277
0.0471568
-0.129115
0.0446494
-0.125507
0.0422393
-0.121949
0.0399264
-0.118448
0.0376982
-0.114998
0.0355659
-0.111609
0.0335112
-0.108274
0.0315424
-0.104998
0.0296533
-0.101785
0.0278355
-0.098631
0.0260923
-0.0955304
0.0244181
-0.0924986
0.0228141
-0.0895275
0.0212697
-0.0866105
0.0197895
-0.0837595
0.0183729
-0.0809719
0.0170104
-0.0782406
0.0157064
-0.075577
0.0144604
-0.0729687
0.0132626
-0.0704224
0.0121128
-0.0679351
0.0110155
-0.0655036
0.00995616
-0.0631297
0.00223923
-0.183151
0.0955504
-0.179345
0.0911798
-0.175627
0.0870204
-0.171831
0.0830232
-0.168039
0.0791364
-0.16424
0.0754176
-0.160445
0.0718459
-0.156658
0.0684067
-0.152879
0.0651002
-0.149128
0.0619265
-0.145398
0.0588697
-0.141694
0.0559346
-0.138024
0.0531178
-0.134399
0.050408
-0.130804
0.0478004
-0.127252
0.0452936
-0.123746
0.042889
-0.120288
0.0405789
-0.116879
0.0383575
-0.11352
0.0362208
-0.110218
0.034175
-0.106966
0.0322027
-0.103768
0.0303128
-0.10063
0.0284976
-0.0975464
0.0267509
-0.0945188
0.0250807
-0.091555
0.0234745
-0.0886455
0.0219321
-0.0857944
0.0204535
-0.0830039
0.0190339
-0.0802716
0.0176726
-0.0775949
0.0163647
-0.0749806
0.0151099
-0.0724164
0.0139081
-0.0699185
0.0127587
-0.0674743
0.011652
-0.0650856
0.0105975
-0.0627587
0.00958524
-0.0604807
0.00223823
-0.179057
0.0959893
-0.175481
0.091686
-0.171942
0.0874945
-0.168323
0.0835123
-0.164679
0.079663
-0.161059
0.0759554
-0.157416
0.0723887
-0.153776
0.0689643
-0.150144
0.0656712
-0.146528
0.0625011
-0.142929
0.0594576
-0.13935
0.0565259
-0.1358
0.0537111
-0.13229
0.0510083
-0.128801
0.048405
-0.125362
0.04591
-0.121957
0.0435046
-0.118596
0.0411965
-0.115278
0.0389779
-0.112014
0.0368516
-0.108796
0.0347988
-0.105624
0.0328332
-0.102511
0.030946
-0.0994454
0.0291286
-0.0964347
0.0273859
-0.0934809
0.0257129
-0.0905822
0.024108
-0.0877338
0.0225628
-0.0849435
0.0210812
-0.0822132
0.0196629
-0.0795358
0.018298
-0.0769134
0.0169911
-0.0743531
0.0157372
-0.0718424
0.014536
-0.0693879
0.0133774
-0.0669915
0.0122758
-0.0646452
0.0112116
-0.0623604
0.0101992
-0.060124
0.00922861
-0.0579472
0.00224676
-0.174982
0.0964279
-0.171635
0.0921435
-0.168224
0.0879683
-0.164798
0.0839689
-0.161312
0.0801458
-0.157849
0.0764532
-0.154362
0.0729013
-0.150869
0.0694819
-0.147378
0.0661986
-0.143898
0.0630406
-0.140428
0.0600005
-0.136978
0.0570858
-0.133553
0.054278
-0.130154
0.0515759
-0.126778
0.0489858
-0.123442
0.0464852
-0.120139
0.0440916
-0.116879
0.0417877
-0.113657
0.0395746
-0.110483
0.0374462
-0.107348
0.0354037
-0.104264
0.0334396
-0.101225
0.0315466
-0.0982362
0.0297368
-0.0953042
0.0279981
-0.0924166
0.0263217
-0.0895844
0.0247151
-0.0867974
0.0231715
-0.0840722
0.0216916
-0.081402
0.0202699
-0.0787792
0.0189063
-0.0762111
0.0175957
-0.0736995
0.0163376
-0.0712373
0.0151321
-0.0688306
0.0139787
-0.0664818
0.0128678
-0.0641827
0.0118132
-0.0619397
0.010791
-0.05974
0.00981511
-0.0575994
0.00888085
-0.0555051
0.00224583
-0.170877
0.0968178
-0.167708
0.0925013
-0.164473
0.0883921
-0.161245
0.0844153
-0.157931
0.0805873
-0.154614
0.0769109
-0.151279
0.0733703
-0.147937
0.0699693
-0.144591
0.0666946
-0.141245
0.0635463
-0.137905
0.060517
-0.13458
0.0576021
-0.131272
0.054805
-0.127986
0.0521098
-0.124728
0.0495253
-0.121498
0.0470415
-0.118301
0.0446473
-0.115131
0.042344
-0.112004
0.0401351
-0.108919
0.0380108
-0.105873
0.0359712
-0.102868
0.0340076
-0.099911
0.0321258
-0.0970049
0.0303152
-0.0941405
0.028573
-0.0913239
0.0269055
-0.0885579
0.0252951
-0.0858407
0.0237585
-0.0831761
0.0222754
-0.0805607
0.0208503
-0.0779971
0.0194878
-0.075483
0.0181782
-0.0730249
0.016921
-0.0706156
0.0157159
-0.0682567
0.0145582
-0.0659505
0.0134473
-0.0636932
0.0123784
-0.0614872
0.0113607
-0.0593336
0.0103845
-0.0572291
0.00944482
-0.0551752
0.00855098
-0.0531685
0.00224949
-0.166786
0.0972087
-0.1638
0.0929098
-0.160761
0.0887897
-0.157667
0.0848144
-0.154518
0.0810026
-0.151362
0.0773348
-0.148176
0.0738078
-0.144984
0.0704167
-0.141772
0.0671505
-0.138567
0.0640157
-0.135355
0.0609961
-0.132159
0.0580955
-0.128971
0.0553018
-0.125804
0.0526223
-0.122656
0.0500385
-0.119528
0.0475554
-0.116426
0.0451667
-0.113361
0.0428775
-0.110333
0.0406728
-0.107338
0.038554
-0.104376
0.0365136
-0.101455
0.0345577
-0.0985786
0.0326752
-0.0957415
0.0308624
-0.0929531
0.0291279
-0.0902064
0.0274555
-0.0875065
0.0258541
-0.0848547
0.024309
-0.0822503
0.0228328
-0.0796992
0.0214139
-0.0771897
0.0200429
-0.0747292
0.0187341
-0.0723244
0.0174777
-0.0699629
0.0162683
-0.0676516
0.0151108
-0.0653925
0.0140002
-0.0631819
0.012936
-0.0610222
0.0119134
-0.0589048
0.010932
-0.0568363
0.00999176
-0.054818
0.00908764
-0.0528464
0.00822892
-0.0509276
0.00224836
-0.162635
0.0974543
-0.159813
0.0932213
-0.156964
0.0891126
-0.154044
0.0851671
-0.15108
0.0813765
-0.148084
0.077725
-0.145054
0.0742129
-0.142006
0.0708303
-0.138939
0.0675839
-0.135866
0.06445
-0.132783
0.0614438
-0.129713
0.0585503
-0.126645
0.0557686
-0.123593
0.0530912
-0.120552
0.050518
-0.117533
0.0480441
-0.114537
0.045666
-0.111571
0.0433761
-0.108632
0.041177
-0.105726
0.0390611
-0.102851
0.0370297
-0.100013
0.0350718
-0.0972143
0.0331934
-0.0944595
0.0313932
-0.0917459
0.0296552
-0.0890667
0.0279882
-0.0864365
0.0263855
-0.0838494
0.0248488
-0.0813094
0.0233681
-0.0788127
0.0219463
-0.0763571
0.0205813
-0.0739597
0.0192733
-0.071603
0.0180127
-0.0692892
0.016804
-0.06703
0.0156468
-0.0648177
0.014536
-0.0626488
0.0134671
-0.0605256
0.0124394
-0.0584492
0.0114577
-0.0564212
0.0105169
-0.0544431
0.00961679
-0.0525113
0.00875255
-0.0506176
0.00791892
-0.0487727
0.00225205
-0.158481
0.097748
-0.155853
0.0934942
-0.153164
0.0894216
-0.150424
0.0854923
-0.147625
0.0817118
-0.144783
0.0780752
-0.141908
0.0745793
-0.139004
0.0712103
-0.13608
0.067971
-0.133139
0.0648568
-0.130194
0.0618614
-0.127245
0.0589764
-0.1243
0.0562054
-0.121363
0.0535386
-0.118432
0.0509711
-0.115519
0.0485042
-0.112627
0.046134
-0.109756
0.043851
-0.106912
0.0416561
-0.104092
0.0395431
-0.101306
0.037516
-0.098554
0.0355707
-0.0958376
0.0336951
-0.093154
0.0318879
-0.0905067
0.030154
-0.0879021
0.0284906
-0.0853368
0.0268885
-0.0828158
0.0253519
-0.0803343
0.0238737
-0.0779019
0.0224572
-0.0755042
0.0210933
-0.0731599
0.0197815
-0.0708559
0.0185263
-0.0685944
0.0173179
-0.0663824
0.0161564
-0.0642119
0.015041
-0.0620895
0.0139767
-0.0600121
0.0129535
-0.0579811
0.0119713
-0.0559887
0.0110252
-0.0540457
0.0101195
-0.0521488
0.00925426
-0.0502895
0.00842449
-0.048479
0.0076252
-0.0467084
0.00225083
-0.154303
0.0979434
-0.151858
0.0937532
-0.149358
0.0896883
-0.146783
0.0857802
-0.144152
0.0820196
-0.141471
0.0783993
-0.138742
0.0749093
-0.135985
0.0715601
-0.133204
0.0683344
-0.130397
0.0652287
-0.127583
0.0622454
-0.124756
0.0593724
-0.12193
0.0566072
-0.119104
0.0539461
-0.116284
0.0513906
-0.113481
0.048933
-0.110692
0.0465697
-0.107916
0.0442946
-0.105169
0.0421076
-0.102441
0.0400051
-0.099744
0.0379808
-0.0970679
0.0360299
-0.094429
0.0341621
-0.0918251
0.0323661
-0.0892587
0.0306399
-0.0867239
0.0289758
-0.0842247
0.0273786
-0.0817672
0.0258398
-0.0793504
0.024368
-0.0769707
0.0229425
-0.0746313
0.0215844
-0.0723446
0.0202781
-0.0700931
0.0190188
-0.0678789
0.0178108
-0.0657186
0.0166541
-0.0635943
0.0155388
-0.0615132
0.0144648
-0.0594767
0.0134413
-0.0574815
0.0124539
-0.0555341
0.0115167
-0.0536309
0.0106104
-0.0517687
0.0097394
-0.0499391
0.00890383
-0.0481625
0.008108
-0.0464257
0.00734246
-0.0447297
0.00224956
-0.150138
0.0981891
-0.147885
0.09397
-0.145531
0.0899262
-0.143129
0.0860345
-0.140662
0.0822901
-0.138133
0.078682
-0.135561
0.0752181
-0.132953
0.0718776
-0.130308
0.068664
-0.127636
0.0655741
-0.124953
0.0625993
-0.122248
0.0597371
-0.119543
0.0569852
-0.116838
0.0543411
-0.114128
0.05179
-0.111428
0.0493367
-0.108737
0.0469778
-0.106058
0.0447119
-0.103405
0.0425305
-0.100766
0.0404323
-0.0981498
0.0384109
-0.0955646
0.0364775
-0.0930068
0.0346077
-0.090479
0.0328159
-0.0879775
0.031085
-0.0855125
0.0294285
-0.083083
0.0278341
-0.0806938
0.0263052
-0.0783404
0.0248299
-0.0760191
0.0234164
-0.0737428
0.022054
-0.071504
0.0207438
-0.0693
0.019485
-0.0671425
0.0182824
-0.0650288
0.017121
-0.0629509
0.0160106
-0.0609157
0.0149413
-0.0589246
0.0139127
-0.0569697
0.0129295
-0.0550622
0.0119821
-0.0531892
0.011075
-0.0513615
0.0102032
-0.0495709
0.00937119
-0.0478329
0.0085742
-0.0461249
0.00780716
-0.0444575
0.00707018
-0.0428317
0.00225294
-0.145939
0.0983257
-0.143846
0.0941507
-0.141693
0.0901318
-0.139456
0.0862536
-0.137152
0.0825242
-0.134784
0.078941
-0.132361
0.0754821
-0.129895
0.07216
-0.12739
0.06896
-0.124856
0.0658836
-0.122299
0.0629196
-0.119725
0.0600757
-0.117138
0.0573319
-0.114541
0.0546886
-0.11194
0.0521531
-0.109348
0.0497105
-0.106763
0.0473622
-0.104183
0.0451019
-0.10162
0.0429271
-0.0990719
0.0408367
-0.096547
0.0388294
-0.0940441
0.0368905
-0.0915576
0.0350284
-0.0891094
0.0332381
-0.0866827
0.0315211
-0.0842923
0.0298648
-0.0819264
0.0282719
-0.079602
0.0267422
-0.077307
0.0252718
-0.0750477
0.0238585
-0.0728245
0.022498
-0.0706436
0.0211936
-0.0684964
0.0199401
-0.0663904
0.0187328
-0.0643181
0.0175717
-0.0622911
0.0164612
-0.0602967
0.0153916
-0.0583509
0.0143675
-0.0564363
0.0133793
-0.0545637
0.012431
-0.052735
0.0115279
-0.0509417
0.0106551
-0.0491898
0.00982212
-0.0474761
0.00901437
-0.0457968
0.00824611
-0.0441625
0.00751224
-0.0425695
0.00680797
-0.0410047
0.00225168
-0.141729
0.0984606
-0.139821
0.0943001
-0.137836
0.0902938
-0.135773
0.0864481
-0.133635
0.0827372
-0.131419
0.079159
-0.129148
0.0757272
-0.12683
0.0724174
-0.124468
0.0692372
-0.122069
0.0661729
-0.119638
0.0632224
-0.117187
0.0603817
-0.114715
0.0576526
-0.112233
0.0550236
-0.109745
0.0524938
-0.107257
0.0500619
-0.104774
0.0477215
-0.10229
0.0454692
-0.0998195
0.0433013
-0.0973588
0.0412139
-0.0949198
0.0392095
-0.0924981
0.0372833
-0.0900948
0.0354277
-0.0877214
0.0336404
-0.0853707
0.0319262
-0.083044
0.0302727
-0.0807526
0.028691
-0.0784903
0.0271602
-0.0762574
0.0256926
-0.0740579
0.024282
-0.071893
0.022927
-0.0697675
0.021622
-0.0676721
0.0203694
-0.0656128
0.0191625
-0.0635916
0.0180063
-0.0616103
0.0168909
-0.0596614
0.0158259
-0.0577559
0.0147966
-0.0558812
0.0138124
-0.054053
0.0128686
-0.0522589
0.0119549
-0.0504997
0.0110859
-0.0487866
0.0102519
-0.0471016
0.0094477
-0.0454604
0.00867795
-0.043859
0.00794258
-0.0422893
0.00723203
-0.0407521
0.00655542
-0.0392626
0.0022549
-0.137488
0.0985606
-0.135772
0.0944122
-0.133975
0.0904384
-0.132077
0.0865977
-0.130095
0.082908
-0.12804
0.0793582
-0.125924
0.0759351
-0.123748
0.0726451
-0.12152
0.0694695
-0.11925
0.0664187
-0.116954
0.0634889
-0.114626
0.0606616
-0.112275
0.057942
-0.109905
0.0553251
-0.107531
0.0528096
-0.10515
0.0503869
-0.102759
0.0480474
-0.100377
0.0458093
-0.0979982
0.0436479
-0.0956285
0.0415711
-0.0932805
0.0395746
-0.0909385
0.03765
-0.0886163
0.0358048
-0.0863177
0.0340239
-0.0840403
0.03231
-0.081782
0.0306642
-0.079559
0.0290791
-0.0773566
0.0275574
-0.0751871
0.0260899
-0.0730496
0.0246843
-0.0709391
0.0233281
-0.0688672
0.0220267
-0.0668232
0.020773
-0.0648195
0.0195761
-0.062849
0.01842
-0.0609135
0.0173095
-0.0590099
0.0162394
-0.0571443
0.0152144
-0.0553144
0.0142298
-0.0535257
0.0132851
-0.0517657
0.0123754
-0.0500454
0.0115006
-0.0483613
0.0106606
-0.0467144
0.00986465
-0.0451063
0.0090936
-0.043533
0.00835197
-0.0419864
0.00763972
-0.0404862
0.00696611
-0.0390194
0.00631215
-0.0375819
0.00225336
-0.133266
0.0986156
-0.131722
0.0945103
-0.130104
0.090542
-0.128368
0.0867298
-0.126551
0.0830537
-0.124651
0.0795188
-0.12268
0.0761142
-0.120649
0.0728364
-0.11856
0.0696856
-0.116431
0.0666507
-0.114262
0.0637267
-0.112049
0.0609116
-0.109821
0.0582077
-0.107563
0.0556001
-0.105296
0.0530904
-0.103019
0.0506785
-0.100734
0.0483616
-0.098448
0.046118
-0.0961613
0.0439723
-0.0938874
0.0419069
-0.0916192
0.0399098
-0.089357
0.037993
-0.0871144
0.0361481
-0.0848892
0.0343764
-0.0826866
0.0326702
-0.0805029
0.0310309
-0.0783421
0.0294473
-0.076208
0.0279306
-0.0741041
0.0264744
-0.0720238
0.025064
-0.0699717
0.0237168
-0.0679567
0.0224177
-0.0659677
0.0211711
-0.0640108
0.0199643
-0.062086
0.018813
-0.0601958
0.0177023
-0.058337
0.0166367
-0.0565165
0.0156115
-0.0547259
0.014626
-0.0529764
0.0136805
-0.0512555
0.0127749
-0.0495739
0.011904
-0.0479233
0.0110626
-0.0463097
0.0102559
-0.0447299
0.00948826
-0.0431846
0.00874519
-0.0416751
0.00804069
-0.0402024
0.00735587
-0.0387532
0.00669999
-0.0373473
0.00607762
-0.0359762
0.0022564
-0.12902
0.0986505
-0.12767
0.0945637
-0.126211
0.090617
-0.12465
0.0868246
-0.122995
0.0831734
-0.121254
0.0796571
-0.119432
0.076271
-0.117545
0.0730104
-0.115595
0.0698718
-0.113595
0.066849
-0.11155
0.0639385
-0.109465
0.0611428
-0.107353
0.0584433
-0.105208
0.0558528
-0.103055
0.0533588
-0.100883
0.0509548
-0.0986944
0.0486388
-0.0965008
0.0464144
-0.0943135
0.0442703
-0.0921244
0.0422093
-0.089936
0.0402236
-0.0877633
0.0383161
-0.0856004
0.036479
-0.0834549
0.0347138
-0.0813208
0.0330105
-0.0792104
0.0313777
-0.0771166
0.0298054
-0.0750495
0.0282888
-0.0730041
0.0268306
-0.0709809
0.0254315
-0.0689907
0.0240831
-0.0670252
0.0227854
-0.0650883
0.0215383
-0.0631813
0.0203416
-0.0613072
0.0191855
-0.0594622
0.0180794
-0.0576483
0.0170136
-0.0558723
0.0159925
-0.0541258
0.0150114
-0.0524108
0.0140603
-0.0507286
0.0131536
-0.0490807
0.0122816
-0.0474681
0.0114488
-0.045888
0.0106408
-0.0443408
0.00986683
-0.0428233
0.00912698
-0.0413461
0.00841618
-0.0398959
0.00773426
-0.0384785
0.00708114
-0.0371041
0.00645672
-0.0357502
0.00585158
-0.0344316
0.0022548
-0.124776
0.0986539
-0.123592
0.0945722
-0.122312
0.0906647
-0.120927
0.0868935
-0.119429
0.0832594
-0.117844
0.079763
-0.11617
0.0763955
-0.114421
0.0731471
-0.112611
0.0700256
-0.110748
0.0670249
-0.10883
0.0641289
-0.106867
0.0613404
-0.104868
0.058658
-0.102842
0.0560769
-0.100793
0.0535909
-0.0987222
0.0511977
-0.0966342
0.0488946
-0.0945464
0.0466844
-0.0924488
0.0445496
-0.0903457
0.0424916
-0.0882468
0.0405201
-0.0861602
0.0386205
-0.0840757
0.0367913
-0.0820035
0.0350276
-0.0799414
0.0333344
-0.0778981
0.0316982
-0.0758678
0.0301289
-0.0738677
0.0286236
-0.0718843
0.027169
-0.0699218
0.0257715
-0.0679874
0.0244281
-0.066074
0.0231319
-0.0641927
0.0218898
-0.0623363
0.0206933
-0.060508
0.0195425
-0.0587129
0.0184361
-0.0569436
0.0173747
-0.0552117
0.016353
-0.0535045
0.0153712
-0.0518285
0.0144291
-0.0501897
0.0135214
-0.0485753
0.0126483
-0.046996
0.0118095
-0.0454486
0.0110095
-0.0439341
0.0102342
-0.0424493
0.00949279
-0.0409995
0.00878034
-0.0395765
0.00809672
-0.0381906
0.00744639
-0.0368382
0.00681528
-0.0355106
0.00621716
-0.0342181
0.00563814
-0.0329569
0.00225761
-0.12052
0.098619
-0.119526
0.0945874
-0.118425
0.090685
-0.117195
0.0869323
-0.115855
0.0833194
-0.114423
0.0798389
-0.112897
0.0764899
-0.111292
0.0732663
-0.109624
0.0701607
-0.107888
0.067166
-0.106092
0.0642871
-0.104258
0.0615206
-0.10238
0.0588526
-0.100465
0.056281
-0.0985215
0.0538057
-0.0965581
0.0514268
-0.0945709
0.0491344
-0.0925777
0.0469259
-0.0905648
0.0448005
-0.0885563
0.0427602
-0.086547
0.0407918
-0.0845324
0.0388924
-0.0825263
0.0370711
-0.0805262
0.035314
-0.0785437
0.0336299
-0.0765688
0.0320051
-0.0746104
0.0304409
-0.072671
0.0289323
-0.0707463
0.0274855
-0.0688457
0.026093
-0.0669719
0.024756
-0.0651142
0.0234683
-0.0632872