/*--------------------------------*- C++ -*----------------------------------*\
  =========                 |
  \\      /  F ield         | OpenFOAM: The Open Source CFD Toolbox
   \\    /   O peration     | Website:  https://openfoam.org
    \\  /    A nd           | Version:  7
     \\/     M anipulation  |
\*---------------------------------------------------------------------------*/
FoamFile
{
    version     2.0;
    format      ascii;
    class       volVectorField;
    location    "1800";
    object      U;
}
// * * * * * * * * * * * * * * * * * * * * * * * * * * * * * * * * * * * * * //

dimensions      [0 1 -1 0 0 0 0];

internalField   nonuniform List<vector> 
23052
(
(49.5453 12.9168 -3.17708e-17)
(49.5804 12.9413 0)
(49.6396 13.1081 1.30099e-17)
(49.6055 12.9672 0)
(49.6315 13.1053 5.17746e-17)
(49.5993 13.1043 6.90421e-18)
(49.6205 12.993 1.35385e-17)
(49.6296 13.1078 5.98496e-19)
(49.6112 13.1161 -7.32552e-18)
(49.6076 13.0966 2.34377e-17)
(49.6306 13.0176 9.67348e-17)
(49.632 13.1139 -8.01489e-17)
(49.619 13.1264 -1.44768e-17)
(49.6069 13.1041 1.5521e-17)
(49.5942 13.1022 8.30679e-18)
(49.583 13.0932 9.00605e-18)
(49.6375 13.0404 -2.24972e-18)
(49.6354 13.122 0)
(49.6244 13.1362 -9.63406e-17)
(49.6079 13.1128 1.50813e-17)
(49.5954 13.111 2.47451e-17)
(49.5805 13.1021 2.65848e-17)
(49.5604 13.089 -2.30007e-18)
(49.5409 13.081 0)
(49.6424 13.0617 1.79802e-17)
(49.6388 13.1312 1.30366e-16)
(49.6285 13.1459 1.09906e-16)
(49.6098 13.1223 -6.15914e-17)
(49.5962 13.1197 -1.31915e-16)
(49.5796 13.1114 -7.10449e-17)
(49.5597 13.0991 9.46553e-18)
(49.5397 13.0866 -2.56023e-18)
(49.5143 13.0765 1.53971e-21)
(49.646 13.0812 -1.32215e-16)
(49.6418 13.1408 -1.30249e-16)
(49.6318 13.1555 -5.53867e-17)
(49.6118 13.1322 4.60131e-17)
(49.5969 13.1286 -1.63997e-17)
(49.5792 13.1208 5.33774e-17)
(49.5589 13.1091 -9.7192e-18)
(49.5375 13.0969 0)
(49.5134 13.0825 0)
(49.487 13.0723 0)
(49.6489 13.0993 1.97613e-17)
(49.6443 13.1506 0)
(49.6346 13.1651 2.70549e-17)
(49.6138 13.1422 2.94039e-17)
(49.5976 13.1376 -4.87361e-17)
(49.5791 13.1303 -5.28373e-17)
(49.5581 13.119 -9.47269e-17)
(49.536 13.1073 -2.04727e-17)
(49.5115 13.0936 0)
(49.4858 13.0785 -2.40648e-17)
(49.4566 13.0675 -2.90927e-20)
(49.6512 13.1159 -2.56609e-16)
(49.6463 13.1603 0)
(49.637 13.1746 0)
(49.6156 13.1522 -1.20699e-16)
(49.5983 13.1468 1.46693e-16)
(49.5791 13.1398 8.78821e-17)
(49.5575 13.1289 7.5876e-17)
(49.5346 13.1176 -4.07129e-17)
(49.5098 13.1046 -1.08935e-17)
(49.4834 13.0901 3.61803e-17)
(49.4554 13.0742 -2.92534e-17)
(49.4245 13.0627 2.64641e-20)
(49.6533 13.1313 2.06429e-16)
(49.648 13.1698 0)
(49.639 13.1838 -1.85523e-16)
(49.6172 13.1621 9.02196e-17)
(49.5991 13.1561 0)
(49.5793 13.1493 1.21749e-16)
(49.557 13.1388 -1.85384e-17)
(49.5336 13.1279 8.15527e-17)
(49.5084 13.1155 0)
(49.4816 13.1016 5.97275e-17)
(49.4531 13.0864 1.31562e-17)
(49.4233 13.0697 7.01144e-18)
(49.3904 13.0578 0)
(49.6551 13.1456 -3.98165e-17)
(49.6494 13.179 5.55408e-17)
(49.6407 13.1928 -2.67018e-17)
(49.6186 13.1719 -2.89199e-17)
(49.5998 13.1653 3.17914e-17)
(49.5795 13.1588 -6.34693e-19)
(49.5567 13.1487 1.49673e-16)
(49.5327 13.1381 -2.05993e-17)
(49.5071 13.1263 -8.74674e-17)
(49.4799 13.1131 -1.51978e-19)
(49.4511 13.0985 5.17349e-17)
(49.4208 13.0825 0)
(49.3891 13.0652 -3.717e-18)
(49.3546 13.0529 0)
(49.6569 13.1587 -2.51998e-16)
(49.6506 13.1878 0)
(49.6421 13.2015 1.85423e-16)
(49.6199 13.1815 2.88095e-17)
(49.6004 13.1745 0)
(49.5797 13.1682 -2.76005e-16)
(49.5565 13.1585 -1.49665e-16)
(49.532 13.1483 2.05069e-17)
(49.506 13.1371 1.08832e-16)
(49.4784 13.1244 -7.12797e-17)
(49.4493 13.1105 -1.69162e-19)
(49.4187 13.0952 -6.89417e-17)
(49.3866 13.0786 7.65197e-18)
(49.3533 13.0606 2.04551e-17)
(49.317 13.048 -3.94966e-20)
(49.6586 13.1709 -4.81709e-17)
(49.6516 13.1963 -5.14303e-17)
(49.6434 13.2099 2.74734e-17)
(49.621 13.1908 5.88527e-17)
(49.6011 13.1836 0)
(49.5799 13.1775 6.80406e-19)
(49.5563 13.1682 0)
(49.5314 13.1585 -1.60277e-16)
(49.505 13.1477 -8.59128e-17)
(49.4771 13.1357 2.38913e-17)
(49.4477 13.1224 -1.40366e-16)
(49.4168 13.1078 1.24232e-16)
(49.3845 13.0919 4.44588e-17)
(49.3507 13.0747 -1.59598e-17)
(49.3158 13.0561 -8.82159e-18)
(49.2779 13.0431 4.37794e-20)
(49.6602 13.1822 2.51831e-16)
(49.6525 13.2045 2.11926e-16)
(49.6445 13.218 5.35858e-17)
(49.622 13.2 -2.86272e-17)
(49.6016 13.1926 -3.14125e-17)
(49.5802 13.1867 1.72108e-16)
(49.5563 13.1779 -3.76342e-17)
(49.531 13.1685 7.58735e-19)
(49.5042 13.1583 1.08578e-16)
(49.476 13.1468 7.02755e-17)
(49.4463 13.1341 7.64999e-17)
(49.4151 13.1203 -4.14383e-17)
(49.3825 13.1051 -1.18375e-16)
(49.3485 13.0886 7.64726e-18)
(49.3131 13.0708 -8.61135e-18)
(49.2766 13.0516 4.67942e-18)
(49.2372 13.0383 -4.61039e-20)
(49.6618 13.1928 -2.08474e-16)
(49.6533 13.2123 -2.09065e-16)
(49.6454 13.2257 1.0833e-16)
(49.6229 13.2088 -2.99598e-17)
(49.6022 13.2014 2.53543e-16)
(49.5805 13.1958 1.36097e-16)
(49.5563 13.1874 -2.20898e-16)
(49.5306 13.1784 1.98917e-16)
(49.5036 13.1687 -1.71681e-16)
(49.475 13.1578 -1.3985e-16)
(49.445 13.1458 2.56264e-17)
(49.4136 13.1326 -8.11114e-17)
(49.3808 13.1181 7.4299e-17)
(49.3466 13.1024 -1.57731e-17)
(49.311 13.0854 2.63005e-17)
(49.274 13.067 0)
(49.2358 13.0472 1.53032e-17)
(49.1948 13.0335 5.11053e-20)
(49.6635 13.2026 2.59352e-16)
(49.6541 13.2198 0)
(49.6463 13.2331 5.46443e-17)
(49.6238 13.2173 -2.61716e-16)
(49.6027 13.21 -2.55146e-16)
(49.5808 13.2047 -1.70967e-16)
(49.5563 13.1968 2.93873e-16)
(49.5304 13.1883 -1.26478e-18)
(49.5031 13.1791 8.74227e-19)
(49.4742 13.1688 0)
(49.444 13.1574 2.46719e-17)
(49.4123 13.1448 8.21084e-17)
(49.3793 13.1311 -4.39148e-17)
(49.3448 13.1161 -6.31292e-17)
(49.309 13.0998 0)
(49.2718 13.0822 -1.01796e-19)
(49.2332 13.0633 -1.00619e-17)
(49.1935 13.0429 5.6939e-18)
(49.151 13.0289 -5.38616e-20)
(49.6651 13.2118 -3.22379e-16)
(49.6548 13.2269 1.54552e-16)
(49.6471 13.2402 0)
(49.6246 13.2256 4.12372e-16)
(49.6032 13.2185 -3.11501e-17)
(49.5811 13.2135 6.7965e-17)
(49.5564 13.206 3.51979e-17)
(49.5302 13.198 0)
(49.5027 13.1893 2.13278e-16)
(49.4736 13.1796 -1.84107e-16)
(49.4431 13.1688 0)
(49.4112 13.1569 -1.07826e-16)
(49.3779 13.1439 0)
(49.3433 13.1296 9.5392e-17)
(49.3072 13.1141 3.42714e-17)
(49.2698 13.0973 -1.12129e-16)
(49.2311 13.0792 7.08948e-17)
(49.1909 13.0596 -2.185e-17)
(49.1497 13.0386 -2.9942e-17)
(49.1055 13.0243 -2.09547e-21)
(49.6667 13.2203 4.56726e-16)
(49.6556 13.2337 -2.13191e-16)
(49.6478 13.247 0)
(49.6253 13.2335 5.80909e-17)
(49.6037 13.2267 0)
(49.5814 13.2221 -3.43792e-17)
(49.5565 13.2151 -1.45275e-16)
(49.5301 13.2075 1.57135e-16)
(49.5024 13.1994 0)
(49.4731 13.1903 1.84376e-16)
(49.4424 13.1801 0)
(49.4103 13.1689 8.04973e-17)
(49.3768 13.1565 -2.96664e-17)
(49.3419 13.143 3.21651e-17)
(49.3057 13.1283 -1.53904e-16)
(49.268 13.1123 1.85906e-17)
(49.2291 13.095 -6.10643e-17)
(49.1888 13.0763 5.50453e-17)
(49.1471 13.0561 -2.0806e-19)
(49.1042 13.0345 1.96342e-17)
(49.0585 13.0198 1.23639e-19)
(49.6683 13.2282 -3.68589e-16)
(49.6564 13.2402 -4.71293e-16)
(49.6485 13.2535 -2.6508e-16)
(49.626 13.2412 -1.46552e-18)
(49.6042 13.2347 -3.01257e-17)
(49.5818 13.2305 0)
(49.5567 13.2241 7.28286e-17)
(49.5302 13.217 -1.96244e-16)
(49.5022 13.2094 0)
(49.4727 13.2008 0)
(49.4418 13.1913 -1.97504e-16)
(49.4095 13.1807 2.7265e-17)
(49.3758 13.1691 -8.7201e-17)
(49.3408 13.1563 6.29344e-17)
(49.3043 13.1423 3.48167e-17)
(49.2665 13.1271 9.30044e-17)
(49.2273 13.1106 0)
(49.1868 13.0927 -2.22882e-17)
(49.1449 13.0735 4.7382e-17)
(49.1016 13.0528 1.26876e-17)
(49.0572 13.0305 -1.38115e-17)
(49.0099 13.0154 6.63882e-21)
(49.67 13.2357 4.12669e-16)
(49.6572 13.2464 8.93838e-16)
(49.6492 13.2597 3.33539e-19)
(49.6268 13.2486 -2.34121e-16)
(49.6047 13.2425 2.82587e-16)
(49.5821 13.2387 2.00985e-16)
(49.557 13.2328 0)
(49.5302 13.2263 1.17536e-16)
(49.5021 13.2192 0)
(49.4725 13.2112 1.35525e-16)
(49.4414 13.2023 3.94585e-16)
(49.4089 13.1924 0)
(49.375 13.1815 8.74349e-17)
(49.3398 13.1694 0)
(49.3032 13.1562 -1.6875e-16)
(49.2652 13.1418 0)
(49.2258 13.1261 -1.96434e-17)
(49.1851 13.1091 0)
(49.143 13.0907 -5.93021e-17)
(49.0995 13.0709 -1.30763e-17)
(49.0546 13.0495 0)
(49.0086 13.0266 -7.74896e-18)
(48.9597 13.0111 -7.09485e-20)
(49.6716 13.2426 7.85202e-18)
(49.658 13.2524 -8.43358e-16)
(49.6498 13.2656 1.58716e-16)
(49.6275 13.2557 5.67941e-17)
(49.6052 13.25 -2.51945e-16)
(49.5825 13.2468 -3.02833e-16)
(49.5573 13.2414 -2.52899e-16)
(49.5304 13.2354 -3.12307e-16)
(49.5021 13.2289 0)
(49.4723 13.2215 -1.82469e-16)
(49.4411 13.2132 -3.44767e-16)
(49.4085 13.204 2.11976e-16)
(49.3744 13.1937 0)
(49.339 13.1824 1.24291e-16)
(49.3022 13.1699 1.69851e-16)
(49.2641 13.1563 0)
(49.2245 13.1414 7.93257e-17)
(49.1836 13.1252 1.08154e-16)
(49.1413 13.1077 2.39062e-17)
(49.0976 13.0888 1.25326e-17)
(49.0526 13.0684 -5.08096e-19)
(49.006 13.0464 0)
(48.9584 13.0229 -1.6721e-17)
(48.9078 13.007 -7.96162e-20)
(49.6733 13.2491 4.48004e-16)
(49.6589 13.258 4.20906e-16)
(49.6505 13.2713 -2.6628e-16)
(49.6282 13.2625 0)
(49.6057 13.2574 6.34937e-17)
(49.583 13.2546 3.40659e-17)
(49.5577 13.2498 2.89863e-16)
(49.5306 13.2444 4.26996e-16)
(49.5022 13.2384 0)
(49.4723 13.2317 -1.80674e-16)
(49.4409 13.224 1.96516e-16)
(49.4082 13.2154 -2.82727e-17)
(49.374 13.2059 0)
(49.3384 13.1952 -1.24478e-16)
(49.3015 13.1835 0)
(49.2632 13.1707 -3.58555e-17)
(49.2235 13.1566 -5.91761e-17)
(49.1823 13.1413 -8.61168e-17)
(49.1399 13.1246 -2.2931e-17)
(49.096 13.1066 -8.84487e-17)
(49.0507 13.0871 0)
(49.004 13.0661 1.47416e-17)
(48.9558 13.0435 1.63633e-17)
(48.9065 13.0192 1.7807e-17)
(48.8541 13.0029 -3.13081e-21)
(49.675 13.2552 4.52122e-17)
(49.6598 13.2634 0)
(49.6511 13.2767 5.2861e-16)
(49.6289 13.2691 5.67745e-17)
(49.6063 13.2645 0)
(49.5834 13.2622 1.66694e-16)
(49.5581 13.2581 -7.21152e-17)
(49.5309 13.2532 -3.11768e-16)
(49.5024 13.2478 4.12409e-17)
(49.4724 13.2417 3.61415e-16)
(49.4409 13.2346 0)
(49.408 13.2267 -2.38602e-16)
(49.3737 13.2179 -1.99541e-16)
(49.338 13.208 0)
(49.3009 13.197 -3.40981e-17)
(49.2625 13.1849 0)
(49.2226 13.1716 0)
(49.1813 13.1571 6.42525e-17)
(49.1386 13.1413 9.26071e-17)
(49.0946 13.1242 1.51193e-16)
(49.049 13.1056 2.7443e-17)
(49.0021 13.0856 0)
(48.9538 13.064 -1.65411e-17)
(48.9039 13.0407 -4.42763e-17)
(48.8528 13.0157 -9.45475e-18)
(48.7988 12.9989 -3.38896e-21)
(49.6766 13.2608 -8.04466e-16)
(49.6607 13.2686 -5.41602e-17)
(49.6518 13.2819 -2.47514e-18)
(49.6297 13.2754 3.47287e-16)
(49.6069 13.2714 0)
(49.5839 13.2696 -2.34414e-16)
(49.5585 13.2661 3.21931e-16)
(49.5313 13.2618 3.46862e-16)
(49.5027 13.2571 0)
(49.4726 13.2515 -1.80826e-16)
(49.441 13.2451 -2.43395e-16)
(49.408 13.2379 5.35072e-17)
(49.3736 13.2297 2.56265e-16)
(49.3378 13.2205 3.13429e-17)
(49.3006 13.2103 3.3958e-17)
(49.262 13.199 7.23596e-17)
(49.2219 13.1865 1.16423e-16)
(49.1805 13.1729 -2.33337e-16)
(49.1377 13.1579 -1.61217e-16)
(49.0934 13.1417 -4.98299e-19)
(49.0477 13.124 0)
(49.0005 13.1049 4.45973e-17)
(48.9519 13.0843 -8.08098e-17)
(48.9019 13.062 5.24219e-17)
(48.8503 13.038 -2.8768e-17)
(48.7975 13.0123 -1.57017e-17)
(48.7416 12.995 1.97793e-19)
(49.6782 13.2661 4.64842e-18)
(49.6617 13.2735 3.68045e-16)
(49.6525 13.2868 -8.52335e-16)
(49.6304 13.2815 -2.33064e-16)
(49.6076 13.2781 1.87396e-16)
(49.5845 13.2769 0)
(49.559 13.274 -3.59934e-16)
(49.5318 13.2703 -2.41402e-18)
(49.5031 13.2661 0)
(49.4729 13.2612 0)
(49.4412 13.2555 2.44042e-16)
(49.4081 13.2489 5.15904e-17)
(49.3736 13.2414 1.70154e-16)
(49.3377 13.233 3.1226e-17)
(49.3004 13.2235 1.15097e-18)
(49.2616 13.213 -3.54002e-17)
(49.2215 13.2013 -3.93151e-17)
(49.1799 13.1884 6.41768e-17)
(49.1369 13.1744 6.95945e-17)
(49.0925 13.159 -1.24635e-16)
(49.0466 13.1422 -8.05711e-17)
(48.9992 13.1241 -5.9105e-17)
(48.9504 13.1044 4.79308e-17)
(48.9001 13.0831 -5.24894e-17)
(48.8483 13.0602 3.80551e-17)
(48.7949 13.0355 1.03598e-17)
(48.7403 13.009 5.53405e-18)
(48.6825 12.9912 -2.13926e-19)
(49.6799 13.2711 4.06156e-16)
(49.6627 13.2782 -4.25519e-16)
(49.6532 13.2916 5.73139e-17)
(49.6312 13.2873 -5.89261e-17)
(49.6082 13.2846 -1.8747e-16)
(49.5851 13.2839 6.76458e-17)
(49.5596 13.2817 0)
(49.5323 13.2786 -5.3971e-16)
(49.5036 13.275 0)
(49.4733 13.2708 -1.32907e-16)
(49.4416 13.2657 -4.91816e-17)
(49.4084 13.2598 -5.14276e-17)
(49.3738 13.253 -4.80671e-16)
(49.3378 13.2453 0)
(49.3004 13.2365 -3.25526e-17)
(49.2615 13.2268 -3.52627e-17)
(49.2212 13.2159 -1.55974e-16)
(49.1795 13.2039 1.69162e-16)
(49.1364 13.1906 -2.24882e-17)
(49.0918 13.1761 2.53133e-17)
(49.0457 13.1603 2.43374e-16)
(48.9982 13.1431 5.82988e-17)
(48.9491 13.1244 6.36159e-17)
(48.8986 13.1041 1.73442e-16)
(48.8465 13.0822 -5.60843e-17)
(48.7929 13.0586 0)
(48.7377 13.0332 0)
(48.6812 13.0059 -1.21694e-17)
(48.6216 12.9875 -1.18507e-19)
(49.6815 13.2757 3.50844e-16)
(49.6637 13.2827 0)
(49.654 13.2961 4.28694e-16)
(49.632 13.2929 -5.18525e-16)
(49.6089 13.2909 -1.65385e-18)
(49.5857 13.2908 1.70156e-18)
(49.5602 13.2892 -1.06843e-16)
(49.5329 13.2867 4.16738e-17)
(49.5041 13.2838 -8.29425e-17)
(49.4738 13.2802 5.80739e-16)
(49.4421 13.2757 9.55699e-17)
(49.4088 13.2705 5.12733e-17)
(49.3742 13.2644 2.26085e-16)
(49.3381 13.2574 6.09767e-17)
(49.3005 13.2494 0)
(49.2616 13.2404 3.63788e-17)
(49.2212 13.2304 3.94377e-17)
(49.1794 13.2192 0)
(49.1361 13.2068 0)
(49.0913 13.1932 -1.23818e-16)
(49.0451 13.1782 -2.41227e-16)
(48.9974 13.1619 -2.91829e-16)
(48.9481 13.1442 -1.58962e-16)
(48.8973 13.1249 -3.32451e-19)
(48.845 13.1041 5.6776e-17)
(48.7912 13.0815 7.55161e-19)
(48.7357 13.0572 0)
(48.6787 13.031 -2.12234e-19)
(48.6202 13.0028 0)
(48.5586 12.9838 -9.27853e-21)
(49.6831 13.28 3.83223e-17)
(49.6648 13.287 -3.68843e-16)
(49.6547 13.3004 5.45314e-17)
(49.6329 13.2983 4.65396e-16)
(49.6097 13.297 3.11102e-16)
(49.5864 13.2974 -1.31609e-16)
(49.5609 13.2965 -7.04219e-17)
(49.5336 13.2947 4.05341e-17)
(49.5048 13.2924 -8.27528e-17)
(49.4745 13.2894 -6.69033e-16)
(49.4426 13.2856 -9.78539e-17)
(49.4093 13.2811 5.11272e-17)
(49.3746 13.2757 0)
(49.3385 13.2694 3.09038e-17)
(49.3009 13.2622 -2.94239e-16)
(49.2618 13.254 -3.62467e-17)
(49.2214 13.2447 1.55112e-16)
(49.1794 13.2343 -2.07845e-16)
(49.136 13.2228 -2.27109e-16)
(49.0911 13.21 9.87774e-17)
(49.0447 13.196 1.33506e-16)
(48.9968 13.1806 1.16469e-16)
(48.9474 13.1638 1.57559e-16)
(48.8964 13.1456 -1.54694e-16)
(48.8438 13.1257 7.44341e-17)
(48.7897 13.1043 0)
(48.734 13.081 4.49008e-17)
(48.6767 13.056 -6.02659e-17)
(48.6177 13.0289 1.28695e-17)
(48.5573 12.9999 -1.42503e-17)
(48.4936 12.9802 2.65655e-19)
(49.6847 13.2841 -4.03653e-16)
(49.6658 13.2911 4.2664e-16)
(49.6555 13.3046 -4.26549e-16)
(49.6337 13.3035 -1.15637e-16)
(49.6105 13.3029 -1.87126e-16)
(49.5872 13.3039 2.01149e-16)
(49.5617 13.3037 -7.03213e-17)
(49.5343 13.3025 2.77526e-18)
(49.5055 13.3008 3.28508e-16)
(49.4752 13.2985 7.54982e-16)
(49.4433 13.2954 -2.41417e-16)
(49.41 13.2915 -1.55279e-16)
(49.3752 13.2868 0)
(49.339 13.2813 -3.08053e-17)
(49.3014 13.2748 2.30809e-16)
(49.2623 13.2673 2.82675e-16)
(49.2217 13.2589 -1.16481e-16)
(49.1796 13.2493 2.6376e-18)
(49.1361 13.2386 1.81343e-16)
(49.0911 13.2267 4.81929e-17)
(49.0446 13.2136 0)
(48.9965 13.1992 1.44724e-16)
(48.9469 13.1833 0)
(48.8957 13.1661 6.84399e-17)
(48.8429 13.1472 3.6763e-17)
(48.7886 13.1268 8.05253e-17)
(48.7326 13.1047 -1.54028e-16)
(48.6749 13.0807 2.44264e-17)
(48.6157 13.0549 -4.82421e-19)
(48.5547 13.027 2.86556e-17)
(48.4922 12.997 -7.87496e-18)
(48.4265 12.9767 0)
(49.6862 13.2879 0)
(49.6669 13.295 0)
(49.6563 13.3086 4.3047e-16)
(49.6346 13.3085 0)
(49.6113 13.3086 1.24198e-16)
(49.588 13.3102 -6.56593e-17)
(49.5625 13.3106 -3.61146e-17)
(49.5352 13.3101 2.87034e-18)
(49.5063 13.3091 -6.16748e-16)
(49.476 13.3074 -3.2351e-18)
(49.4441 13.305 4.86428e-17)
(49.4108 13.3018 5.26532e-17)
(49.376 13.2978 -2.22255e-16)
(49.3397 13.293 -3.07101e-17)
(49.302 13.2873 2.92245e-16)
(49.2629 13.2806 -5.65568e-16)
(49.2222 13.2729 -3.90053e-17)
(49.1801 13.2641 2.08916e-16)
(49.1365 13.2543 1.61241e-18)
(49.0913 13.2433 -2.48813e-17)
(49.0446 13.2311 2.70076e-17)
(48.9964 13.2175 -1.15457e-16)
(48.9466 13.2027 1.14515e-18)
(48.8953 13.1864 -1.7009e-16)
(48.8423 13.1686 -7.40349e-17)
(48.7877 13.1492 -1.80292e-16)
(48.7315 13.1281 8.75503e-17)
(48.6736 13.1053 2.33408e-17)
(48.614 13.0806 1.31831e-17)
(48.5527 13.054 7.0046e-17)
(48.4896 13.0252 -1.5071e-17)
(48.4251 12.9943 8.21218e-18)
(48.3571 12.9733 0)
(49.6877 13.2914 4.46235e-16)
(49.6681 13.2987 -5.22872e-17)
(49.6571 13.3125 -4.27276e-16)
(49.6355 13.3133 0)
(49.6122 13.3141 -6.28502e-17)
(49.5888 13.3163 -6.55892e-17)
(49.5634 13.3174 0)
(49.536 13.3176 3.83371e-16)
(49.5072 13.3172 3.15014e-18)
(49.4769 13.3162 -7.51508e-16)
(49.445 13.3144 0)
(49.4117 13.3119 1.56242e-16)
(49.3769 13.3087 1.66944e-16)
(49.3406 13.3046 0)
(49.3029 13.2996 -5.21849e-16)
(49.2636 13.2937 2.27656e-18)
(49.2229 13.2868 3.88732e-17)
(49.1807 13.2788 2.05495e-16)
(49.137 13.2698 -4.40868e-17)
(49.0918 13.2597 1.75407e-18)
(49.045 13.2484 -2.11414e-16)
(48.9966 13.2358 -2.81589e-17)
(48.9467 13.2219 0)
(48.8951 13.2065 -3.24184e-17)
(48.842 13.1897 -1.10447e-16)
(48.7871 13.1714 4.30135e-19)
(48.7306 13.1514 0)
(48.6725 13.1297 -1.18355e-16)
(48.6126 13.1062 0)
(48.551 13.0807 -1.39957e-16)
(48.4876 13.0532 1.5535e-17)
(48.4224 13.0235 -5.00629e-17)
(48.3557 12.9916 9.22191e-18)
(48.2855 12.9699 3.4868e-19)
(49.6892 13.2947 -4.06873e-16)
(49.6692 13.3023 -1.05931e-16)
(49.6579 13.3161 9.13658e-16)
(49.6365 13.318 -5.86768e-17)
(49.6131 13.3195 -6.27804e-17)
(49.5897 13.3223 3.29014e-16)
(49.5643 13.324 -3.59959e-17)
(49.537 13.3248 0)
(49.5082 13.3251 3.30816e-16)
(49.4779 13.3248 3.54908e-16)
(49.4461 13.3237 0)
(49.4127 13.3219 -2.56792e-16)
(49.3779 13.3194 0)
(49.3416 13.316 5.90395e-17)
(49.3038 13.3117 2.60721e-16)
(49.2646 13.3066 3.16728e-16)
(49.2238 13.3005 0)
(49.1816 13.2934 -2.06063e-16)
(49.1378 13.2852 -1.78079e-16)
(49.0924 13.276 -1.9317e-16)
(49.0455 13.2655 3.69028e-16)
(48.997 13.2538 -1.0405e-18)
(48.9469 13.2409 0)
(48.8952 13.2265 1.69363e-16)
(48.8419 13.2108 1.46709e-16)
(48.7868 13.1935 7.97178e-17)
(48.7301 13.1746 2.20271e-17)
(48.6717 13.154 1.87981e-16)
(48.6115 13.1316 2.51141e-17)
(48.5496 13.1073 2.56852e-19)
(48.4859 13.081 4.57506e-17)
(48.4204 13.0526 -1.60646e-17)
(48.353 13.022 1.76498e-17)
(48.2841 12.989 -9.61831e-18)
(48.2116 12.9665 -3.634e-19)
(49.6907 13.2978 -9.36675e-17)
(49.6704 13.3057 5.2851e-16)
(49.6588 13.3197 -3.77555e-16)
(49.6374 13.3224 4.59782e-16)
(49.6141 13.3246 6.11811e-17)
(49.5907 13.3281 -2.00498e-16)
(49.5653 13.3305 -7.18839e-17)
(49.538 13.332 -1.09159e-18)
(49.5093 13.3329 0)
(49.479 13.3333 -8.81949e-17)
(49.4472 13.3329 4.82875e-17)
(49.4139 13.3318 4.62121e-16)
(49.3791 13.3299 5.44907e-17)
(49.3428 13.3273 0)
(49.305 13.3238 0)
(49.2657 13.3194 0)
(49.2249 13.3141 0)
(49.1826 13.3078 0)
(49.1387 13.3005 3.56308e-16)
(49.0933 13.2921 1.93927e-16)
(49.0463 13.2825 -2.10345e-16)
(48.9977 13.2718 0)
(48.9475 13.2597 1.53375e-16)
(48.8956 13.2464 -1.33642e-16)
(48.8421 13.2316 -3.57737e-17)
(48.7868 13.2154 -4.03319e-17)
(48.7299 13.1975 2.19203e-17)
(48.6712 13.178 -2.1e-16)
(48.6108 13.1568 0)
(48.5486 13.1337 5.54627e-17)
(48.4845 13.1087 6.00759e-17)
(48.4187 13.0815 -8.14647e-17)
(48.351 13.0522 1.81929e-17)
(48.2813 13.0206 9.90941e-18)
(48.2101 12.9865 0)
(48.1352 12.9632 -4.07722e-19)
(49.6922 13.3007 0)
(49.6716 13.3089 -3.73836e-16)
(49.6597 13.323 3.736e-16)
(49.6384 13.3267 -4.64549e-16)
(49.6151 13.3296 -4.93138e-16)
(49.5917 13.3337 0)
(49.5664 13.3368 7.17892e-17)
(49.5391 13.3389 4.15819e-16)
(49.5104 13.3406 -2.8472e-16)
(49.4802 13.3416 0)
(49.4484 13.3419 -1.4905e-18)
(49.4151 13.3414 -2.5588e-16)
(49.3804 13.3403 1.81997e-18)
(49.3441 13.3384 1.76808e-16)
(49.3063 13.3356 0)
(49.267 13.332 -2.4253e-16)
(49.2262 13.3275 3.01154e-16)
(49.1838 13.322 1.63148e-16)
(49.1399 13.3156 -1.78302e-16)
(49.0944 13.308 0)
(49.0473 13.2994 -5.3209e-17)
(48.9986 13.2895 -1.96915e-16)
(48.9482 13.2785 -9.20841e-17)
(48.8962 13.2661 9.99615e-17)
(48.8425 13.2523 -1.07604e-16)
(48.7871 13.2371 0)
(48.73 13.2203 -1.28675e-16)
(48.6711 13.2019 1.38731e-18)
(48.6104 13.1819 2.5792e-17)
(48.5479 13.1599 -1.09789e-16)
(48.4835 13.1361 -1.19751e-16)
(48.4173 13.1102 6.53127e-17)
(48.3492 13.0822 1.7423e-17)
(48.2793 13.052 -9.60701e-17)
(48.2073 13.0193 -1.0335e-17)
(48.1336 12.9841 0)
(48.0563 12.9598 8.65673e-19)
(49.6936 13.3034 -4.45735e-17)
(49.6728 13.312 0)
(49.6606 13.3263 -8.06778e-16)
(49.6395 13.3308 -4.59118e-16)
(49.6162 13.3345 4.98295e-16)
(49.5927 13.3392 0)
(49.5675 13.3429 0)
(49.5403 13.3458 -3.41485e-16)
(49.5117 13.348 2.46319e-16)
(49.4815 13.3497 4.45832e-17)
(49.4498 13.3507 0)
(49.4165 13.351 4.56166e-16)
(49.3818 13.3505 0)
(49.3455 13.3494 -5.95266e-16)
(49.3077 13.3474 6.33258e-17)
(49.2684 13.3445 -3.28555e-17)
(49.2276 13.3408 -3.98067e-17)
(49.1852 13.3362 -4.89326e-16)
(49.1412 13.3305 1.76271e-16)
(49.0957 13.3238 1.42243e-16)
(49.0485 13.3161 -5.30311e-17)
(48.9997 13.3071 5.07143e-16)
(48.9492 13.297 -3.01043e-17)
(48.8971 13.2856 -6.65814e-17)
(48.8433 13.2728 3.64572e-17)
(48.7877 13.2586 -3.85422e-17)
(48.7303 13.243 1.05356e-18)
(48.6712 13.2257 1.85292e-16)
(48.6103 13.2067 -2.47357e-17)
(48.5475 13.186 1.92137e-16)
(48.4829 13.1634 5.97112e-17)
(48.4163 13.1388 -6.46414e-17)
(48.3479 13.1121 0)
(48.2775 13.0831 7.69371e-17)
(48.2052 13.0519 0)
(48.1308 13.0181 0)
(48.0546 12.9817 0)
(47.9748 12.9565 -4.66719e-19)
(49.695 13.3059 -3.48148e-16)
(49.674 13.315 0)
(49.6615 13.3294 4.88018e-16)
(49.6405 13.3348 4.07328e-16)
(49.6173 13.3392 -4.29607e-16)
(49.5938 13.3445 6.67994e-17)
(49.5686 13.3489 2.8062e-16)
(49.5416 13.3524 0)
(49.513 13.3554 -4.0145e-17)
(49.4829 13.3577 4.31733e-17)
(49.4512 13.3594 2.80934e-16)
(49.418 13.3604 -4.09314e-16)
(49.3833 13.3606 -2.18623e-16)
(49.3471 13.3602 -5.79902e-17)
(49.3093 13.3589 3.18651e-16)
(49.27 13.3569 2.43794e-16)
(49.2292 13.3539 -2.65188e-16)
(49.1868 13.3501 3.27228e-16)
(49.1428 13.3453 -1.55055e-18)
(49.0972 13.3395 -1.92141e-16)
(49.0499 13.3326 5.09793e-17)
(49.001 13.3246 -1.70668e-16)
(48.9505 13.3154 -2.43313e-16)
(48.8982 13.305 9.82895e-17)
(48.8442 13.2932 -3.16489e-19)
(48.7885 13.2801 -1.5578e-16)
(48.731 13.2654 1.27066e-16)
(48.6716 13.2492 9.13916e-17)
(48.6105 13.2314 -9.99646e-17)
(48.5474 13.2119 -1.09301e-16)
(48.4825 13.1904 0)
(48.4157 13.1671 1.28915e-16)
(48.3469 13.1417 -1.78723e-17)
(48.2761 13.1141 0)
(48.2034 13.0842 0)
(48.1286 13.0519 2.30552e-17)
(48.0517 13.017 -2.45909e-17)
(47.9731 12.9794 -6.84167e-18)
(47.8906 12.9531 0)
(49.6963 13.3083 3.98331e-16)
(49.6752 13.3178 0)
(49.6624 13.3324 -4.83473e-16)
(49.6416 13.3386 -5.69553e-17)
(49.6184 13.3437 9.89267e-16)
(49.595 13.3497 -6.52377e-17)
(49.5699 13.3548 -6.33445e-16)
(49.5429 13.3589 3.00701e-16)
(49.5144 13.3625 3.23106e-16)
(49.4844 13.3656 -4.44037e-17)
(49.4528 13.3679 -4.26652e-16)
(49.4196 13.3696 -3.02333e-16)
(49.385 13.3706 2.76218e-16)
(49.3488 13.3708 1.77863e-16)
(49.3111 13.3704 -4.49227e-16)
(49.2718 13.3691 0)
(49.231 13.3669 3.68733e-17)
(49.1885 13.3639 0)
(49.1445 13.3599 4.32223e-17)
(49.0989 13.355 0)
(49.0516 13.349 0)
(49.0026 13.3419 5.71655e-17)
(48.952 13.3337 2.75406e-16)
(48.8996 13.3242 -4.29465e-16)
(48.8455 13.3134 1.4261e-16)
(48.7896 13.3013 1.54832e-16)
(48.7319 13.2877 4.31058e-17)
(48.6724 13.2727 -1.39209e-16)
(48.611 13.256 1.00141e-16)
(48.5477 13.2376 0)
(48.4825 13.2174 3.00643e-17)
(48.4154 13.1952 -1.92234e-16)
(48.3462 13.1711 -1.77781e-17)
(48.2751 13.1449 1.13694e-16)
(48.202 13.1164 -8.24074e-17)
(48.1268 13.0855 -6.77693e-17)
(48.0495 13.052 1.29535e-17)
(47.9701 13.016 -1.35871e-17)
(47.8888 12.9771 1.45393e-17)
(47.8036 12.9498 0)
(49.6976 13.3105 0)
(49.6764 13.3204 -3.68812e-16)
(49.6634 13.3353 4.34155e-16)
(49.6426 13.3423 -3.4278e-16)
(49.6195 13.3481 -4.97373e-16)
(49.5962 13.3547 -5.89954e-16)
(49.5712 13.3604 2.119e-16)
(49.5443 13.3653 -3.03885e-16)
(49.5158 13.3696 -3.26403e-16)
(49.4859 13.3732 0)
(49.4544 13.3763 4.63072e-17)
(49.4214 13.3787 8.60602e-16)
(49.3868 13.3804 -5.38513e-17)
(49.3506 13.3814 -1.18274e-16)
(49.313 13.3816 5.73813e-16)
(49.2737 13.3811 3.51761e-17)
(49.2329 13.3798 0)
(49.1905 13.3776 0)
(49.1465 13.3744 4.30459e-17)
(49.1008 13.3703 -2.36079e-16)
(49.0535 13.3652 2.05314e-16)
(49.0044 13.3591 -5.69907e-17)
(48.9537 13.3518 -5.96134e-17)
(48.9012 13.3433 2.32029e-16)
(48.847 13.3335 3.51046e-17)
(48.791 13.3224 -1.4346e-18)
(48.7331 13.3099 4.13866e-17)
(48.6734 13.2959 -9.16074e-17)
(48.6118 13.2803 -2.53428e-17)
(48.5483 13.2631 -1.07716e-16)
(48.4828 13.2441 0)
(48.4154 13.2232 1.89773e-18)
(48.346 13.2004 3.53829e-17)
(48.2745 13.1754 1.81615e-17)
(48.201 13.1483 6.21635e-17)
(48.1254 13.1188 4.47961e-17)
(48.0476 13.0869 3.62954e-17)
(47.9678 13.0523 -6.58773e-17)
(47.8857 13.015 8.00455e-20)
(47.8018 12.9748 -1.57307e-17)
(47.7138 12.9463 0)
(49.6989 13.3125 -3.41559e-16)
(49.6776 13.323 8.47493e-16)
(49.6643 13.3381 -1.0922e-16)
(49.6437 13.3458 4.63839e-16)
(49.6207 13.3524 -6.09476e-17)
(49.5974 13.3596 1.05213e-15)
(49.5725 13.366 -2.09881e-16)
(49.5457 13.3715 3.61895e-17)
(49.5174 13.3764 -3.62982e-16)
(49.4876 13.3808 0)
(49.4561 13.3845 3.72895e-16)
(49.4232 13.3876 -4.06875e-16)
(49.3887 13.39 0)
(49.3526 13.3917 0)
(49.315 13.3928 -1.28705e-16)
(49.2758 13.393 2.74211e-16)
(49.235 13.3924 -3.33518e-16)
(49.1926 13.3911 4.1141e-17)
(49.1486 13.3888 -5.24204e-16)
(49.1029 13.3855 1.43957e-16)
(49.0555 13.3813 -1.87345e-18)
(49.0065 13.3761 0)
(48.9557 13.3697 2.69507e-16)
(48.9031 13.3622 0)
(48.8488 13.3534 0)
(48.7926 13.3433 3.94131e-17)
(48.7346 13.3319 2.08552e-16)
(48.6747 13.319 0)
(48.6129 13.3045 7.38977e-17)
(48.5492 13.2884 2.71171e-17)
(48.4835 13.2706 1.16587e-16)
(48.4158 13.251 2.54219e-16)
(48.346 13.2295 -3.39368e-17)
(48.2742 13.2058 -1.81537e-17)
(48.2003 13.1801 0)
(48.1243 13.152 -2.26544e-17)
(48.0462 13.1215 -7.29132e-17)
(47.9658 13.0885 2.6412e-17)
(47.8834 13.0527 4.33257e-17)
(47.7986 13.0141 -3.12444e-17)
(47.7119 12.9725 8.35549e-18)
(47.621 12.9428 0)
(49.7001 13.3144 4.45823e-16)
(49.6788 13.3254 -4.79363e-16)
(49.6653 13.3407 -3.74526e-16)
(49.6449 13.3492 -4.0044e-16)
(49.622 13.3565 0)
(49.5987 13.3643 -5.2902e-16)
(49.5739 13.3714 2.82666e-16)
(49.5472 13.3775 -2.9916e-16)
(49.519 13.3831 3.65313e-16)
(49.4893 13.3882 4.28643e-17)
(49.458 13.3926 -4.6371e-18)
(49.4251 13.3964 0)
(49.3907 13.3995 0)
(49.3547 13.402 2.33869e-16)
(49.3172 13.4037 2.52829e-16)
(49.278 13.4047 -3.44172e-16)
(49.2373 13.405 2.99229e-16)
(49.1949 13.4044 -4.10356e-17)
(49.1509 13.4029 3.07972e-16)
(49.1052 13.4006 -2.36434e-16)
(49.0578 13.3973 -2.58291e-16)
(49.0087 13.3929 0)
(48.9579 13.3875 -3.28555e-17)
(48.9052 13.3809 3.21456e-17)
(48.8508 13.3731 2.8287e-16)
(48.7945 13.3641 0)
(48.7364 13.3537 -1.66442e-16)
(48.6763 13.3419 0)
(48.6144 13.3286 0)
(48.5504 13.3136 5.39095e-17)
(48.4845 13.297 -1.16857e-16)
(48.4165 13.2786 -1.59234e-16)
(48.3465 13.2583 1.72245e-16)
(48.2743 13.2361 -2.24146e-16)
(48.2001 13.2116 -1.99714e-17)
(48.1237 13.185 2.25381e-17)
(48.0451 13.156 7.18478e-17)
(47.9644 13.1244 5.23905e-17)
(47.8813 13.0902 1.39944e-17)
(47.7961 13.0533 -1.52372e-17)
(47.7085 13.0133 1.6596e-17)
(47.619 12.9702 -9.1835e-18)
(47.5252 12.9393 0)
(49.7013 13.3162 -4.54649e-17)
(49.68 13.3277 -5.24832e-16)
(49.6663 13.3433 4.34944e-16)
(49.646 13.3525 3.48235e-16)
(49.6232 13.3605 0)
(49.6001 13.3689 6.64034e-17)
(49.5753 13.3766 0)
(49.5488 13.3835 4.03538e-18)
(49.5207 13.3897 0)
(49.4911 13.3954 0)
(49.4599 13.4005 -3.76066e-16)
(49.4272 13.405 3.49097e-16)
(49.3929 13.4088 0)
(49.357 13.412 -2.36109e-16)
(49.3195 13.4145 -5.0735e-16)
(49.2804 13.4163 0)
(49.2397 13.4174 0)
(49.1974 13.4176 3.19765e-16)
(49.1534 13.417 3.44869e-16)
(49.1077 13.4155 3.77354e-16)
(49.0603 13.413 3.05898e-16)
(49.0112 13.4096 -2.22766e-16)
(48.9603 13.4051 -2.41651e-16)
(48.9076 13.3995 2.91883e-16)
(48.8531 13.3927 -5.66392e-16)
(48.7967 13.3847 0)
(48.7384 13.3754 0)
(48.6782 13.3646 -2.24948e-16)
(48.6161 13.3524 -1.96005e-16)
(48.5519 13.3387 2.12912e-16)
(48.4858 13.3233 2.84998e-17)
(48.4175 13.3061 -3.21375e-17)
(48.3472 13.2871 -1.03782e-16)
(48.2748 13.2661 2.24257e-18)
(48.2002 13.243 0)
(48.1235 13.2178 2.24296e-17)
(48.0445 13.1902 -2.3509e-17)
(47.9633 13.1602 -1.03874e-16)
(47.8798 13.1275 -8.43488e-17)
(47.794 13.0922 0)
(47.706 13.0539 5.05922e-17)
(47.6156 13.0125 -1.83955e-17)
(47.5231 12.9679 0)
(47.4263 12.9356 5.82705e-21)
(49.7025 13.3179 0)
(49.6812 13.3299 3.73544e-16)
(49.6673 13.3457 -3.7453e-16)
(49.6472 13.3557 0)
(49.6245 13.3644 5.49527e-16)
(49.6014 13.3734 -6.63228e-17)
(49.5768 13.3817 -1.04744e-16)
(49.5504 13.3892 2.64224e-16)
(49.5225 13.3962 0)
(49.493 13.4025 -3.00134e-16)
(49.4619 13.4083 0)
(49.4293 13.4135 -4.04575e-16)
(49.3951 13.418 5.33935e-17)
(49.3593 13.422 0)
(49.3219 13.4252 2.54625e-16)
(49.283 13.4278 0)
(49.2423 13.4296 0)
(49.2 13.4306 -3.22472e-16)
(49.1561 13.4309 -3.72662e-18)
(49.1104 13.4302 -1.42934e-16)
(49.063 13.4287 -4.08022e-16)
(49.0139 13.4261 1.67933e-16)
(48.963 13.4226 1.20073e-16)
(48.9102 13.4179 -2.36322e-18)
(48.8556 13.4122 2.47268e-18)
(48.7991 13.4052 0)
(48.7408 13.3969 0)
(48.6804 13.3872 1.81291e-16)
(48.6181 13.3762 1.46837e-16)
(48.5538 13.3636 -2.13701e-16)
(48.4874 13.3493 -1.15248e-16)
(48.4189 13.3334 -3.20198e-17)
(48.3484 13.3156 1.69574e-16)
(48.2756 13.296 1.48769e-16)
(48.2007 13.2742 -1.59244e-16)
(48.1236 13.2504 2.23296e-17)
(48.0442 13.2243 -2.33964e-17)
(47.9626 13.1957 7.7451e-17)
(47.8787 13.1646 5.64738e-17)
(47.7924 13.1308 6.11665e-17)
(47.7038 13.0942 3.31465e-17)
(47.6129 13.0545 -1.81494e-17)
(47.5195 13.0117 9.7135e-18)
(47.424 12.9655 1.09709e-17)
(47.3241 12.9318 0)
(49.7036 13.3194 0)
(49.6824 13.332 5.22593e-17)
(49.6683 13.3481 4.89888e-16)
(49.6483 13.3588 0)
(49.6258 13.3681 -4.95425e-16)
(49.6029 13.3778 0)
(49.5784 13.3867 -2.08524e-16)
(49.5521 13.3949 7.50079e-17)
(49.5243 13.4025 -1.11308e-18)
(49.495 13.4095 4.86629e-17)
(49.4641 13.416 1.40702e-18)
(49.4316 13.4218 0)