/*--------------------------------*- C++ -*----------------------------------*\
  =========                 |
  \\      /  F ield         | OpenFOAM: The Open Source CFD Toolbox
   \\    /   O peration     | Website:  https://openfoam.org
    \\  /    A nd           | Version:  7
     \\/     M anipulation  |
\*---------------------------------------------------------------------------*/
FoamFile
{
    version     2.0;
    format      ascii;
    class       volScalarField;
    location    "2000";
    object      nut;
}
// * * * * * * * * * * * * * * * * * * * * * * * * * * * * * * * * * * * * * //

dimensions      [0 2 -1 0 0 0 0];

internalField   nonuniform List<scalar> 
23064
(
5.20723e-06
5.20852e-06
5.20723e-06
5.20975e-06
5.20851e-06
5.20723e-06
5.21094e-06
5.20974e-06
5.2085e-06
5.20722e-06
5.21209e-06
5.21092e-06
5.20972e-06
5.20849e-06
5.20722e-06
5.21321e-06
5.21208e-06
5.21091e-06
5.20971e-06
5.20849e-06
5.20722e-06
5.21429e-06
5.21319e-06
5.21206e-06
5.21089e-06
5.2097e-06
5.20848e-06
5.20722e-06
5.21533e-06
5.21427e-06
5.21318e-06
5.21204e-06
5.21088e-06
5.20969e-06
5.20847e-06
5.20722e-06
5.21633e-06
5.21531e-06
5.21426e-06
5.21316e-06
5.21203e-06
5.21086e-06
5.20967e-06
5.20846e-06
5.20721e-06
5.21729e-06
5.21632e-06
5.2153e-06
5.21424e-06
5.21314e-06
5.21201e-06
5.21084e-06
5.20966e-06
5.20845e-06
5.20721e-06
5.21821e-06
5.21728e-06
5.2163e-06
5.21528e-06
5.21422e-06
5.21312e-06
5.21199e-06
5.21083e-06
5.20964e-06
5.20844e-06
5.20721e-06
5.21909e-06
5.2182e-06
5.21727e-06
5.21629e-06
5.21527e-06
5.2142e-06
5.2131e-06
5.21197e-06
5.21081e-06
5.20963e-06
5.20843e-06
5.2072e-06
5.21994e-06
5.21908e-06
5.21819e-06
5.21725e-06
5.21627e-06
5.21525e-06
5.21419e-06
5.21308e-06
5.21195e-06
5.21079e-06
5.20961e-06
5.20842e-06
5.2072e-06
5.22074e-06
5.21993e-06
5.21908e-06
5.21818e-06
5.21724e-06
5.21626e-06
5.21523e-06
5.21417e-06
5.21306e-06
5.21193e-06
5.21077e-06
5.20959e-06
5.2084e-06
5.20719e-06
5.22151e-06
5.22074e-06
5.21992e-06
5.21907e-06
5.21817e-06
5.21723e-06
5.21624e-06
5.21521e-06
5.21415e-06
5.21304e-06
5.2119e-06
5.21074e-06
5.20957e-06
5.20839e-06
5.20719e-06
5.22224e-06
5.22151e-06
5.22073e-06
5.21992e-06
5.21906e-06
5.21816e-06
5.21721e-06
5.21623e-06
5.21519e-06
5.21412e-06
5.21302e-06
5.21188e-06
5.21072e-06
5.20955e-06
5.20838e-06
5.20719e-06
5.22294e-06
5.22224e-06
5.22151e-06
5.22073e-06
5.21991e-06
5.21905e-06
5.21815e-06
5.2172e-06
5.21621e-06
5.21517e-06
5.2141e-06
5.21299e-06
5.21185e-06
5.2107e-06
5.20953e-06
5.20836e-06
5.20718e-06
5.22361e-06
5.22294e-06
5.22224e-06
5.2215e-06
5.22072e-06
5.2199e-06
5.21904e-06
5.21813e-06
5.21718e-06
5.21619e-06
5.21515e-06
5.21408e-06
5.21297e-06
5.21183e-06
5.21067e-06
5.20951e-06
5.20835e-06
5.20717e-06
5.22424e-06
5.22361e-06
5.22294e-06
5.22224e-06
5.2215e-06
5.22072e-06
5.2199e-06
5.21903e-06
5.21812e-06
5.21717e-06
5.21617e-06
5.21513e-06
5.21405e-06
5.21294e-06
5.2118e-06
5.21065e-06
5.20948e-06
5.20833e-06
5.20717e-06
5.22484e-06
5.22425e-06
5.22361e-06
5.22295e-06
5.22224e-06
5.2215e-06
5.22071e-06
5.21989e-06
5.21902e-06
5.21811e-06
5.21715e-06
5.21615e-06
5.21511e-06
5.21403e-06
5.21291e-06
5.21177e-06
5.21062e-06
5.20946e-06
5.20831e-06
5.20716e-06
5.22542e-06
5.22485e-06
5.22425e-06
5.22362e-06
5.22295e-06
5.22224e-06
5.2215e-06
5.22071e-06
5.21988e-06
5.21901e-06
5.21809e-06
5.21714e-06
5.21613e-06
5.21509e-06
5.214e-06
5.21288e-06
5.21174e-06
5.21059e-06
5.20943e-06
5.20829e-06
5.20716e-06
5.22596e-06
5.22543e-06
5.22486e-06
5.22426e-06
5.22362e-06
5.22295e-06
5.22224e-06
5.22149e-06
5.2207e-06
5.21987e-06
5.219e-06
5.21808e-06
5.21712e-06
5.21611e-06
5.21506e-06
5.21397e-06
5.21286e-06
5.21171e-06
5.21056e-06
5.20941e-06
5.20827e-06
5.20715e-06
5.22648e-06
5.22597e-06
5.22543e-06
5.22486e-06
5.22426e-06
5.22362e-06
5.22295e-06
5.22224e-06
5.22149e-06
5.2207e-06
5.21987e-06
5.21899e-06
5.21807e-06
5.2171e-06
5.21609e-06
5.21504e-06
5.21395e-06
5.21282e-06
5.21168e-06
5.21052e-06
5.20938e-06
5.20825e-06
5.20714e-06
5.22698e-06
5.22649e-06
5.22598e-06
5.22544e-06
5.22487e-06
5.22427e-06
5.22363e-06
5.22295e-06
5.22224e-06
5.22149e-06
5.22069e-06
5.21986e-06
5.21898e-06
5.21805e-06
5.21708e-06
5.21607e-06
5.21501e-06
5.21392e-06
5.21279e-06
5.21164e-06
5.21049e-06
5.20935e-06
5.20823e-06
5.20713e-06
5.22744e-06
5.22699e-06
5.2265e-06
5.22599e-06
5.22545e-06
5.22488e-06
5.22427e-06
5.22363e-06
5.22295e-06
5.22224e-06
5.22148e-06
5.22069e-06
5.21985e-06
5.21896e-06
5.21804e-06
5.21706e-06
5.21604e-06
5.21498e-06
5.21389e-06
5.21276e-06
5.21161e-06
5.21045e-06
5.20931e-06
5.20821e-06
5.20712e-06
5.22789e-06
5.22746e-06
5.227e-06
5.22651e-06
5.226e-06
5.22546e-06
5.22488e-06
5.22428e-06
5.22363e-06
5.22296e-06
5.22224e-06
5.22148e-06
5.22068e-06
5.21984e-06
5.21895e-06
5.21802e-06
5.21704e-06
5.21602e-06
5.21495e-06
5.21385e-06
5.21272e-06
5.21157e-06
5.21042e-06
5.20928e-06
5.20818e-06
5.20712e-06
5.22831e-06
5.2279e-06
5.22747e-06
5.22701e-06
5.22652e-06
5.22601e-06
5.22546e-06
5.22489e-06
5.22428e-06
5.22364e-06
5.22296e-06
5.22224e-06
5.22148e-06
5.22068e-06
5.21983e-06
5.21894e-06
5.218e-06
5.21702e-06
5.21599e-06
5.21492e-06
5.21382e-06
5.21268e-06
5.21153e-06
5.21038e-06
5.20924e-06
5.20815e-06
5.20711e-06
5.22871e-06
5.22833e-06
5.22791e-06
5.22748e-06
5.22702e-06
5.22653e-06
5.22602e-06
5.22547e-06
5.2249e-06
5.22429e-06
5.22364e-06
5.22296e-06
5.22224e-06
5.22147e-06
5.22067e-06
5.21982e-06
5.21893e-06
5.21798e-06
5.217e-06
5.21597e-06
5.21489e-06
5.21378e-06
5.21264e-06
5.21149e-06
5.21033e-06
5.20921e-06
5.20813e-06
5.20709e-06
5.2291e-06
5.22873e-06
5.22834e-06
5.22793e-06
5.22749e-06
5.22703e-06
5.22654e-06
5.22603e-06
5.22548e-06
5.2249e-06
5.22429e-06
5.22365e-06
5.22296e-06
5.22224e-06
5.22147e-06
5.22066e-06
5.21981e-06
5.21891e-06
5.21797e-06
5.21697e-06
5.21594e-06
5.21486e-06
5.21375e-06
5.2126e-06
5.21144e-06
5.21029e-06
5.20917e-06
5.2081e-06
5.20708e-06
5.22946e-06
5.22911e-06
5.22874e-06
5.22835e-06
5.22794e-06
5.2275e-06
5.22704e-06
5.22655e-06
5.22604e-06
5.22549e-06
5.22491e-06
5.2243e-06
5.22365e-06
5.22296e-06
5.22223e-06
5.22147e-06
5.22066e-06
5.2198e-06
5.2189e-06
5.21795e-06
5.21695e-06
5.21591e-06
5.21483e-06
5.21371e-06
5.21256e-06
5.2114e-06
5.21024e-06
5.20912e-06
5.20806e-06
5.20707e-06
5.2298e-06
5.22947e-06
5.22912e-06
5.22876e-06
5.22837e-06
5.22795e-06
5.22752e-06
5.22706e-06
5.22657e-06
5.22605e-06
5.2255e-06
5.22492e-06
5.2243e-06
5.22365e-06
5.22296e-06
5.22223e-06
5.22146e-06
5.22065e-06
5.21979e-06
5.21888e-06
5.21793e-06
5.21693e-06
5.21588e-06
5.21479e-06
5.21367e-06
5.21252e-06
5.21135e-06
5.2102e-06
5.20908e-06
5.20803e-06
5.20706e-06
0.000277697
5.23013e-06
5.22982e-06
5.22949e-06
5.22914e-06
5.22877e-06
5.22838e-06
5.22797e-06
5.22753e-06
5.22707e-06
5.22658e-06
5.22606e-06
5.22551e-06
5.22493e-06
5.22431e-06
5.22366e-06
5.22297e-06
5.22223e-06
5.22146e-06
5.22064e-06
5.21978e-06
5.21887e-06
5.21791e-06
5.2169e-06
5.21585e-06
5.21476e-06
5.21363e-06
5.21247e-06
5.2113e-06
5.21014e-06
5.20903e-06
5.20799e-06
5.20704e-06
0.000291816
0.000281472
5.23044e-06
5.23014e-06
5.22983e-06
5.2295e-06
5.22915e-06
5.22878e-06
5.22839e-06
5.22798e-06
5.22754e-06
5.22708e-06
5.22659e-06
5.22607e-06
5.22552e-06
5.22494e-06
5.22432e-06
5.22366e-06
5.22297e-06
5.22223e-06
5.22146e-06
5.22063e-06
5.21977e-06
5.21885e-06
5.21789e-06
5.21688e-06
5.21582e-06
5.21472e-06
5.21359e-06
5.21242e-06
5.21125e-06
5.21009e-06
5.20898e-06
5.20795e-06
5.20702e-06
0.00053954
0.000293705
0.000285216
5.23073e-06
5.23045e-06
5.23016e-06
5.22985e-06
5.22952e-06
5.22917e-06
5.2288e-06
5.22841e-06
5.228e-06
5.22756e-06
5.22709e-06
5.2266e-06
5.22608e-06
5.22553e-06
5.22494e-06
5.22432e-06
5.22367e-06
5.22297e-06
5.22223e-06
5.22145e-06
5.22063e-06
5.21976e-06
5.21883e-06
5.21787e-06
5.21685e-06
5.21579e-06
5.21468e-06
5.21354e-06
5.21237e-06
5.21119e-06
5.21003e-06
5.20893e-06
5.20791e-06
5.20701e-06
0.000787182
0.000542683
0.000295633
0.000289029
5.23101e-06
5.23075e-06
5.23047e-06
5.23017e-06
5.22986e-06
5.22953e-06
5.22918e-06
5.22881e-06
5.22842e-06
5.22801e-06
5.22757e-06
5.22711e-06
5.22661e-06
5.22609e-06
5.22554e-06
5.22495e-06
5.22433e-06
5.22367e-06
5.22297e-06
5.22223e-06
5.22145e-06
5.22062e-06
5.21974e-06
5.21882e-06
5.21784e-06
5.21682e-06
5.21575e-06
5.21464e-06
5.21349e-06
5.21232e-06
5.21113e-06
5.20997e-06
5.20887e-06
5.20787e-06
5.20699e-06
0.00103763
0.000790862
0.000545886
0.000297532
0.000292862
5.23127e-06
5.23102e-06
5.23076e-06
5.23048e-06
5.23019e-06
5.22988e-06
5.22955e-06
5.2292e-06
5.22883e-06
5.22844e-06
5.22803e-06
5.22759e-06
5.22712e-06
5.22663e-06
5.2261e-06
5.22555e-06
5.22496e-06
5.22434e-06
5.22368e-06
5.22297e-06
5.22223e-06
5.22145e-06
5.22061e-06
5.21973e-06
5.2188e-06
5.21782e-06
5.21679e-06
5.21572e-06
5.2146e-06
5.21345e-06
5.21226e-06
5.21107e-06
5.20991e-06
5.20881e-06
5.20782e-06
5.20697e-06
0.00128185
0.00104101
0.000794554
0.000549013
0.000299545
0.000296695
5.23152e-06
5.23129e-06
5.23104e-06
5.23078e-06
5.2305e-06
5.23021e-06
5.2299e-06
5.22957e-06
5.22922e-06
5.22885e-06
5.22846e-06
5.22804e-06
5.2276e-06
5.22713e-06
5.22664e-06
5.22612e-06
5.22556e-06
5.22497e-06
5.22434e-06
5.22368e-06
5.22298e-06
5.22223e-06
5.22144e-06
5.2206e-06
5.21972e-06
5.21878e-06
5.2178e-06
5.21677e-06
5.21568e-06
5.21456e-06
5.21339e-06
5.2122e-06
5.21101e-06
5.20984e-06
5.20875e-06
5.20777e-06
5.20695e-06
0.00151449
0.00128411
0.00104437
0.00079829
0.00055237
0.00030158
0.0003006
5.23176e-06
5.23154e-06
5.2313e-06
5.23106e-06
5.23079e-06
5.23052e-06
5.23022e-06
5.22991e-06
5.22958e-06
5.22923e-06
5.22886e-06
5.22847e-06
5.22806e-06
5.22762e-06
5.22715e-06
5.22665e-06
5.22613e-06
5.22557e-06
5.22498e-06
5.22435e-06
5.22369e-06
5.22298e-06
5.22223e-06
5.22144e-06
5.2206e-06
5.21971e-06
5.21877e-06
5.21778e-06
5.21674e-06
5.21565e-06
5.21451e-06
5.21334e-06
5.21214e-06
5.21094e-06
5.20977e-06
5.20868e-06
5.20771e-06
5.20692e-06
0.00173288
0.00151496
0.00128628
0.0010477
0.000802111
0.000555568
0.000303645
0.00030451
5.23199e-06
5.23178e-06
5.23155e-06
5.23132e-06
5.23107e-06
5.23081e-06
5.23053e-06
5.23024e-06
5.22993e-06
5.2296e-06
5.22925e-06
5.22888e-06
5.22849e-06
5.22807e-06
5.22763e-06
5.22716e-06
5.22667e-06
5.22614e-06
5.22558e-06
5.22499e-06
5.22436e-06
5.22369e-06
5.22298e-06
5.22223e-06
5.22143e-06
5.22059e-06
5.21969e-06
5.21875e-06
5.21775e-06
5.21671e-06
5.21561e-06
5.21447e-06
5.21329e-06
5.21208e-06
5.21087e-06
5.2097e-06
5.20861e-06
5.20766e-06
5.2069e-06
0.00193565
0.00173098
0.00151523
0.00128834
0.00105103
0.000805791
0.000558979
0.000305777
0.000308515
5.2322e-06
5.232e-06
5.23179e-06
5.23157e-06
5.23134e-06
5.23109e-06
5.23083e-06
5.23055e-06
5.23026e-06
5.22995e-06
5.22962e-06
5.22927e-06
5.2289e-06
5.22851e-06
5.22809e-06
5.22765e-06
5.22718e-06
5.22668e-06
5.22616e-06
5.2256e-06
5.225e-06
5.22437e-06
5.2237e-06
5.22299e-06
5.22223e-06
5.22143e-06
5.22058e-06
5.21968e-06
5.21873e-06
5.21773e-06
5.21667e-06
5.21557e-06
5.21442e-06
5.21323e-06
5.21202e-06
5.2108e-06
5.20962e-06
5.20853e-06
5.20759e-06
5.20687e-06
0.00212195
0.0019309
0.00172879
0.0015153
0.00129029
0.00105423
0.000809602
0.000562366
0.000307838
0.000312537
5.2324e-06
5.23222e-06
5.23202e-06
5.23181e-06
5.23159e-06
5.23135e-06
5.23111e-06
5.23085e-06
5.23057e-06
5.23028e-06
5.22996e-06
5.22963e-06
5.22929e-06
5.22892e-06
5.22852e-06
5.22811e-06
5.22767e-06
5.2272e-06
5.2267e-06
5.22617e-06
5.22561e-06
5.22501e-06
5.22438e-06
5.2237e-06
5.22299e-06
5.22223e-06
5.22143e-06
5.22057e-06
5.21967e-06
5.21871e-06
5.2177e-06
5.21664e-06
5.21553e-06
5.21437e-06
5.21317e-06
5.21195e-06
5.21072e-06
5.20954e-06
5.20845e-06
5.20753e-06
5.20684e-06
0.00229097
0.0021139
0.00192577
0.00172632
0.00151518
0.00129205
0.00105743
0.000813381
0.000565767
0.000310119
0.000316601
5.23259e-06
5.23242e-06
5.23223e-06
5.23203e-06
5.23183e-06
5.23161e-06
5.23137e-06
5.23113e-06
5.23086e-06
5.23059e-06
5.23029e-06
5.22998e-06
5.22965e-06
5.2293e-06
5.22893e-06
5.22854e-06
5.22812e-06
5.22768e-06
5.22721e-06
5.22671e-06
5.22618e-06
5.22562e-06
5.22502e-06
5.22439e-06
5.22371e-06
5.22299e-06
5.22223e-06
5.22142e-06
5.22056e-06
5.21966e-06
5.21869e-06
5.21768e-06
5.21661e-06
5.21549e-06
5.21432e-06
5.21311e-06
5.21188e-06
5.21064e-06
5.20945e-06
5.20837e-06
5.20746e-06
5.20681e-06
0.0024419
0.0022792
0.00210538
0.00192026
0.00172352
0.00151476
0.00129371
0.00106052
0.00081722
0.000569415
0.000312364
0.000320778
5.23278e-06
5.23261e-06
5.23243e-06
5.23225e-06
5.23205e-06
5.23184e-06
5.23162e-06
5.23139e-06
5.23114e-06
5.23088e-06
5.23061e-06
5.23031e-06
5.23e-06
5.22967e-06
5.22932e-06
5.22895e-06
5.22856e-06
5.22814e-06
5.2277e-06
5.22723e-06
5.22673e-06
5.2262e-06
5.22563e-06
5.22503e-06
5.2244e-06
5.22372e-06
5.223e-06
5.22223e-06
5.22142e-06
5.22056e-06
5.21964e-06
5.21867e-06
5.21765e-06
5.21658e-06
5.21544e-06
5.21427e-06
5.21305e-06
5.2118e-06
5.21056e-06
5.20936e-06
5.20828e-06
5.20738e-06
5.20677e-06
0.00257378
0.00242595
0.00226682
0.00209635
0.0019143
0.00172035
0.00151413
0.00129513
0.00106359
0.000821142
0.000572886
0.000314715
0.000325031
5.23295e-06
5.23279e-06
5.23263e-06
5.23245e-06
5.23226e-06
5.23207e-06
5.23186e-06
5.23164e-06
5.23141e-06
5.23116e-06
5.2309e-06
5.23063e-06
5.23033e-06
5.23002e-06
5.22969e-06
5.22934e-06
5.22897e-06
5.22858e-06
5.22816e-06
5.22772e-06
5.22725e-06
5.22675e-06
5.22622e-06
5.22565e-06
5.22505e-06
5.22441e-06
5.22373e-06
5.223e-06
5.22224e-06
5.22142e-06
5.22055e-06
5.21963e-06
5.21866e-06
5.21763e-06
5.21654e-06
5.2154e-06
5.21421e-06
5.21298e-06
5.21172e-06
5.21047e-06
5.20926e-06
5.20818e-06
5.2073e-06
5.20673e-06
0.00268548
0.00255318
0.00240926
0.00225381
0.00208675
0.00190786
0.00171686
0.00151316
0.00129645
0.0010666
0.000824909
0.000576554
0.000317154
0.000329319
5.23311e-06
5.23296e-06
5.23281e-06
5.23264e-06
5.23247e-06
5.23228e-06
5.23209e-06
5.23188e-06
5.23166e-06
5.23143e-06
5.23118e-06
5.23092e-06
5.23064e-06
5.23035e-06
5.23004e-06
5.22971e-06
5.22936e-06
5.22899e-06
5.2286e-06
5.22818e-06
5.22774e-06
5.22727e-06
5.22676e-06
5.22623e-06
5.22566e-06
5.22506e-06
5.22442e-06
5.22374e-06
5.22301e-06
5.22224e-06
5.22142e-06
5.22054e-06
5.21962e-06
5.21864e-06
5.2176e-06
5.2165e-06
5.21535e-06
5.21415e-06
5.21291e-06
5.21164e-06
5.21037e-06
5.20916e-06
5.20808e-06
5.20721e-06
5.20669e-06
0.00277576
0.00265974
0.00253169
0.00239179
0.0022401
0.00207654
0.00190097
0.0017129
0.00151198
0.00129758
0.00106944
0.000828821
0.000580321
0.000319681
0.000333759
5.23327e-06
5.23313e-06
5.23298e-06
5.23282e-06
5.23266e-06
5.23248e-06
5.2323e-06
5.2321e-06
5.2319e-06
5.23168e-06
5.23145e-06
5.2312e-06
5.23094e-06
5.23066e-06
5.23037e-06
5.23006e-06
5.22973e-06
5.22938e-06
5.22901e-06
5.22862e-06
5.2282e-06
5.22776e-06
5.22729e-06
5.22678e-06
5.22625e-06
5.22568e-06
5.22507e-06
5.22443e-06
5.22374e-06
5.22302e-06
5.22224e-06
5.22141e-06
5.22054e-06
5.2196e-06
5.21862e-06
5.21757e-06
5.21647e-06
5.21531e-06
5.2141e-06
5.21284e-06
5.21156e-06
5.21028e-06
5.20906e-06
5.20797e-06
5.20712e-06
5.20664e-06
0.00284318
0.00274434
0.00263294
0.00250925
0.00237347
0.00222564
0.00206575
0.00189348
0.00170859
0.00151045
0.00129844
0.00107227
0.000832736
0.000584124
0.000322263
0.000338335
5.23341e-06
5.23328e-06
5.23314e-06
5.23299e-06
5.23284e-06
5.23267e-06
5.2325e-06
5.23232e-06
5.23212e-06
5.23192e-06
5.2317e-06
5.23147e-06
5.23122e-06
5.23096e-06
5.23069e-06
5.23039e-06
5.23008e-06
5.22975e-06
5.22941e-06
5.22903e-06
5.22864e-06
5.22822e-06
5.22778e-06
5.22731e-06
5.2268e-06
5.22627e-06
5.22569e-06
5.22509e-06
5.22444e-06
5.22375e-06
5.22302e-06
5.22224e-06
5.22141e-06
5.22053e-06
5.21959e-06
5.2186e-06
5.21754e-06
5.21643e-06
5.21526e-06
5.21403e-06
5.21277e-06
5.21147e-06
5.21017e-06
5.20894e-06
5.20785e-06
5.20701e-06
5.20662e-06
0.0028862
0.00280555
0.00271169
0.00260501
0.00248579
0.00235422
0.00221041
0.0020542
0.00188548
0.00170381
0.00150855
0.00129915
0.00107497
0.000836589
0.000587921
0.000324952
0.000342927
5.23355e-06
5.23343e-06
5.2333e-06
5.23316e-06
5.23301e-06
5.23286e-06
5.23269e-06
5.23252e-06
5.23233e-06
5.23214e-06
5.23193e-06
5.23172e-06
5.23149e-06
5.23124e-06
5.23098e-06
5.23071e-06
5.23041e-06
5.2301e-06
5.22978e-06
5.22943e-06
5.22906e-06
5.22866e-06
5.22824e-06
5.2278e-06
5.22733e-06
5.22682e-06
5.22628e-06
5.22571e-06
5.2251e-06
5.22445e-06
5.22376e-06
5.22303e-06
5.22224e-06
5.22141e-06
5.22052e-06
5.21958e-06
5.21858e-06
5.21752e-06
5.21639e-06
5.21521e-06
5.21397e-06
5.21269e-06
5.21138e-06
5.21007e-06
5.20882e-06
5.20773e-06
5.20692e-06
5.20663e-06
0.00290307
0.00284177
0.00276649
0.00267772
0.00257587
0.00246123
0.00233402
0.00219426
0.00204196
0.00187684
0.00169849
0.00150634
0.00129958
0.00107752
0.000840473
0.000592094
0.000327768
0.000347657
5.23369e-06
5.23357e-06
5.23344e-06
5.23331e-06
5.23317e-06
5.23303e-06
5.23287e-06
5.23271e-06
5.23254e-06
5.23235e-06
5.23216e-06
5.23195e-06
5.23174e-06
5.23151e-06
5.23126e-06
5.231e-06
5.23073e-06
5.23044e-06
5.23013e-06
5.2298e-06
5.22945e-06
5.22908e-06
5.22869e-06
5.22827e-06
5.22782e-06
5.22735e-06
5.22684e-06
5.2263e-06
5.22573e-06
5.22512e-06
5.22447e-06
5.22377e-06
5.22304e-06
5.22225e-06
5.22141e-06
5.22052e-06
5.21957e-06
5.21856e-06
5.21749e-06
5.21635e-06
5.21516e-06
5.21391e-06
5.21261e-06
5.21128e-06
5.20996e-06
5.2087e-06
5.2076e-06
5.20687e-06
5.20667e-06
0.00289194
0.00285123
0.00279568
0.00272588
0.00264233
0.00254542
0.00243551
0.00231273
0.00217724
0.00202892
0.00186753
0.00169267
0.00150369
0.00129971
0.00107997
0.000844502
0.000596168
0.000330692
0.000352577
5.23381e-06
5.2337e-06
5.23358e-06
5.23346e-06
5.23333e-06
5.23319e-06
5.23304e-06
5.23289e-06
5.23273e-06
5.23255e-06
5.23237e-06
5.23218e-06
5.23197e-06
5.23176e-06
5.23153e-06
5.23128e-06
5.23102e-06
5.23075e-06
5.23046e-06
5.23015e-06
5.22982e-06
5.22947e-06
5.2291e-06
5.22871e-06
5.22829e-06
5.22784e-06
5.22737e-06
5.22686e-06
5.22632e-06
5.22575e-06
5.22513e-06
5.22448e-06
5.22379e-06
5.22304e-06
5.22225e-06
5.22141e-06
5.22051e-06
5.21956e-06
5.21854e-06
5.21746e-06
5.21631e-06
5.21511e-06
5.21384e-06
5.21253e-06
5.21118e-06
5.20984e-06
5.20857e-06
5.20747e-06
5.20685e-06
5.20672e-06
0.00285078
0.00283204
0.0027975
0.00274783
0.00268363
0.0026054
0.00251359
0.0024085
0.00229035
0.00215922
0.002015
0.0018575
0.00168627
0.00150057
0.00129959
0.00108233
0.000848355
0.000600241
0.000333772
0.000357655
5.23393e-06
5.23383e-06
5.23371e-06
5.2336e-06
5.23347e-06
5.23334e-06
5.23321e-06
5.23306e-06
5.23291e-06
5.23274e-06
5.23257e-06
5.23239e-06
5.2322e-06
5.23199e-06
5.23178e-06
5.23155e-06
5.23131e-06
5.23105e-06
5.23077e-06
5.23048e-06
5.23017e-06
5.22985e-06
5.2295e-06
5.22913e-06
5.22873e-06
5.22831e-06
5.22787e-06
5.22739e-06
5.22688e-06
5.22634e-06
5.22577e-06
5.22515e-06
5.2245e-06
5.2238e-06
5.22305e-06
5.22226e-06
5.22141e-06
5.22051e-06
5.21954e-06
5.21852e-06
5.21743e-06
5.21627e-06
5.21505e-06
5.21377e-06
5.21244e-06
5.21108e-06
5.20972e-06
5.20842e-06
5.20735e-06
5.20687e-06
5.20678e-06
0.00277748
0.00278217
0.00277
0.00274174
0.00269807
0.00263959
0.00256684
0.00248025
0.00238014
0.00226674
0.00214009
0.00200017
0.0018467
0.00167921
0.00149702
0.00129915
0.00108438
0.00085216
0.000604567
0.000336993
0.00036291
5.23404e-06
5.23394e-06
5.23384e-06
5.23373e-06
5.23361e-06
5.23349e-06
5.23336e-06
5.23322e-06
5.23308e-06
5.23293e-06
5.23276e-06
5.23259e-06
5.23241e-06
5.23222e-06
5.23202e-06
5.2318e-06
5.23157e-06
5.23133e-06
5.23107e-06
5.2308e-06
5.23051e-06
5.2302e-06
5.22987e-06
5.22952e-06
5.22915e-06
5.22876e-06
5.22834e-06
5.22789e-06
5.22741e-06
5.2269e-06
5.22636e-06
5.22579e-06
5.22517e-06
5.22451e-06
5.22381e-06
5.22306e-06
5.22226e-06
5.22141e-06
5.2205e-06
5.21953e-06
5.2185e-06
5.2174e-06
5.21623e-06
5.215e-06
5.2137e-06
5.21235e-06
5.21097e-06
5.20959e-06
5.20828e-06
5.20723e-06
5.20692e-06
5.20686e-06
0.00266983
0.00269946
0.00271113
0.00270565
0.0026838
0.00264626
0.00259366
0.00252652
0.00244529
0.00235031
0.00224178
0.00211982
0.00198433
0.00183503
0.00167149
0.00149293
0.00129825
0.00108623
0.000856033
0.000608979
0.000340387
0.000368356
5.23415e-06
5.23406e-06
5.23396e-06
5.23385e-06
5.23374e-06
5.23363e-06
5.2335e-06
5.23338e-06
5.23324e-06
5.2331e-06
5.23294e-06
5.23278e-06
5.23261e-06
5.23243e-06
5.23224e-06
5.23204e-06
5.23182e-06
5.23159e-06
5.23135e-06
5.23109e-06
5.23082e-06
5.23053e-06
5.23022e-06
5.22989e-06
5.22955e-06
5.22918e-06
5.22878e-06
5.22836e-06
5.22791e-06
5.22744e-06
5.22693e-06
5.22639e-06
5.22581e-06
5.22519e-06
5.22453e-06
5.22382e-06
5.22307e-06
5.22227e-06
5.22141e-06
5.2205e-06
5.21952e-06
5.21848e-06
5.21737e-06
5.21619e-06
5.21494e-06
5.21363e-06
5.21226e-06
5.21086e-06
5.20945e-06
5.20812e-06
5.20715e-06
5.20701e-06
5.20695e-06
0.00252561
0.00258174
0.00261874
0.00263751
0.00263885
0.00262354
0.00259227
0.00254567
0.00248429
0.00240858
0.00231888
0.00221541
0.00209828
0.00196737
0.00182245
0.00166301
0.00148819
0.00129695
0.00108792
0.00085983
0.000613503
0.000343965
0.000373965
5.23425e-06
5.23416e-06
5.23407e-06
5.23397e-06
5.23387e-06
5.23376e-06
5.23364e-06
5.23352e-06
5.23339e-06
5.23326e-06
5.23311e-06
5.23296e-06
5.2328e-06
5.23263e-06
5.23245e-06
5.23226e-06
5.23206e-06
5.23184e-06
5.23162e-06
5.23137e-06
5.23112e-06
5.23084e-06
5.23055e-06
5.23025e-06
5.22992e-06
5.22957e-06
5.2292e-06
5.22881e-06
5.22839e-06
5.22794e-06
5.22746e-06
5.22695e-06
5.22641e-06
5.22583e-06
5.22521e-06
5.22455e-06
5.22384e-06
5.22308e-06
5.22228e-06
5.22142e-06
5.2205e-06
5.21951e-06
5.21846e-06
5.21734e-06
5.21615e-06
5.21489e-06
5.21356e-06
5.21217e-06
5.21074e-06
5.20931e-06
5.20797e-06
5.20712e-06
5.20713e-06
5.20705e-06
0.00234264
0.00242678
0.00249064
0.00253514
0.00256112
0.00256941
0.00256077
0.00253591
0.00249547
0.00244001
0.00236997
0.00228572
0.00218748
0.00207534
0.00194922
0.00180884
0.00165363
0.00148281
0.00129526
0.00108933
0.00086359
0.000618158
0.000347777
0.000379889
5.23435e-06
5.23426e-06
5.23418e-06
5.23408e-06
5.23398e-06
5.23388e-06
5.23377e-06
5.23366e-06
5.23354e-06
5.23341e-06
5.23328e-06
5.23313e-06
5.23298e-06
5.23282e-06
5.23265e-06
5.23247e-06
5.23228e-06
5.23208e-06
5.23187e-06
5.23164e-06
5.2314e-06
5.23114e-06
5.23087e-06
5.23058e-06
5.23027e-06
5.22995e-06
5.2296e-06
5.22923e-06
5.22883e-06
5.22841e-06
5.22797e-06
5.22749e-06
5.22698e-06
5.22643e-06
5.22585e-06
5.22523e-06
5.22456e-06
5.22386e-06
5.2231e-06
5.22229e-06
5.22142e-06
5.22049e-06
5.2195e-06
5.21844e-06
5.21731e-06
5.21611e-06
5.21483e-06
5.21348e-06
5.21207e-06
5.21062e-06
5.20916e-06
5.20782e-06
5.20712e-06
5.20727e-06
5.20716e-06
0.00211894
0.00223249
0.00232465
0.00239637
0.00244845
0.00248177
0.00249712
0.00249529
0.002477
0.00244287
0.00239349
0.00232931
0.00225068
0.00215786
0.00205091
0.00192975
0.00179407
0.00164335
0.00147678
0.00129301
0.00109044
0.000867231
0.000622894
0.00035178
0.000386126
5.23444e-06
5.23436e-06
5.23428e-06
5.23419e-06
5.2341e-06
5.234e-06
5.2339e-06
5.23379e-06
5.23367e-06
5.23355e-06
5.23343e-06
5.23329e-06
5.23315e-06
5.233e-06
5.23284e-06
5.23267e-06
5.23249e-06
5.2323e-06
5.2321e-06
5.23189e-06
5.23166e-06
5.23142e-06
5.23117e-06
5.2309e-06
5.23061e-06
5.2303e-06
5.22997e-06
5.22963e-06
5.22926e-06
5.22886e-06
5.22844e-06
5.22799e-06
5.22751e-06
5.227e-06
5.22646e-06
5.22587e-06
5.22525e-06
5.22458e-06
5.22387e-06
5.22311e-06
5.2223e-06
5.22142e-06
5.22049e-06
5.21949e-06
5.21842e-06
5.21728e-06
5.21606e-06
5.21477e-06
5.2134e-06
5.21197e-06
5.21049e-06
5.209e-06
5.20768e-06
5.20717e-06
5.20744e-06
5.20728e-06
0.00185286
0.00199696
0.00211877
0.00221909
0.00229869
0.00235846
0.00239923
0.00242178
0.00242691
0.00241534
0.0023877
0.00234457
0.00228642
0.00221361
0.00212639
0.00202482
0.00190882
0.00177808
0.0016321
0.00146988
0.00129019
0.00109117
0.000870737
0.000627636
0.000356081
0.000392615
5.23452e-06
5.23445e-06
5.23437e-06
5.23429e-06
5.2342e-06
5.23411e-06
5.23401e-06
5.23391e-06
5.2338e-06
5.23369e-06
5.23357e-06
5.23345e-06
5.23331e-06
5.23317e-06
5.23302e-06
5.23286e-06
5.23269e-06
5.23252e-06
5.23233e-06
5.23213e-06
5.23191e-06
5.23169e-06
5.23145e-06
5.23119e-06
5.23092e-06
5.23063e-06
5.23033e-06
5.23e-06
5.22965e-06
5.22928e-06
5.22889e-06
5.22847e-06
5.22802e-06
5.22754e-06
5.22703e-06
5.22648e-06
5.2259e-06
5.22527e-06
5.22461e-06
5.22389e-06
5.22313e-06
5.22231e-06
5.22143e-06
5.22049e-06
5.21948e-06
5.2184e-06
5.21725e-06
5.21602e-06
5.21471e-06
5.21332e-06
5.21187e-06
5.21036e-06
5.20884e-06
5.20756e-06
5.20726e-06
5.20763e-06
5.20741e-06
0.00154322
0.00171874
0.00187122
0.00200136
0.00210979
0.00219739
0.00226494
0.00231327
0.00234316
0.00235541
0.00235071
0.00232973
0.00229303
0.0022411
0.00217431
0.00209289
0.00199692
0.0018863
0.00176076
0.00161965
0.0014621
0.00128667
0.00109148
0.000874116
0.000632779
0.000360675
0.000399382
5.23461e-06
5.23454e-06
5.23446e-06
5.23438e-06
5.2343e-06
5.23421e-06
5.23412e-06
5.23403e-06
5.23393e-06
5.23382e-06
5.23371e-06
5.23359e-06
5.23346e-06
5.23333e-06
5.23319e-06
5.23304e-06
5.23288e-06
5.23272e-06
5.23254e-06
5.23235e-06
5.23215e-06
5.23194e-06
5.23171e-06
5.23147e-06
5.23122e-06
5.23095e-06
5.23066e-06
5.23036e-06
5.23003e-06
5.22968e-06
5.22931e-06
5.22892e-06
5.2285e-06
5.22805e-06
5.22757e-06
5.22706e-06
5.22651e-06
5.22592e-06
5.2253e-06
5.22463e-06
5.22391e-06
5.22314e-06
5.22232e-06
5.22144e-06
5.22049e-06
5.21947e-06
5.21839e-06
5.21722e-06
5.21598e-06
5.21465e-06
5.21324e-06
5.21176e-06
5.21022e-06
5.20867e-06
5.20746e-06
5.20739e-06
5.20784e-06
5.20756e-06
0.00118934
0.00139689
0.00158075
0.00174159
0.00187993
0.00199658
0.00209222
0.00216764
0.00222363
0.00226101
0.00228051
0.00228286
0.00226872
0.00223865
0.00219315
0.00213257
0.00205716
0.001967
0.00186203
0.00174186
0.00160594
0.00145327
0.00128241
0.00109136
0.000877465
0.000637961
0.00036564
0.000406568
5.23468e-06
5.23462e-06
5.23455e-06
5.23447e-06
5.2344e-06
5.23431e-06
5.23423e-06
5.23414e-06
5.23404e-06
5.23394e-06
5.23384e-06
5.23373e-06
5.23361e-06
5.23348e-06
5.23335e-06
5.23321e-06
5.23306e-06
5.2329e-06
5.23274e-06
5.23256e-06
5.23237e-06
5.23217e-06
5.23196e-06
5.23174e-06
5.2315e-06
5.23125e-06
5.23098e-06
5.23069e-06
5.23038e-06
5.23006e-06
5.22971e-06
5.22934e-06
5.22895e-06
5.22853e-06
5.22808e-06
5.2276e-06
5.22709e-06
5.22654e-06
5.22595e-06
5.22532e-06
5.22465e-06
5.22393e-06
5.22316e-06
5.22233e-06
5.22145e-06
5.22049e-06
5.21947e-06
5.21837e-06
5.21719e-06
5.21593e-06
5.21459e-06
5.21316e-06
5.21166e-06
5.21008e-06
5.2085e-06
5.20741e-06
5.20755e-06
5.20808e-06
5.20772e-06
0.000788157
0.00103059
0.00124657
0.00143871
0.00160773
0.00175437
0.00187919
0.0019829
0.00206627
0.00213006
0.00217504
0.00220196
0.00221153
0.00220441
0.00218117
0.00214229
0.00208814
0.00201898
0.00193489
0.00183576
0.00172128
0.00159079
0.0014433
0.00127734
0.00109077
0.000880521
0.000643232
0.000371036
0.000414319
5.23476e-06
5.23469e-06
5.23463e-06
5.23456e-06
5.23448e-06
5.23441e-06
5.23433e-06
5.23424e-06
5.23415e-06
5.23406e-06
5.23396e-06
5.23385e-06
5.23374e-06
5.23363e-06
5.2335e-06
5.23337e-06
5.23323e-06
5.23308e-06
5.23293e-06
5.23276e-06
5.23258e-06
5.2324e-06
5.2322e-06
5.23199e-06
5.23176e-06
5.23153e-06
5.23127e-06
5.23101e-06
5.23072e-06
5.23041e-06
5.23009e-06
5.22974e-06
5.22938e-06
5.22898e-06
5.22856e-06
5.22811e-06
5.22763e-06
5.22712e-06
5.22657e-06
5.22598e-06
5.22535e-06
5.22468e-06
5.22395e-06
5.22318e-06
5.22235e-06
5.22145e-06
5.22049e-06
5.21946e-06
5.21835e-06
5.21717e-06
5.21589e-06
5.21453e-06
5.21308e-06
5.21154e-06
5.20993e-06
5.20834e-06
5.2074e-06
5.20774e-06
5.20833e-06
5.2079e-06
0.000354899
0.000615113
0.000866978
0.00109203
0.00129232
0.00146955
0.00162435
0.00175734
0.00186918
0.00196058
0.00203225
0.00208497
0.00211946
0.00213643
0.00213652
0.00212029
0.00208825
0.00204077
0.00197809
0.0019003
0.00180731
0.00169877
0.00157403
0.00143207
0.00127135
0.00108951
0.000883299
0.000648513
0.000376883
0.000422549
5.23482e-06
5.23476e-06
5.2347e-06
5.23464e-06
5.23457e-06
5.2345e-06
5.23442e-06
5.23434e-06
5.23426e-06
5.23417e-06
5.23407e-06
5.23398e-06
5.23387e-06
5.23376e-06
5.23364e-06
5.23352e-06
5.23339e-06
5.23325e-06
5.2331e-06
5.23295e-06
5.23278e-06
5.23261e-06
5.23242e-06
5.23222e-06
5.23201e-06
5.23179e-06
5.23155e-06
5.2313e-06
5.23103e-06
5.23075e-06
5.23045e-06
5.23012e-06
5.22978e-06
5.22941e-06
5.22901e-06
5.22859e-06
5.22814e-06
5.22766e-06
5.22715e-06
5.2266e-06
5.22601e-06
5.22538e-06
5.2247e-06
5.22398e-06
5.2232e-06
5.22236e-06
5.22146e-06
5.2205e-06
5.21946e-06
5.21834e-06
5.21714e-06
5.21585e-06
5.21447e-06
5.21299e-06
5.21143e-06
5.20977e-06
5.20819e-06
5.20744e-06
5.20796e-06
5.20861e-06
5.2081e-06
4.19113e-05
0.000210551
0.000443252
0.00069778
0.00093269
0.00114142
0.00132673
0.00148965
0.00163077
0.00175077
0.00185022
0.00192988
0.00199046
0.00203268
0.0020572
0.00206468
0.00205569
0.00203071
0.00199012
0.00193417
0.00186297
0.0017764
0.00167412
0.00155547
0.00141939
0.00126421
0.00108751
0.000885704
0.000654075
0.000383329
0.000431226
5.23489e-06
5.23483e-06
5.23477e-06
5.23471e-06
5.23465e-06
5.23458e-06
5.23451e-06
5.23443e-06
5.23436e-06
5.23427e-06
5.23418e-06
5.23409e-06
5.23399e-06
5.23389e-06
5.23378e-06
5.23366e-06
5.23354e-06
5.23341e-06
5.23327e-06
5.23313e-06
5.23297e-06
5.23281e-06
5.23263e-06
5.23245e-06
5.23225e-06
5.23204e-06
5.23182e-06
5.23158e-06
5.23133e-06
5.23106e-06
5.23078e-06
5.23048e-06
5.23015e-06
5.22981e-06
5.22944e-06
5.22905e-06
5.22863e-06
5.22818e-06
5.2277e-06
5.22718e-06
5.22663e-06
5.22604e-06
5.22541e-06
5.22473e-06
5.224e-06
5.22322e-06
5.22238e-06
5.22148e-06
5.2205e-06
5.21945e-06
5.21833e-06
5.21711e-06
5.21581e-06
5.21441e-06
5.21291e-06
5.21131e-06
5.20961e-06
5.20806e-06
5.20751e-06
5.20821e-06
5.2089e-06
5.20833e-06
8.04386e-08
2.57371e-06
9.57327e-05
0.000284826
0.000525202
0.000767582
0.000985595
0.00117904
0.00134998
0.00149923
0.00162732
0.0017349
0.00182262
0.00189117
0.00194123
0.00197348
0.00198854
0.00198698
0.00196928
0.00193584
0.0018869
0.00182256
0.00174273
0.00164704
0.00153485
0.001405
0.0012558
0.00108466
0.000887886
0.000659891
0.000390481
0.000440612
5.23495e-06
5.2349e-06
5.23484e-06
5.23478e-06
5.23472e-06
5.23466e-06
5.23459e-06
5.23452e-06
5.23445e-06
5.23437e-06
5.23429e-06
5.2342e-06
5.23411e-06
5.23401e-06
5.23391e-06
5.2338e-06