/*--------------------------------*- C++ -*----------------------------------*\
  =========                 |
  \\      /  F ield         | OpenFOAM: The Open Source CFD Toolbox
   \\    /   O peration     | Website:  https://openfoam.org
    \\  /    A nd           | Version:  7
     \\/     M anipulation  |
\*---------------------------------------------------------------------------*/
FoamFile
{
    version     2.0;
    format      ascii;
    class       volScalarField;
    location    "2000";
    object      nuTilda;
}
// * * * * * * * * * * * * * * * * * * * * * * * * * * * * * * * * * * * * * //

dimensions      [0 2 -1 0 0 0 0];

internalField   nonuniform List<scalar> 
23064
(
3.43222e-05
3.43246e-05
3.43222e-05
3.43269e-05
3.43246e-05
3.43222e-05
3.43291e-05
3.43269e-05
3.43246e-05
3.43222e-05
3.43313e-05
3.43291e-05
3.43269e-05
3.43246e-05
3.43222e-05
3.43334e-05
3.43312e-05
3.43291e-05
3.43269e-05
3.43246e-05
3.43222e-05
3.43354e-05
3.43333e-05
3.43312e-05
3.4329e-05
3.43268e-05
3.43246e-05
3.43222e-05
3.43373e-05
3.43353e-05
3.43333e-05
3.43312e-05
3.4329e-05
3.43268e-05
3.43245e-05
3.43222e-05
3.43391e-05
3.43373e-05
3.43353e-05
3.43333e-05
3.43312e-05
3.4329e-05
3.43268e-05
3.43245e-05
3.43222e-05
3.43409e-05
3.43391e-05
3.43372e-05
3.43353e-05
3.43332e-05
3.43311e-05
3.4329e-05
3.43267e-05
3.43245e-05
3.43222e-05
3.43426e-05
3.43409e-05
3.43391e-05
3.43372e-05
3.43352e-05
3.43332e-05
3.43311e-05
3.43289e-05
3.43267e-05
3.43245e-05
3.43222e-05
3.43443e-05
3.43426e-05
3.43409e-05
3.43391e-05
3.43372e-05
3.43352e-05
3.43332e-05
3.4331e-05
3.43289e-05
3.43267e-05
3.43245e-05
3.43222e-05
3.43458e-05
3.43443e-05
3.43426e-05
3.43409e-05
3.4339e-05
3.43371e-05
3.43352e-05
3.43331e-05
3.4331e-05
3.43288e-05
3.43267e-05
3.43244e-05
3.43222e-05
3.43473e-05
3.43458e-05
3.43442e-05
3.43426e-05
3.43408e-05
3.4339e-05
3.43371e-05
3.43351e-05
3.43331e-05
3.4331e-05
3.43288e-05
3.43266e-05
3.43244e-05
3.43222e-05
3.43488e-05
3.43473e-05
3.43458e-05
3.43442e-05
3.43426e-05
3.43408e-05
3.4339e-05
3.43371e-05
3.43351e-05
3.4333e-05
3.43309e-05
3.43288e-05
3.43266e-05
3.43244e-05
3.43222e-05
3.43501e-05
3.43488e-05
3.43473e-05
3.43458e-05
3.43442e-05
3.43425e-05
3.43408e-05
3.4339e-05
3.4337e-05
3.4335e-05
3.4333e-05
3.43309e-05
3.43287e-05
3.43266e-05
3.43244e-05
3.43222e-05
3.43514e-05
3.43501e-05
3.43488e-05
3.43473e-05
3.43458e-05
3.43442e-05
3.43425e-05
3.43408e-05
3.43389e-05
3.4337e-05
3.4335e-05
3.43329e-05
3.43308e-05
3.43287e-05
3.43265e-05
3.43243e-05
3.43221e-05
3.43527e-05
3.43514e-05
3.43501e-05
3.43488e-05
3.43473e-05
3.43458e-05
3.43442e-05
3.43425e-05
3.43407e-05
3.43389e-05
3.4337e-05
3.4335e-05
3.43329e-05
3.43308e-05
3.43286e-05
3.43265e-05
3.43243e-05
3.43221e-05
3.43538e-05
3.43527e-05
3.43514e-05
3.43501e-05
3.43488e-05
3.43473e-05
3.43458e-05
3.43442e-05
3.43425e-05
3.43407e-05
3.43389e-05
3.43369e-05
3.43349e-05
3.43329e-05
3.43307e-05
3.43286e-05
3.43264e-05
3.43243e-05
3.43221e-05
3.4355e-05
3.43538e-05
3.43527e-05
3.43514e-05
3.43501e-05
3.43487e-05
3.43473e-05
3.43458e-05
3.43441e-05
3.43425e-05
3.43407e-05
3.43388e-05
3.43369e-05
3.43349e-05
3.43328e-05
3.43307e-05
3.43285e-05
3.43264e-05
3.43242e-05
3.43221e-05
3.4356e-05
3.4355e-05
3.43539e-05
3.43527e-05
3.43514e-05
3.43501e-05
3.43487e-05
3.43473e-05
3.43457e-05
3.43441e-05
3.43424e-05
3.43406e-05
3.43388e-05
3.43368e-05
3.43348e-05
3.43327e-05
3.43306e-05
3.43285e-05
3.43263e-05
3.43242e-05
3.43221e-05
3.4357e-05
3.4356e-05
3.4355e-05
3.43539e-05
3.43527e-05
3.43514e-05
3.43501e-05
3.43487e-05
3.43473e-05
3.43457e-05
3.43441e-05
3.43424e-05
3.43406e-05
3.43387e-05
3.43368e-05
3.43348e-05
3.43327e-05
3.43306e-05
3.43284e-05
3.43263e-05
3.43242e-05
3.43221e-05
3.4358e-05
3.4357e-05
3.4356e-05
3.4355e-05
3.43539e-05
3.43527e-05
3.43514e-05
3.43501e-05
3.43487e-05
3.43473e-05
3.43457e-05
3.43441e-05
3.43424e-05
3.43406e-05
3.43387e-05
3.43367e-05
3.43347e-05
3.43326e-05
3.43305e-05
3.43284e-05
3.43262e-05
3.43241e-05
3.43221e-05
3.43589e-05
3.4358e-05
3.43571e-05
3.43561e-05
3.4355e-05
3.43539e-05
3.43527e-05
3.43514e-05
3.43501e-05
3.43487e-05
3.43473e-05
3.43457e-05
3.43441e-05
3.43423e-05
3.43405e-05
3.43387e-05
3.43367e-05
3.43347e-05
3.43326e-05
3.43304e-05
3.43283e-05
3.43262e-05
3.43241e-05
3.43221e-05
3.43598e-05
3.43589e-05
3.4358e-05
3.43571e-05
3.43561e-05
3.4355e-05
3.43539e-05
3.43527e-05
3.43514e-05
3.43501e-05
3.43487e-05
3.43472e-05
3.43457e-05
3.4344e-05
3.43423e-05
3.43405e-05
3.43386e-05
3.43366e-05
3.43346e-05
3.43325e-05
3.43304e-05
3.43282e-05
3.43261e-05
3.43241e-05
3.4322e-05
3.43606e-05
3.43598e-05
3.43589e-05
3.4358e-05
3.43571e-05
3.43561e-05
3.4355e-05
3.43539e-05
3.43527e-05
3.43515e-05
3.43501e-05
3.43487e-05
3.43472e-05
3.43457e-05
3.4344e-05
3.43423e-05
3.43405e-05
3.43386e-05
3.43366e-05
3.43345e-05
3.43324e-05
3.43303e-05
3.43282e-05
3.43261e-05
3.4324e-05
3.4322e-05
3.43614e-05
3.43606e-05
3.43598e-05
3.4359e-05
3.43581e-05
3.43571e-05
3.43561e-05
3.4355e-05
3.43539e-05
3.43527e-05
3.43515e-05
3.43501e-05
3.43487e-05
3.43472e-05
3.43456e-05
3.4344e-05
3.43423e-05
3.43404e-05
3.43385e-05
3.43365e-05
3.43345e-05
3.43324e-05
3.43302e-05
3.43281e-05
3.4326e-05
3.4324e-05
3.4322e-05
3.43621e-05
3.43614e-05
3.43607e-05
3.43598e-05
3.4359e-05
3.43581e-05
3.43571e-05
3.43561e-05
3.43551e-05
3.43539e-05
3.43527e-05
3.43515e-05
3.43501e-05
3.43487e-05
3.43472e-05
3.43456e-05
3.4344e-05
3.43422e-05
3.43404e-05
3.43385e-05
3.43365e-05
3.43344e-05
3.43323e-05
3.43302e-05
3.4328e-05
3.43259e-05
3.43239e-05
3.4322e-05
3.43628e-05
3.43622e-05
3.43614e-05
3.43607e-05
3.43599e-05
3.4359e-05
3.43581e-05
3.43572e-05
3.43561e-05
3.43551e-05
3.43539e-05
3.43527e-05
3.43515e-05
3.43501e-05
3.43487e-05
3.43472e-05
3.43456e-05
3.43439e-05
3.43422e-05
3.43403e-05
3.43384e-05
3.43364e-05
3.43344e-05
3.43322e-05
3.43301e-05
3.43279e-05
3.43258e-05
3.43238e-05
3.4322e-05
3.43635e-05
3.43629e-05
3.43622e-05
3.43615e-05
3.43607e-05
3.43599e-05
3.4359e-05
3.43581e-05
3.43572e-05
3.43562e-05
3.43551e-05
3.43539e-05
3.43527e-05
3.43515e-05
3.43501e-05
3.43487e-05
3.43472e-05
3.43456e-05
3.43439e-05
3.43422e-05
3.43403e-05
3.43384e-05
3.43364e-05
3.43343e-05
3.43321e-05
3.433e-05
3.43278e-05
3.43258e-05
3.43238e-05
3.43219e-05
3.43642e-05
3.43635e-05
3.43629e-05
3.43622e-05
3.43615e-05
3.43607e-05
3.43599e-05
3.43591e-05
3.43581e-05
3.43572e-05
3.43562e-05
3.43551e-05
3.4354e-05
3.43527e-05
3.43515e-05
3.43501e-05
3.43487e-05
3.43472e-05
3.43456e-05
3.43439e-05
3.43421e-05
3.43403e-05
3.43383e-05
3.43363e-05
3.43342e-05
3.43321e-05
3.43299e-05
3.43277e-05
3.43257e-05
3.43237e-05
3.43219e-05
0.00028054
3.43648e-05
3.43642e-05
3.43636e-05
3.43629e-05
3.43622e-05
3.43615e-05
3.43607e-05
3.43599e-05
3.43591e-05
3.43582e-05
3.43572e-05
3.43562e-05
3.43551e-05
3.4354e-05
3.43528e-05
3.43515e-05
3.43501e-05
3.43487e-05
3.43472e-05
3.43456e-05
3.43439e-05
3.43421e-05
3.43402e-05
3.43383e-05
3.43362e-05
3.43341e-05
3.4332e-05
3.43298e-05
3.43277e-05
3.43256e-05
3.43237e-05
3.43219e-05
0.000294402
0.000284243
3.43653e-05
3.43648e-05
3.43642e-05
3.43636e-05
3.43629e-05
3.43623e-05
3.43615e-05
3.43608e-05
3.436e-05
3.43591e-05
3.43582e-05
3.43572e-05
3.43562e-05
3.43551e-05
3.4354e-05
3.43528e-05
3.43515e-05
3.43501e-05
3.43487e-05
3.43471e-05
3.43455e-05
3.43438e-05
3.4342e-05
3.43402e-05
3.43382e-05
3.43362e-05
3.4334e-05
3.43319e-05
3.43297e-05
3.43276e-05
3.43255e-05
3.43236e-05
3.43219e-05
0.000540314
0.000296258
0.000287917
3.43659e-05
3.43654e-05
3.43648e-05
3.43642e-05
3.43636e-05
3.4363e-05
3.43623e-05
3.43616e-05
3.43608e-05
3.436e-05
3.43591e-05
3.43582e-05
3.43573e-05
3.43562e-05
3.43551e-05
3.4354e-05
3.43528e-05
3.43515e-05
3.43501e-05
3.43487e-05
3.43471e-05
3.43455e-05
3.43438e-05
3.4342e-05
3.43401e-05
3.43381e-05
3.43361e-05
3.4334e-05
3.43318e-05
3.43296e-05
3.43274e-05
3.43254e-05
3.43235e-05
3.43218e-05
0.000787546
0.000543447
0.000298155
0.000291663
3.43664e-05
3.43659e-05
3.43654e-05
3.43648e-05
3.43643e-05
3.43637e-05
3.4363e-05
3.43623e-05
3.43616e-05
3.43608e-05
3.436e-05
3.43592e-05
3.43582e-05
3.43573e-05
3.43562e-05
3.43552e-05
3.4354e-05
3.43528e-05
3.43515e-05
3.43501e-05
3.43487e-05
3.43471e-05
3.43455e-05
3.43438e-05
3.4342e-05
3.43401e-05
3.43381e-05
3.4336e-05
3.43339e-05
3.43317e-05
3.43295e-05
3.43273e-05
3.43253e-05
3.43234e-05
3.43218e-05
0.00103784
0.000791223
0.000546641
0.000300023
0.00029543
3.43669e-05
3.43664e-05
3.43659e-05
3.43654e-05
3.43649e-05
3.43643e-05
3.43637e-05
3.4363e-05
3.43624e-05
3.43616e-05
3.43609e-05
3.436e-05
3.43592e-05
3.43583e-05
3.43573e-05
3.43563e-05
3.43552e-05
3.4354e-05
3.43528e-05
3.43515e-05
3.43501e-05
3.43486e-05
3.43471e-05
3.43455e-05
3.43437e-05
3.43419e-05
3.434e-05
3.4338e-05
3.43359e-05
3.43338e-05
3.43316e-05
3.43294e-05
3.43272e-05
3.43252e-05
3.43233e-05
3.43218e-05
0.00128198
0.00104122
0.000794912
0.00054976
0.000302003
0.000299199
3.43673e-05
3.43669e-05
3.43664e-05
3.4366e-05
3.43654e-05
3.43649e-05
3.43643e-05
3.43637e-05
3.43631e-05
3.43624e-05
3.43617e-05
3.43609e-05
3.43601e-05
3.43592e-05
3.43583e-05
3.43573e-05
3.43563e-05
3.43552e-05
3.4354e-05
3.43528e-05
3.43515e-05
3.43501e-05
3.43486e-05
3.43471e-05
3.43454e-05
3.43437e-05
3.43419e-05
3.434e-05
3.4338e-05
3.43359e-05
3.43337e-05
3.43315e-05
3.43293e-05
3.43271e-05
3.43251e-05
3.43232e-05
3.43217e-05
0.00151459
0.00128425
0.00104457
0.000798644
0.000553108
0.000304006
0.000303042
3.43678e-05
3.43674e-05
3.43669e-05
3.43665e-05
3.4366e-05
3.43655e-05
3.43649e-05
3.43644e-05
3.43637e-05
3.43631e-05
3.43624e-05
3.43617e-05
3.43609e-05
3.43601e-05
3.43592e-05
3.43583e-05
3.43573e-05
3.43563e-05
3.43552e-05
3.4354e-05
3.43528e-05
3.43515e-05
3.43501e-05
3.43486e-05
3.43471e-05
3.43454e-05
3.43437e-05
3.43418e-05
3.43399e-05
3.43379e-05
3.43358e-05
3.43336e-05
3.43314e-05
3.43291e-05
3.4327e-05
3.43249e-05
3.43231e-05
3.43217e-05
0.00173295
0.00151506
0.00128641
0.0010479
0.000802462
0.000556298
0.000306039
0.000306891
3.43682e-05
3.43678e-05
3.43674e-05
3.4367e-05
3.43665e-05
3.4366e-05
3.43655e-05
3.4365e-05
3.43644e-05
3.43638e-05
3.43631e-05
3.43624e-05
3.43617e-05
3.43609e-05
3.43601e-05
3.43593e-05
3.43583e-05
3.43574e-05
3.43563e-05
3.43552e-05
3.43541e-05
3.43528e-05
3.43515e-05
3.43501e-05
3.43486e-05
3.43471e-05
3.43454e-05
3.43436e-05
3.43418e-05
3.43398e-05
3.43378e-05
3.43357e-05
3.43335e-05
3.43313e-05
3.4329e-05
3.43268e-05
3.43248e-05
3.4323e-05
3.43216e-05
0.00193571
0.00173105
0.00151533
0.00128848
0.00105124
0.000806139
0.0005597
0.00030814
0.000310837
3.43686e-05
3.43682e-05
3.43678e-05
3.43674e-05
3.4367e-05
3.43665e-05
3.43661e-05
3.43655e-05
3.4365e-05
3.43644e-05
3.43638e-05
3.43632e-05
3.43625e-05
3.43617e-05
3.4361e-05
3.43602e-05
3.43593e-05
3.43584e-05
3.43574e-05
3.43563e-05
3.43552e-05
3.43541e-05
3.43528e-05
3.43515e-05
3.43501e-05
3.43486e-05
3.4347e-05
3.43454e-05
3.43436e-05
3.43417e-05
3.43398e-05
3.43377e-05
3.43356e-05
3.43334e-05
3.43311e-05
3.43289e-05
3.43267e-05
3.43247e-05
3.43229e-05
3.43216e-05
0.002122
0.00193096
0.00172887
0.0015154
0.00129043
0.00105444
0.000809946
0.000563078
0.00031017
0.000314802
3.4369e-05
3.43686e-05
3.43683e-05
3.43679e-05
3.43675e-05
3.4367e-05
3.43666e-05
3.43661e-05
3.43656e-05
3.4365e-05
3.43645e-05
3.43638e-05
3.43632e-05
3.43625e-05
3.43618e-05
3.4361e-05
3.43602e-05
3.43593e-05
3.43584e-05
3.43574e-05
3.43564e-05
3.43553e-05
3.43541e-05
3.43528e-05
3.43515e-05
3.43501e-05
3.43486e-05
3.4347e-05
3.43453e-05
3.43436e-05
3.43417e-05
3.43397e-05
3.43377e-05
3.43355e-05
3.43333e-05
3.4331e-05
3.43287e-05
3.43265e-05
3.43245e-05
3.43228e-05
3.43215e-05
0.00229102
0.00211395
0.00192584
0.00172639
0.00151528
0.00129219
0.00105763
0.000813722
0.00056647
0.000312418
0.00031881
3.43693e-05
3.4369e-05
3.43687e-05
3.43683e-05
3.43679e-05
3.43675e-05
3.43671e-05
3.43666e-05
3.43661e-05
3.43656e-05
3.43651e-05
3.43645e-05
3.43639e-05
3.43632e-05
3.43625e-05
3.43618e-05
3.4361e-05
3.43602e-05
3.43593e-05
3.43584e-05
3.43574e-05
3.43564e-05
3.43553e-05
3.43541e-05
3.43529e-05
3.43515e-05
3.43501e-05
3.43486e-05
3.4347e-05
3.43453e-05
3.43435e-05
3.43417e-05
3.43397e-05
3.43376e-05
3.43354e-05
3.43332e-05
3.43309e-05
3.43286e-05
3.43264e-05
3.43244e-05
3.43227e-05
3.43214e-05
0.00244194
0.00227924
0.00210543
0.00192032
0.0017236
0.00151486
0.00129384
0.00106072
0.000817558
0.00057011
0.000314631
0.000322931
3.43697e-05
3.43694e-05
3.4369e-05
3.43687e-05
3.43683e-05
3.43679e-05
3.43675e-05
3.43671e-05
3.43666e-05
3.43662e-05
3.43656e-05
3.43651e-05
3.43645e-05
3.43639e-05
3.43633e-05
3.43626e-05
3.43618e-05
3.43611e-05
3.43603e-05
3.43594e-05
3.43585e-05
3.43575e-05
3.43564e-05
3.43553e-05
3.43541e-05
3.43529e-05
3.43515e-05
3.43501e-05
3.43486e-05
3.4347e-05
3.43453e-05
3.43435e-05
3.43416e-05
3.43396e-05
3.43375e-05
3.43353e-05
3.4333e-05
3.43307e-05
3.43284e-05
3.43262e-05
3.43242e-05
3.43225e-05
3.43214e-05
0.00257382
0.00242599
0.00226686
0.0020964
0.00191436
0.00172043
0.00151423
0.00129527
0.00106379
0.000821477
0.000573572
0.000316949
0.00032713
3.437e-05
3.43697e-05
3.43694e-05
3.43691e-05
3.43687e-05
3.43684e-05
3.4368e-05
3.43676e-05
3.43671e-05
3.43667e-05
3.43662e-05
3.43657e-05
3.43651e-05
3.43646e-05
3.43639e-05
3.43633e-05
3.43626e-05
3.43619e-05
3.43611e-05
3.43603e-05
3.43594e-05
3.43585e-05
3.43575e-05
3.43564e-05
3.43553e-05
3.43541e-05
3.43529e-05
3.43515e-05
3.43501e-05
3.43486e-05
3.4347e-05
3.43453e-05
3.43435e-05
3.43416e-05
3.43395e-05
3.43374e-05
3.43352e-05
3.43329e-05
3.43306e-05
3.43283e-05
3.4326e-05
3.4324e-05
3.43224e-05
3.43213e-05
0.00268552
0.00255322
0.0024093
0.00225386
0.0020868
0.00190792
0.00171694
0.00151326
0.00129659
0.0010668
0.000825241
0.000577232
0.000319355
0.000331365
3.43703e-05
3.437e-05
3.43697e-05
3.43694e-05
3.43691e-05
3.43687e-05
3.43684e-05
3.4368e-05
3.43676e-05
3.43672e-05
3.43667e-05
3.43662e-05
3.43657e-05
3.43652e-05
3.43646e-05
3.4364e-05
3.43633e-05
3.43627e-05
3.43619e-05
3.43611e-05
3.43603e-05
3.43594e-05
3.43585e-05
3.43575e-05
3.43565e-05
3.43554e-05
3.43542e-05
3.43529e-05
3.43516e-05
3.43501e-05
3.43486e-05
3.4347e-05
3.43453e-05
3.43434e-05
3.43415e-05
3.43395e-05
3.43373e-05
3.43351e-05
3.43328e-05
3.43304e-05
3.43281e-05
3.43258e-05
3.43238e-05
3.43222e-05
3.43212e-05
0.00277579
0.00265977
0.00253172
0.00239183
0.00224015
0.00207659
0.00190104
0.00171298
0.00151208
0.00129771
0.00106964
0.00082915
0.00058099
0.000321848
0.000335753
3.43706e-05
3.43703e-05
3.437e-05
3.43698e-05
3.43694e-05
3.43691e-05
3.43688e-05
3.43684e-05
3.4368e-05
3.43676e-05
3.43672e-05
3.43667e-05
3.43663e-05
3.43658e-05
3.43652e-05
3.43646e-05
3.4364e-05
3.43634e-05
3.43627e-05
3.4362e-05
3.43612e-05
3.43604e-05
3.43595e-05
3.43586e-05
3.43576e-05
3.43565e-05
3.43554e-05
3.43542e-05
3.43529e-05
3.43516e-05
3.43501e-05
3.43486e-05
3.4347e-05
3.43452e-05
3.43434e-05
3.43415e-05
3.43394e-05
3.43373e-05
3.4335e-05
3.43327e-05
3.43303e-05
3.43279e-05
3.43256e-05
3.43236e-05
3.4322e-05
3.43211e-05
0.00284321
0.00274437
0.00263297
0.00250929
0.00237351
0.00222568
0.0020658
0.00189354
0.00170867
0.00151055
0.00129858
0.00107247
0.000833061
0.000584785
0.000324397
0.000340277
3.43708e-05
3.43706e-05
3.43703e-05
3.43701e-05
3.43698e-05
3.43695e-05
3.43692e-05
3.43688e-05
3.43685e-05
3.43681e-05
3.43677e-05
3.43672e-05
3.43668e-05
3.43663e-05
3.43658e-05
3.43652e-05
3.43647e-05
3.43641e-05
3.43634e-05
3.43627e-05
3.4362e-05
3.43612e-05
3.43604e-05
3.43595e-05
3.43586e-05
3.43576e-05
3.43565e-05
3.43554e-05
3.43542e-05
3.43529e-05
3.43516e-05
3.43501e-05
3.43486e-05
3.43469e-05
3.43452e-05
3.43434e-05
3.43414e-05
3.43393e-05
3.43372e-05
3.43349e-05
3.43325e-05
3.43301e-05
3.43277e-05
3.43254e-05
3.43234e-05
3.43218e-05
3.43211e-05
0.00288622
0.00280558
0.00271172
0.00260504
0.00248583
0.00235426
0.00221045
0.00205425
0.00188554
0.00170388
0.00150865
0.00129928
0.00107517
0.000836911
0.000588573
0.000327051
0.000344818
3.43711e-05
3.43709e-05
3.43706e-05
3.43704e-05
3.43701e-05
3.43698e-05
3.43695e-05
3.43692e-05
3.43688e-05
3.43685e-05
3.43681e-05
3.43677e-05
3.43673e-05
3.43668e-05
3.43663e-05
3.43658e-05
3.43653e-05
3.43647e-05
3.43641e-05
3.43635e-05
3.43628e-05
3.4362e-05
3.43613e-05
3.43604e-05
3.43596e-05
3.43586e-05
3.43576e-05
3.43566e-05
3.43554e-05
3.43542e-05
3.4353e-05
3.43516e-05
3.43501e-05
3.43486e-05
3.43469e-05
3.43452e-05
3.43433e-05
3.43414e-05
3.43393e-05
3.43371e-05
3.43348e-05
3.43324e-05
3.43299e-05
3.43275e-05
3.43252e-05
3.43232e-05
3.43217e-05
3.43211e-05
0.0029031
0.00284179
0.00276652
0.00267775
0.00257591
0.00246127
0.00233406
0.0021943
0.00204202
0.00187691
0.00169857
0.00150644
0.00129971
0.00107771
0.000840793
0.000592736
0.000329833
0.000349498
3.43714e-05
3.43711e-05
3.43709e-05
3.43707e-05
3.43704e-05
3.43701e-05
3.43698e-05
3.43695e-05
3.43692e-05
3.43689e-05
3.43685e-05
3.43681e-05
3.43677e-05
3.43673e-05
3.43669e-05
3.43664e-05
3.43659e-05
3.43653e-05
3.43648e-05
3.43641e-05
3.43635e-05
3.43628e-05
3.43621e-05
3.43613e-05
3.43605e-05
3.43596e-05
3.43587e-05
3.43577e-05
3.43566e-05
3.43555e-05
3.43543e-05
3.4353e-05
3.43516e-05
3.43501e-05
3.43486e-05
3.43469e-05
3.43452e-05
3.43433e-05
3.43413e-05
3.43392e-05
3.4337e-05
3.43346e-05
3.43322e-05
3.43298e-05
3.43273e-05
3.4325e-05
3.43229e-05
3.43216e-05
3.43212e-05
0.00289196
0.00285126
0.00279571
0.00272591
0.00264236
0.00254546
0.00243555
0.00231277
0.00217729
0.00202897
0.00186759
0.00169275
0.00150379
0.00129984
0.00108016
0.000844819
0.000596802
0.000332722
0.000354368
3.43716e-05
3.43714e-05
3.43712e-05
3.43709e-05
3.43707e-05
3.43704e-05
3.43702e-05
3.43699e-05
3.43696e-05
3.43693e-05
3.43689e-05
3.43686e-05
3.43682e-05
3.43678e-05
3.43673e-05
3.43669e-05
3.43664e-05
3.43659e-05
3.43654e-05
3.43648e-05
3.43642e-05
3.43635e-05
3.43629e-05
3.43621e-05
3.43613e-05
3.43605e-05
3.43596e-05
3.43587e-05
3.43577e-05
3.43566e-05
3.43555e-05
3.43543e-05
3.4353e-05
3.43516e-05
3.43501e-05
3.43486e-05
3.43469e-05
3.43451e-05
3.43432e-05
3.43412e-05
3.43391e-05
3.43369e-05
3.43345e-05
3.43321e-05
3.43296e-05
3.43271e-05
3.43247e-05
3.43227e-05
3.43215e-05
3.43213e-05
0.00285081
0.00283207
0.00279753
0.00274786
0.00268366
0.00260544
0.00251363
0.00240853
0.00229039
0.00215927
0.00201505
0.00185757
0.00168634
0.00150067
0.00129973
0.00108252
0.000848669
0.000600866
0.000335765
0.000359396
3.43718e-05
3.43716e-05
3.43714e-05
3.43712e-05
3.4371e-05
3.43707e-05
3.43705e-05
3.43702e-05
3.43699e-05
3.43696e-05
3.43693e-05
3.4369e-05
3.43686e-05
3.43682e-05
3.43678e-05
3.43674e-05
3.43669e-05
3.43665e-05
3.4366e-05
3.43654e-05
3.43648e-05
3.43642e-05
3.43636e-05
3.43629e-05
3.43622e-05
3.43614e-05
3.43606e-05
3.43597e-05
3.43587e-05
3.43577e-05
3.43567e-05
3.43555e-05
3.43543e-05
3.4353e-05
3.43516e-05
3.43502e-05
3.43486e-05
3.43469e-05
3.43451e-05
3.43432e-05
3.43412e-05
3.4339e-05
3.43368e-05
3.43344e-05
3.43319e-05
3.43294e-05
3.43269e-05
3.43245e-05
3.43225e-05
3.43216e-05
3.43214e-05
0.00277751
0.00278219
0.00277003
0.00274177
0.0026981
0.00263963
0.00256688
0.00248028
0.00238018
0.00226678
0.00214014
0.00200022
0.00184677
0.00167929
0.00149712
0.00129929
0.00108458
0.000852471
0.000605184
0.00033895
0.000364603
3.4372e-05
3.43718e-05
3.43716e-05
3.43714e-05
3.43712e-05
3.4371e-05
3.43707e-05
3.43705e-05
3.43702e-05
3.43699e-05
3.43696e-05
3.43693e-05
3.4369e-05
3.43686e-05
3.43683e-05
3.43679e-05
3.43674e-05
3.4367e-05
3.43665e-05
3.4366e-05
3.43655e-05
3.43649e-05
3.43643e-05
3.43636e-05
3.43629e-05
3.43622e-05
3.43614e-05
3.43606e-05
3.43597e-05
3.43588e-05
3.43578e-05
3.43567e-05
3.43556e-05
3.43543e-05
3.4353e-05
3.43516e-05
3.43502e-05
3.43486e-05
3.43469e-05
3.43451e-05
3.43432e-05
3.43411e-05
3.4339e-05
3.43367e-05
3.43343e-05
3.43318e-05
3.43292e-05
3.43266e-05
3.43242e-05
3.43222e-05
3.43217e-05
3.43215e-05
0.00266986
0.0026995
0.00271116
0.00270569
0.00268383
0.0026463
0.00259369
0.00252655
0.00244533
0.00235035
0.00224183
0.00211987
0.00198439
0.0018351
0.00167157
0.00149303
0.00129838
0.00108642
0.000856341
0.000609586
0.000342305
0.000370001
3.43722e-05
3.4372e-05
3.43719e-05
3.43717e-05
3.43715e-05
3.43712e-05
3.4371e-05
3.43708e-05
3.43705e-05
3.43703e-05
3.437e-05
3.43697e-05
3.43694e-05
3.4369e-05
3.43687e-05
3.43683e-05
3.43679e-05
3.43675e-05
3.4367e-05
3.43665e-05
3.4366e-05
3.43655e-05
3.43649e-05
3.43643e-05
3.43637e-05
3.4363e-05
3.43623e-05
3.43615e-05
3.43607e-05
3.43598e-05
3.43588e-05
3.43578e-05
3.43567e-05
3.43556e-05
3.43544e-05
3.43531e-05
3.43517e-05
3.43502e-05
3.43486e-05
3.43469e-05
3.43451e-05
3.43431e-05
3.43411e-05
3.43389e-05
3.43366e-05
3.43341e-05
3.43316e-05
3.4329e-05
3.43264e-05
3.43239e-05
3.43221e-05
3.43218e-05
3.43217e-05
0.00252564
0.00258177
0.00261878
0.00263754
0.00263888
0.00262357
0.0025923
0.0025457
0.00248433
0.00240862
0.00231892
0.00221545
0.00209833
0.00196742
0.00182252
0.00166309
0.00148829
0.00129709
0.00108812
0.000860135
0.000614102
0.000345845
0.000375561
3.43724e-05
3.43722e-05
3.43721e-05
3.43719e-05
3.43717e-05
3.43715e-05
3.43713e-05
3.4371e-05
3.43708e-05
3.43706e-05
3.43703e-05
3.437e-05
3.43697e-05
3.43694e-05
3.43691e-05
3.43687e-05
3.43683e-05
3.43679e-05
3.43675e-05
3.43671e-05
3.43666e-05
3.43661e-05
3.43655e-05
3.4365e-05
3.43644e-05
3.43637e-05
3.4363e-05
3.43623e-05
3.43615e-05
3.43607e-05
3.43598e-05
3.43589e-05
3.43579e-05
3.43568e-05
3.43556e-05
3.43544e-05
3.43531e-05
3.43517e-05
3.43502e-05
3.43486e-05
3.43469e-05
3.43451e-05
3.43431e-05
3.4341e-05
3.43388e-05
3.43365e-05
3.4334e-05
3.43314e-05
3.43288e-05
3.43261e-05
3.43236e-05
3.4322e-05
3.4322e-05
3.43219e-05
0.00234268
0.00242682
0.00249068
0.00253517
0.00256115
0.00256944
0.0025608
0.00253594
0.0024955
0.00244004
0.00237001
0.00228576
0.00218753
0.00207539
0.00194928
0.00180891
0.00165372
0.00148292
0.00129539
0.00108952
0.000863892
0.000618748
0.000349617
0.000381436
3.43726e-05
3.43724e-05
3.43723e-05
3.43721e-05
3.43719e-05
3.43717e-05
3.43715e-05
3.43713e-05
3.43711e-05
3.43708e-05
3.43706e-05
3.43703e-05
3.437e-05
3.43697e-05
3.43694e-05
3.43691e-05
3.43687e-05
3.43684e-05
3.4368e-05
3.43676e-05
3.43671e-05
3.43666e-05
3.43661e-05
3.43656e-05
3.4365e-05
3.43644e-05
3.43638e-05
3.43631e-05
3.43624e-05
3.43616e-05
3.43607e-05
3.43599e-05
3.43589e-05
3.43579e-05
3.43568e-05
3.43557e-05
3.43544e-05
3.43531e-05
3.43517e-05
3.43502e-05
3.43486e-05
3.43469e-05
3.4345e-05
3.43431e-05
3.4341e-05
3.43387e-05
3.43364e-05
3.43339e-05
3.43312e-05
3.43285e-05
3.43258e-05
3.43233e-05
3.4322e-05
3.43223e-05
3.43221e-05
0.00211899
0.00223253
0.0023247
0.00239641
0.00244849
0.0024818
0.00249716
0.00249533
0.00247703
0.00244291
0.00239353
0.00232935
0.00225073
0.00215791
0.00205096
0.00192981
0.00179414
0.00164343
0.00147688
0.00129315
0.00109063
0.000867531
0.000623475
0.00035358
0.000387625
3.43727e-05
3.43726e-05
3.43724e-05
3.43723e-05
3.43721e-05
3.43719e-05
3.43717e-05
3.43715e-05
3.43713e-05
3.43711e-05
3.43709e-05
3.43706e-05
3.43704e-05
3.43701e-05
3.43698e-05
3.43695e-05
3.43691e-05
3.43688e-05
3.43684e-05
3.4368e-05
3.43676e-05
3.43672e-05
3.43667e-05
3.43662e-05
3.43656e-05
3.43651e-05
3.43645e-05
3.43638e-05
3.43631e-05
3.43624e-05
3.43616e-05
3.43608e-05
3.43599e-05
3.4359e-05
3.43579e-05
3.43569e-05
3.43557e-05
3.43545e-05
3.43532e-05
3.43517e-05
3.43502e-05
3.43486e-05
3.43469e-05
3.4345e-05
3.4343e-05
3.43409e-05
3.43387e-05
3.43363e-05
3.43337e-05
3.43311e-05
3.43283e-05
3.43255e-05
3.43231e-05
3.43221e-05
3.43226e-05
3.43223e-05
0.00185293
0.00199702
0.00211882
0.00221913
0.00229873
0.0023585
0.00239927
0.00242182
0.00242695
0.00241538
0.00238774
0.00234461
0.00228646
0.00221366
0.00212644
0.00202488
0.00190888
0.00177816
0.00163219
0.00146999
0.00129032
0.00109136
0.000871035
0.000628209
0.000357838
0.000394065
3.43729e-05
3.43728e-05
3.43726e-05
3.43725e-05
3.43723e-05
3.43721e-05
3.4372e-05
3.43718e-05
3.43716e-05
3.43714e-05
3.43711e-05
3.43709e-05
3.43707e-05
3.43704e-05
3.43701e-05
3.43698e-05
3.43695e-05
3.43692e-05
3.43688e-05
3.43685e-05
3.43681e-05
3.43676e-05
3.43672e-05
3.43667e-05
3.43662e-05
3.43657e-05
3.43651e-05
3.43645e-05
3.43639e-05
3.43632e-05
3.43625e-05
3.43617e-05
3.43608e-05
3.436e-05
3.4359e-05
3.4358e-05
3.43569e-05
3.43558e-05
3.43545e-05
3.43532e-05
3.43518e-05
3.43502e-05
3.43486e-05
3.43469e-05
3.4345e-05
3.4343e-05
3.43409e-05
3.43386e-05
3.43361e-05
3.43336e-05
3.43309e-05
3.43281e-05
3.43252e-05
3.43228e-05
3.43223e-05
3.4323e-05
3.43226e-05
0.00154332
0.00171882
0.00187129
0.00200141
0.00210984
0.00219743
0.00226499
0.00231331
0.0023432
0.00235545
0.00235075
0.00232977
0.00229307
0.00224115
0.00217436
0.00209294
0.00199697
0.00188636
0.00176083
0.00161974
0.00146221
0.00128681
0.00109167
0.000874411
0.000633342
0.000362389
0.000400785
3.43731e-05
3.43729e-05
3.43728e-05
3.43726e-05
3.43725e-05
3.43723e-05
3.43722e-05
3.4372e-05
3.43718e-05
3.43716e-05
3.43714e-05
3.43712e-05
3.43709e-05
3.43707e-05
3.43704e-05
3.43702e-05
3.43699e-05
3.43696e-05
3.43692e-05
3.43689e-05
3.43685e-05
3.43681e-05
3.43677e-05
3.43672e-05
3.43668e-05
3.43663e-05
3.43657e-05
3.43652e-05
3.43646e-05
3.43639e-05
3.43632e-05
3.43625e-05
3.43617e-05
3.43609e-05
3.436e-05
3.43591e-05
3.4358e-05
3.4357e-05
3.43558e-05
3.43546e-05
3.43532e-05
3.43518e-05
3.43503e-05
3.43486e-05
3.43469e-05
3.4345e-05
3.4343e-05
3.43408e-05
3.43385e-05
3.4336e-05
3.43334e-05
3.43307e-05
3.43278e-05
3.43249e-05
3.43227e-05
3.43225e-05
3.43234e-05
3.43228e-05
0.0011895
0.00139701
0.00158084
0.00174166
0.00188
0.00199663
0.00209227
0.00216769
0.00222368
0.00226105
0.00228055
0.00228291
0.00226876
0.0022387
0.00219319
0.00213262
0.00205721
0.00196706
0.00186209
0.00174194
0.00160603
0.00145338
0.00128255
0.00109155
0.000877758
0.000638515
0.000367308
0.000407922
3.43732e-05
3.43731e-05
3.43729e-05
3.43728e-05
3.43727e-05
3.43725e-05
3.43724e-05
3.43722e-05
3.4372e-05
3.43718e-05
3.43716e-05
3.43714e-05
3.43712e-05
3.4371e-05
3.43707e-05
3.43705e-05
3.43702e-05
3.43699e-05
3.43696e-05
3.43693e-05
3.43689e-05
3.43685e-05
3.43682e-05
3.43677e-05
3.43673e-05
3.43668e-05
3.43663e-05
3.43658e-05
3.43652e-05
3.43646e-05
3.4364e-05
3.43633e-05
3.43626e-05
3.43618e-05
3.4361e-05
3.43601e-05
3.43591e-05
3.43581e-05
3.4357e-05
3.43558e-05
3.43546e-05
3.43533e-05
3.43518e-05
3.43503e-05
3.43486e-05
3.43469e-05
3.4345e-05
3.43429e-05
3.43408e-05
3.43384e-05
3.43359e-05
3.43333e-05
3.43305e-05
3.43275e-05
3.43246e-05
3.43226e-05
3.43228e-05
3.43238e-05
3.43232e-05
0.00078852
0.00103081
0.00124672
0.00143882
0.00160781
0.00175444
0.00187925
0.00198296
0.00206633
0.00213011
0.00217508
0.00220201
0.00221158
0.00220446
0.00218122
0.00214234
0.0020882
0.00201904
0.00193495
0.00183583
0.00172135
0.00159087
0.00144341
0.00127748
0.00109096
0.000880812
0.000643777
0.000372657
0.000415624
3.43733e-05
3.43732e-05
3.43731e-05
3.4373e-05
3.43728e-05
3.43727e-05
3.43725e-05
3.43724e-05
3.43722e-05
3.4372e-05
3.43719e-05
3.43717e-05
3.43715e-05
3.43712e-05
3.4371e-05
3.43708e-05
3.43705e-05
3.43702e-05
3.43699e-05
3.43696e-05
3.43693e-05
3.4369e-05
3.43686e-05
3.43682e-05
3.43678e-05
3.43673e-05
3.43669e-05
3.43664e-05
3.43659e-05
3.43653e-05
3.43647e-05
3.4364e-05
3.43634e-05
3.43626e-05
3.43618e-05
3.4361e-05
3.43601e-05
3.43592e-05
3.43582e-05
3.43571e-05
3.43559e-05
3.43546e-05
3.43533e-05
3.43519e-05
3.43503e-05
3.43487e-05
3.43469e-05
3.4345e-05
3.43429e-05
3.43407e-05
3.43383e-05
3.43358e-05
3.43331e-05
3.43303e-05
3.43273e-05
3.43243e-05
3.43226e-05
3.43232e-05
3.43243e-05
3.43235e-05
0.000356667
0.000615709
0.000867278
0.00109222
0.00129245
0.00146966
0.00162444
0.00175741
0.00186925
0.00196064
0.0020323
0.00208502
0.00211951
0.00213648
0.00213657
0.00212034
0.0020883
0.00204082
0.00197815
0.00190036
0.00180738
0.00169885
0.00157412
0.00143218
0.00127149
0.0010897
0.000883588
0.000649049
0.000378455
0.000423804
3.43735e-05
3.43734e-05
3.43732e-05
3.43731e-05
3.4373e-05
3.43729e-05
3.43727e-05
3.43726e-05
3.43724e-05
3.43722e-05
3.43721e-05
3.43719e-05
3.43717e-05
3.43715e-05
3.43713e-05
3.4371e-05
3.43708e-05
3.43705e-05
3.43703e-05
3.437e-05
3.43697e-05
3.43694e-05
3.4369e-05
3.43686e-05
3.43683e-05
3.43678e-05
3.43674e-05
3.43669e-05
3.43664e-05
3.43659e-05
3.43653e-05
3.43647e-05
3.43641e-05
3.43634e-05
3.43627e-05
3.43619e-05
3.43611e-05
3.43602e-05
3.43592e-05
3.43582e-05
3.43571e-05
3.43559e-05
3.43547e-05
3.43533e-05
3.43519e-05
3.43504e-05
3.43487e-05
3.43469e-05
3.4345e-05
3.43429e-05
3.43406e-05
3.43383e-05
3.43357e-05
3.4333e-05
3.433e-05
3.4327e-05
3.4324e-05
3.43226e-05
3.43236e-05
3.43248e-05
3.43239e-05
6.97823e-05
0.000215318
0.000444393
0.000698243
0.00093295
0.0011416
0.00132686
0.00148975
0.00163085
0.00175084
0.00185029
0.00192994
0.00199052
0.00203274
0.00205726
0.00206473
0.00205574
0.00203076
0.00199018
0.00193423
0.00186303
0.00177647
0.0016742
0.00155556
0.0014195
0.00126435
0.0010877
0.000885992
0.000654603
0.00038485
0.000432431
3.43736e-05
3.43735e-05
3.43734e-05
3.43733e-05
3.43731e-05
3.4373e-05
3.43729e-05
3.43727e-05
3.43726e-05
3.43724e-05
3.43723e-05
3.43721e-05
3.43719e-05
3.43717e-05
3.43715e-05
3.43713e-05
3.43711e-05
3.43708e-05
3.43706e-05
3.43703e-05
3.437e-05
3.43697e-05
3.43694e-05
3.43691e-05
3.43687e-05
3.43683e-05
3.43679e-05
3.43675e-05
3.4367e-05
3.43665e-05
3.4366e-05
3.43654e-05
3.43648e-05
3.43642e-05
3.43635e-05
3.43628e-05
3.4362e-05
3.43611e-05
3.43602e-05
3.43593e-05
3.43583e-05
3.43572e-05
3.4356e-05
3.43547e-05
3.43534e-05
3.43519e-05
3.43504e-05
3.43487e-05
3.43469e-05
3.4345e-05
3.43429e-05
3.43406e-05
3.43382e-05
3.43356e-05
3.43328e-05
3.43298e-05
3.43267e-05
3.43238e-05
3.43228e-05
3.43241e-05
3.43253e-05
3.43243e-05
1.16321e-05
2.82809e-05
0.000111386
0.000287534
0.000526017
0.000767965
0.000985827
0.0011792
0.00135011
0.00149933
0.00162741
0.00173498
0.00182269
0.00189124
0.00194129
0.00197353
0.0019886
0.00198704
0.00196934
0.0019359
0.00188696
0.00182263
0.00174281
0.00164713
0.00153495
0.00140511
0.00125595
0.00108485
0.000888172
0.000660409
0.000391947
0.000441767
3.43737e-05
3.43736e-05
3.43735e-05
3.43734e-05
3.43733e-05
3.43732e-05
3.4373e-05
3.43729e-05
3.43728e-05
3.43726e-05
3.43725e-05
3.43723e-05
3.43721e-05
3.4372e-05
3.43718e-05
3.43716e-05
3.43713e-05