/*--------------------------------*- C++ -*----------------------------------*\
  =========                 |
  \\      /  F ield         | OpenFOAM: The Open Source CFD Toolbox
   \\    /   O peration     | Website:  https://openfoam.org
    \\  /    A nd           | Version:  7
     \\/     M anipulation  |
\*---------------------------------------------------------------------------*/
FoamFile
{
    version     2.0;
    format      ascii;
    class       volScalarField;
    location    "2000";
    object      p;
}
// * * * * * * * * * * * * * * * * * * * * * * * * * * * * * * * * * * * * * //

dimensions      [0 2 -2 0 0 0 0];

internalField   nonuniform List<scalar> 
23064
(
-7.28463
-7.31717
-7.59229
-7.3201
-7.61918
-7.89908
-7.5485
-7.61636
-7.91946
-8.20511
-7.83858
-7.85552
-7.91049
-8.21782
-8.51029
-8.15394
-8.15592
-8.16086
-8.20242
-8.51408
-8.81445
-8.5251
-8.48068
-8.47171
-8.46449
-8.49187
-8.80803
-9.11736
-8.95388
-8.86319
-8.8058
-8.7859
-8.76608
-8.7787
-9.09944
-9.41883
-9.43321
-9.30488
-9.19978
-9.12939
-9.09819
-9.0656
-9.06279
-9.38821
-9.71909
-9.96211
-9.7981
-9.65451
-9.53493
-9.45121
-9.40859
-9.36292
-9.34391
-9.67409
-10.0178
-10.5411
-10.3421
-10.1617
-10.0027
-9.86841
-9.77114
-9.71682
-9.65775
-9.62195
-9.95694
-10.3148
-11.1694
-10.9374
-10.7209
-10.5239
-10.3493
-10.2001
-10.0889
-10.0227
-9.95016
-9.89672
-10.2364
-10.61
-11.8468
-11.5833
-11.3326
-11.0983
-10.8847
-10.6942
-10.5298
-10.4046
-10.3262
-10.2398
-10.168
-10.5124
-10.9032
-12.5731
-12.2794
-11.9961
-11.7265
-11.4744
-11.2438
-11.0374
-10.8575
-10.7179
-10.6272
-10.5267
-10.4357
-10.7847
-11.1946
-13.3485
-13.0256
-12.7109
-12.4077
-12.1192
-11.849
-11.6013
-11.3786
-11.1832
-11.0288
-10.9254
-10.8105
-10.6995
-11.053
-11.4835
-14.1734
-13.8222
-13.4771
-13.1413
-12.818
-12.5104
-12.2219
-11.9569
-11.7177
-11.5063
-11.3368
-11.2206
-11.0911
-10.9593
-11.317
-11.7701
-15.0483
-14.6695
-14.2949
-13.9276
-13.5706
-13.227
-12.8999
-12.5931
-12.3105
-12.0546
-11.827
-11.6421
-11.5127
-11.3683
-11.2148
-11.5765
-12.0541
-15.9738
-15.568
-15.1646
-14.7666
-14.3769
-13.9985
-13.6344
-13.2878
-12.9623
-12.662
-12.3891
-12.1449
-11.9443
-11.8016
-11.642
-11.466
-11.8314
-12.3354
-16.951
-16.5185
-16.0868
-15.6588
-15.2372
-14.8249
-14.4249
-14.0401
-13.6738
-13.3295
-13.0111
-12.7209
-12.46
-12.2433
-12.0868
-11.9119
-11.7125
-12.0813
-12.6139
-17.9808
-17.5219
-17.0623
-16.6046
-16.1518
-15.7064
-15.2714
-14.8496
-14.4441
-14.0579
-13.6944
-13.3578
-13.0502
-12.7721
-12.5389
-12.3684
-12.1779
-11.9542
-12.3259
-12.8894
-19.0644
-18.5794
-18.092
-17.605
-17.1214
-16.6435
-16.1743
-15.7163
-15.2726
-14.8461
-14.4397
-14.057
-13.7018
-13.3765
-13.0811
-12.831
-12.6462
-12.4398
-12.1908
-12.5649
-13.1614
-20.2032
-19.692
-19.177
-18.661
-18.1467
-17.6368
-17.1338
-16.6404
-16.1594
-15.6936
-15.2459
-14.8193
-14.417
-14.043
-13.6996
-13.3866
-13.1194
-12.9199
-12.6975
-12.4223
-12.7981
-13.4296
-21.3987
-20.8613
-20.3187
-19.7736
-19.2289
-18.6871
-18.1507
-17.6224
-17.1048
-16.6005
-16.1125
-15.6435
-15.1963
-14.7742
-14.3813
-14.0197
-13.6886
-13.4039
-13.1894
-12.9505
-12.6483
-13.0253
-13.6946
-22.6526
-22.0888
-21.5184
-20.9443
-20.3691
-19.7955
-19.226
-18.663
-18.1092
-17.5672
-17.0397
-16.5292
-16.0386
-15.5707
-15.1286
-14.7164
-14.3362
-13.9869
-13.6841
-13.4542
-13.1989
-12.8687
-13.2461
-13.9556
-23.9668
-23.3763
-22.7779
-22.1744
-21.5687
-20.9632
-20.3605
-19.7631
-19.1734
-18.5941
-18.0275
-17.4765
-16.9434
-16.4311
-15.9422
-15.4799
-15.0481
-14.6492
-14.2812
-13.9601
-13.7145
-13.4424
-13.0831
-13.4601
-14.2126
-25.3431
-24.7256
-24.0989
-23.4658
-22.8292
-22.1917
-21.5557
-20.9238
-20.2983
-19.6819
-19.0768
-18.4856
-17.9108
-17.3549
-16.8207
-16.3106
-15.8279
-15.3764
-14.9583
-14.5715
-14.2316
-13.9698
-13.6808
-13.2916
-13.6671
-14.4653
-26.7836
-26.1387
-25.4833
-24.8202
-24.1524
-23.4825
-22.813
-22.1464
-21.485
-20.8315
-20.1881
-19.5572
-18.9411
-18.3425
-17.7637
-17.2072
-16.6759
-16.1724
-15.7009
-15.2635
-14.8575
-14.4983
-14.2201
-13.914
-13.4938
-13.8668
-14.7131
-28.2906
-27.6179
-26.9332
-26.2396
-25.5402
-24.8375
-24.134
-23.4324
-22.735
-22.0442
-21.3624
-20.6919
-20.035
-19.394
-18.7713
-18.1693
-17.5906
-17.0377
-16.5133
-16.0215
-15.5645
-15.1388
-14.7601
-14.4651
-14.1416
-13.6895
-14.0589
-14.9562
-29.8665
-29.1654
-28.4509
-27.7262
-26.9946
-26.2585
-25.5206
-24.7835
-24.0497
-23.3213
-22.601
-21.8908
-21.1931
-20.51
-19.8439
-19.197
-18.5718
-17.9706
-17.3959
-16.8504
-16.3381
-15.8611
-15.4156
-15.0169
-14.7044
-14.3635
-13.8785
-14.2429
-15.1942
-31.5136
-30.7836
-30.0388
-29.2825
-28.5178
-27.7477
-26.9748
-26.2017
-25.4308
-24.6645
-23.9053
-23.1552
-22.4165
-21.6914
-20.9821
-20.2907
-19.6195
-18.9707
-18.3469
-17.7503
-17.1835
-16.6504
-16.1532
-15.6877
-15.2684
-14.9381
-14.5794
-14.0606
-14.4186
-15.4267
-33.2345
-32.4751
-31.6992
-30.9105
-30.1122
-29.3074
-28.4988
-27.6889
-26.8804
-26.0756
-25.2768
-24.4865
-23.7066
-22.9392
-22.1867
-21.4509
-20.7341
-20.0385
-19.3661
-18.7195
-18.1008
-17.5124
-16.9582
-16.4405
-15.9545
-15.5144
-15.1658
-14.7892
-14.2356
-14.5857
-15.6536
-606.405
-35.032
-34.2424
-33.4348
-32.613
-31.7803
-30.9401
-30.0947
-29.2474
-28.4004
-27.5564
-26.7176
-25.8863
-25.0647
-24.2548
-23.4588
-22.6786
-21.9163
-21.174
-20.4538
-19.7577
-19.0881
-18.4471
-17.8369
-17.2614
-16.7229
-16.2161
-15.7546
-15.3872
-14.9927
-14.4033
-14.7438
-15.8747
-606.406
-634.374
-36.9088
-36.0885
-35.2485
-34.3927
-33.5249
-32.6481
-31.7654
-30.8796
-29.9933
-29.1091
-28.2295
-27.3566
-26.4927
-25.6397
-24.7998
-23.9749
-23.167
-22.3781
-21.6102
-20.8653
-20.1454
-19.4526
-18.7891
-18.1568
-17.5598
-17.0002
-16.4723
-15.9889
-15.6023
-15.1895
-14.5634
-14.8925
-16.09
-606.386
-634.37
-662.926
-38.868
-38.0161
-37.1429
-36.2524
-35.3485
-34.4344
-33.5132
-32.5881
-31.6616
-30.7362
-29.8148
-28.8995
-27.9923
-27.0955
-26.2111
-25.3411
-24.4873
-23.6517
-22.8361
-22.0425
-21.2728
-20.5288
-19.8128
-19.1265
-18.4721
-17.8531
-17.2722
-16.7228
-16.2171
-15.8106
-15.3796
-14.7158
-15.0315
-16.2984
-606.348
-634.343
-662.917
-692.011
-40.9127
-40.0284
-39.1212
-38.1951
-37.2541
-36.3016
-35.3411
-34.3754
-33.4076
-32.4403
-31.4759
-30.5171
-29.5659
-28.6244
-27.6947
-26.7789
-25.8786
-24.9959
-24.1324
-23.2901
-22.4707
-21.676
-20.9079
-20.1684
-19.4592
-18.7823
-18.1412
-17.5386
-16.9675
-16.4391
-16.0122
-15.5626
-14.8604
-15.1604
-16.4997
-606.306
-634.302
-662.885
-691.995
-721.792
-43.046
-42.1287
-41.1866
-40.2238
-39.2447
-38.2529
-37.2518
-36.2447
-35.2343
-34.2238
-33.2155
-32.212
-31.2156
-30.2285
-29.2526
-28.2901
-27.3427
-26.4122
-25.5003
-24.609
-23.7398
-22.8945
-22.0748
-21.2824
-20.5192
-19.787
-19.0874
-18.424
-17.7993
-17.2061
-16.6544
-16.2066
-15.7384
-14.9969
-15.2788
-16.6937
-606.258
-634.254
-662.836
-691.958
-721.77
-752.188
-45.2714
-44.3202
-43.3421
-42.3419
-41.3237
-40.2914
-39.2486
-38.1987
-37.1448
-36.0897
-35.0363
-33.987
-32.9442
-31.9102
-30.887
-29.8769
-28.8812
-27.9022
-26.9414
-26.0006
-25.0812
-24.1851
-23.3138
-22.4689
-21.6521
-20.8652
-20.1097
-19.3872
-18.7011
-18.0541
-17.4384
-16.863
-16.3936
-15.9067
-15.1249
-15.3864
-16.8806
-606.205
-634.2
-662.782
-691.905
-721.724
-752.161
-783.37
-47.5925
-46.6064
-45.5915
-44.5526
-43.4943
-42.4203
-41.3347
-40.2408
-39.1419
-38.0411
-36.9411
-35.8447
-34.7542
-33.672
-32.6004
-31.5413
-30.4966
-29.468
-28.4573
-27.4662
-26.4962
-25.5489
-24.6258
-23.7284
-22.8582
-22.0169
-21.206
-20.4271
-19.6814
-18.9724
-18.3028
-17.6643
-17.0647
-16.5731
-16.0672
-15.2445
-15.4829
-17.0599
-606.145
-634.14
-662.72
-691.843
-721.665
-752.109
-783.333
-815.264
-50.013
-48.9911
-47.9383
-46.8597
-45.76
-44.6432
-43.5135
-42.3743
-41.229
-40.081
-38.9331
-37.788
-36.6485
-35.517
-34.3953
-33.2862
-32.191
-31.1117
-30.0501
-29.0078
-27.9863
-26.9871
-26.0117
-25.0616
-24.138
-23.2425
-22.3765
-21.5415
-20.739
-19.97
-19.2377
-18.5451
-17.8836
-17.2593
-16.7449
-16.2198
-15.3555
-15.5677
-17.2307
-606.08
-634.073
-662.653
-691.777
-721.596
-752.043
-783.275
-815.222
-848.023
-52.5369
-51.478
-50.3862
-49.2668
-48.1246
-46.9637
-45.7884
-44.6025
-43.4095
-42.2129
-41.0156
-39.8205
-38.6304
-37.4478
-36.2749
-35.1139
-33.967
-32.8356
-31.7219
-30.6273
-29.5533
-28.5014
-27.473
-26.4695
-25.4922
-24.5424
-23.6215
-22.7307
-21.8715
-21.0451
-20.2526
-19.4968
-18.781
-18.096
-17.4465
-16.9085
-16.3644
-15.4577
-15.6406
-17.3924
-606.009
-634.001
-662.578
-691.701
-721.52
-751.969
-783.202
-815.157
-847.971
-881.705
-55.1683
-54.0712
-52.9394
-51.778
-50.5918
-49.3855
-48.1633
-46.9293
-45.687
-44.4402
-43.1919
-41.9452
-40.7029
-39.4676
-38.2418
-37.0277
-35.8274
-34.6426
-33.4753
-32.327
-31.1993
-30.0936
-29.0113
-27.9537
-26.922
-25.9175
-24.9415
-23.995
-23.0793
-22.1957
-21.3454
-20.5291
-19.7495
-19.0101
-18.3014
-17.6262
-17.0639
-16.5005
-15.5509
-15.7011
-17.5455
-605.931
-633.921
-662.496
-691.62
-721.436
-751.885
-783.118
-815.076
-847.9
-881.645
-916.356
-57.9117
-56.7754
-55.6021
-54.3971
-53.1657
-51.9125
-50.6418
-49.3582
-48.0652
-46.7665
-45.4657
-44.1655
-42.8694
-41.58
-40.2995
-39.0305
-37.7752
-36.5353
-35.3128
-34.1094
-32.9266
-31.7658
-30.6285
-29.5157
-28.4289
-27.3691
-26.3373
-25.3349
-24.3629
-23.4221
-22.514
-21.6395
-20.7993
-19.9957
-19.2324
-18.4995
-17.7982
-17.2109
-16.6279
-15.6349
-15.7489
-17.6892
-605.846
-633.834
-662.406
-691.529
-721.344
-751.793
-783.025
-814.984
-847.809
-881.561
-916.284
-952.014
-60.7717
-59.5948
-58.3786
-57.1288
-55.8505
-54.549
-53.2285
-51.8935
-50.5481
-49.1959
-47.8406
-46.4855
-45.1336
-43.7881
-42.4512
-41.1257
-39.8134
-38.5168
-37.2374
-35.9773
-34.7379
-33.5205
-32.3267
-31.1576
-30.0144
-28.8984
-27.8103
-26.7514
-25.7226
-24.7248
-23.759
-22.8263
-21.9274
-21.063
-20.2351
-19.4475
-18.6902
-17.9623
-17.3492
-16.7466
-15.7097
-15.7836
-17.822
-605.754
-633.74
-662.308
-691.431
-721.243
-751.692
-782.923
-814.884
-847.71
-881.464
-916.194
-951.934
-988.889
-63.7533
-62.5341
-61.2735
-59.9774
-58.6512
-57.2993
-55.9273
-54.5393
-53.1397
-51.7323
-50.3207
-48.9086
-47.4994
-46.0957
-44.7006
-43.3164
-41.9456
-40.5902
-39.2522
-37.9336
-36.6358
-35.3602
-34.1084
-32.8815
-31.6808
-30.5072
-29.3619
-28.2457
-27.1595
-26.1042
-25.0807
-24.0898
-23.1322
-22.2089
-21.32
-20.4676
-19.6555
-18.8733
-18.1183
-17.4786
-16.8563
-15.775
-15.8048
-17.9457
-605.652
-633.636
-662.202
-691.323
-721.133
-751.582
-782.812
-814.773
-847.6
-881.355
-916.087
-951.835
-988.797
-1026.98
-66.8612
-65.5984
-64.2919
-62.9478
-61.5716
-60.1683
-58.7428
-57.3
-55.8444
-54.3798
-52.9103
-51.4394
-49.9706
-48.507
-47.0515
-45.6069
-44.1753
-42.7592
-41.3606
-39.9815
-38.6233
-37.2877
-35.9763
-34.69
-33.4301
-32.1978
-30.9938
-29.8193
-28.6749
-27.5614
-26.4797
-25.4304
-24.4141
-23.4317
-22.4837
-21.5702
-20.693
-19.8559
-19.0486
-18.266
-17.5989
-16.9566
-15.8308
-15.8121
-18.0585
-605.542
-633.523
-662.085
-691.205
-721.014
-751.462
-782.689
-814.65
-847.478
-881.233
-915.967
-951.719
-988.686
-1026.87
-1066.39
-70.101
-68.7928
-67.439
-66.0451
-64.6171
-63.1604
-61.6799
-60.1803
-58.6667
-57.1429
-55.6133
-54.0816
-52.5512
-51.0256
-49.5077
-48.0002
-46.506
-45.027
-43.5657
-42.1241
-40.7037
-39.3062
-37.9331
-36.5856
-35.2649
-33.9722
-32.7083
-31.474
-30.2703
-29.0977
-27.957
-26.8488
-25.7736
-24.732
-23.7245
-22.7517
-21.8134
-20.9111
-20.0487
-19.216
-18.4053
-17.7098
-17.0474
-15.8769
-15.8052
-18.159
-605.424
-633.401
-661.96
-691.079
-720.882
-751.33
-782.557
-814.519
-847.346
-881.101
-915.835
-951.589
-988.56
-1026.75
-1066.27
-1107.26
-73.4785
-72.1233
-70.7198
-69.2747
-67.793
-66.2807
-64.7432
-63.185
-61.6113
-60.0264
-58.4348
-56.8398
-55.2457
-53.6561
-52.0734
-50.501
-48.9416
-47.3978
-45.8716
-44.3651
-42.8803
-41.4188
-39.982
-38.5714
-37.1881
-35.8331
-34.5075
-33.212
-31.9476
-30.7146
-29.5139
-28.346
-27.2113
-26.1101
-25.0431
-24.0105
-23.0127
-22.0494
-21.1217
-20.2338
-19.3752
-18.5361
-17.8113
-17.1285
-15.9134
-15.7838
-18.2488
-605.293
-633.268
-661.822
-690.939
-720.74
-751.188
-782.411
-814.373
-847.199
-880.956
-915.69
-951.447
-988.418
-1026.61
-1066.14
-1107.13
-1149.83
-76.9991
-75.5949
-74.1406
-72.6417
-71.1045
-69.535
-67.9379
-66.3192
-64.6835
-63.0351
-61.3789
-59.719
-58.0588
-56.4024
-54.7531
-53.1134
-51.4868
-49.8752
-48.2819
-46.7085
-45.1569
-43.629
-42.1265
-40.6505
-39.2024
-37.7834
-36.3941
-35.0357
-33.7089
-32.4142
-31.1522
-29.9234
-28.7282
-27.5669
-26.4399
-25.3473
-24.2895
-23.2665
-22.278
-21.3247
-20.4108
-19.5261
-18.658
-17.9031
-17.1997
-15.9401
-15.7474
-18.327
-605.151
-633.123
-661.673
-690.788
-720.587
-751.033
-782.254
-814.216
-847.043
-880.798
-915.531
-951.289
-988.261
-1026.46
-1065.99
-1106.99
-1149.69
-1194.06
-80.6698
-79.2146
-77.7066
-76.1525
-74.5575
-72.9283
-71.2701
-69.588
-67.8881
-66.1742
-64.4512
-62.7237
-60.9952
-59.2698
-57.5507
-55.8417
-54.145
-52.4641
-50.8008
-49.158
-47.5372
-45.9407
-44.3699
-42.8264
-41.3112
-39.8259
-38.3711
-36.9478
-35.5568
-34.1985
-32.8737
-31.5827
-30.3259
-29.1034
-27.9156
-26.7626
-25.6445
-24.5612
-23.513
-22.4991
-21.52
-20.5798
-19.6686
-18.7711
-17.985
-17.2607
-15.9569
-15.6957
-18.3925
-604.997
-632.965
-661.51
-690.624
-720.419
-750.864
-782.083
-814.044
-846.871
-880.625
-915.359
-951.118
-988.091
-1026.29
-1065.82
-1106.83
-1149.52
-1193.9
-1240.26
-84.4963
-82.9884
-81.425
-79.8127
-78.1581
-76.4666
-74.7449
-72.9976
-71.2307
-69.4488
-67.6568
-65.859
-64.0595
-62.2629
-60.4719
-58.6904
-56.9215
-55.1679
-53.4326
-51.7176
-50.0253
-48.3576
-46.7161
-45.1025
-43.518
-41.964
-40.4414
-38.9511
-37.4938
-36.0702
-34.6808
-33.326
-32.006
-30.7211
-29.4715
-28.2572
-27.0781
-25.9343
-24.8257
-23.7521
-22.7125
-21.7072
-20.7404
-19.8024
-18.8751
-18.0569
-17.3113
-15.9639
-15.6285
-18.4428
-604.829
-632.794
-661.334
-690.446
-720.237
-750.681
-781.898
-813.857
-846.683
-880.438
-915.171
-950.932
-987.904
-1026.1
-1065.63
-1106.64
-1149.34
-1193.72
-1240.08
-1288.55
-88.4854
-86.9227
-85.3014
-83.6292
-81.9118
-80.1564
-78.3681
-76.5535
-74.7172
-72.8646
-71.0009
-69.1304
-67.2575
-65.3864
-63.5211
-61.6647
-59.8205
-57.9921
-56.1817
-54.3921
-52.6251
-50.8837
-49.1689
-47.4828
-45.8264
-44.2013
-42.6085
-41.0488
-39.5231
-38.032
-36.5759
-35.1554
-33.7706
-32.4218
-31.109
-29.8322
-28.5914
-27.3863
-26.2168
-25.0826
-23.9834
-22.9181
-21.8864
-20.8927
-19.9274
-18.9699
-18.1186
-17.3515
-15.9611
-15.5453
-18.4806
-604.648
-632.607
-661.142
-690.251
-720.038
-750.482
-781.696
-813.655
-846.481
-880.234
-914.966
-950.728
-987.7
-1025.9
-1065.43
-1106.44
-1149.15
-1193.53
-1239.88
-1288.35
-1339.23
-92.6451
-91.0251
-89.3433
-87.6086
-85.8265
-84.004
-82.1469
-80.2615
-78.3533
-76.4278
-74.4895
-72.5434
-70.5943
-68.6464
-66.7032
-64.7694
-62.8475
-60.9411
-59.0529
-57.1856
-55.3418
-53.5234
-51.7328
-49.9711
-48.2402
-46.5414
-44.8756
-43.2442
-41.6477
-40.0868
-38.562
-37.0737
-35.6222
-34.2076
-32.8299
-31.4892
-30.1853
-28.918
-27.6869
-26.4916
-25.3318
-24.2069
-23.1156
-22.0574
-21.0363
-20.0435
-19.0555
-18.1699
-17.3808
-15.9485
-15.4457
-18.5041
-604.451
-632.406
-660.935
-690.042
-719.824
-750.266
-781.477
-813.435
-846.26
-880.012
-914.744
-950.508
-987.478
-1025.68
-1065.21
-1106.23
-1148.93
-1193.31
-1239.67
-1288.14
-1339.01
-1392.48
-96.9823
-95.3019
-93.5581
-91.7575
-89.9082
-88.0164
-86.0879
-84.129
-82.1458
-80.144
-78.1284
-76.1039
-74.0756
-72.048
-70.0247
-68.0097
-66.0073
-64.0199
-62.0509
-60.1033
-58.1793
-56.2815
-54.4116
-52.572
-50.7637
-48.9882
-47.2471
-45.5411
-43.8711
-42.2379
-40.642
-39.0836
-37.5632
-36.0807
-34.6365
-33.2302
-31.8617
-30.5307
-29.2369
-27.9797
-26.7587
-25.5731
-24.4224
-23.3051
-22.22
-21.1713
-20.1506
-19.1317
-18.2109
-17.3993
-15.926
-15.3296
-18.5127
-604.239
-632.187
-660.71
-689.813
-719.591
-750.031
-781.239
-813.197
-846.02
-879.771
-914.503
-950.267
-987.237
-1025.44
-1064.97
-1105.99
-1148.69
-1193.08
-1239.44
-1287.9
-1338.77
-1392.24
-1448.67
-101.505
-99.762
-97.9521
-96.0838
-94.1645
-92.2
-90.197
-88.1621
-86.1013
-84.02
-81.9241
-79.8184
-77.7081
-75.5971
-73.4904
-71.3921
-69.3052
-67.234
-65.1812
-63.1501
-61.1429
-59.1622
-57.2106
-55.2893
-53.4008
-51.5462
-49.7266
-47.9432
-46.197
-44.4889
-42.8191
-41.1883
-39.5966
-38.0442
-36.5311
-35.0572
-33.6223
-32.2261
-30.8681
-29.5478
-28.2647
-27.0178
-25.8065
-24.6299
-23.4862
-22.3741
-21.2974
-20.2486
-19.1983
-18.2412
-17.4066
-15.8939
-15.1967
-18.5048
-604.009
-631.951
-660.467
-689.567
-719.34
-749.777
-780.982
-812.939
-845.761
-879.511
-914.241
-950.006
-986.976
-1025.17
-1064.71
-1105.73
-1148.43
-1192.81
-1239.17
-1287.65
-1338.52
-1391.98
-1448.4
-1508.04
-106.221
-104.413
-102.535
-100.596
-98.6027
-96.5626
-94.4818
-92.3677
-90.2264
-88.0627
-85.8831
-83.6931
-81.4972
-79.3003
-77.1067
-74.9212
-72.7477
-70.5892
-68.449
-66.3308
-64.2374
-62.1711
-60.134
-58.1288
-56.1566
-54.2193
-52.3183
-50.4547
-48.6294
-46.8434
-45.0971
-43.3911
-41.7255
-40.1006
-38.5164
-36.9728
-35.4694
-34.0061
-32.5823
-31.1974
-29.8508
-28.5416
-27.2688
-26.0317
-24.829
-23.6589
-22.5195
-21.4146
-20.3372
-19.2555
-18.2609
-17.4025
-15.8522
-15.0467
-18.4813
-603.764
-631.697
-660.205
-689.299
-719.067
-749.502
-780.702
-812.658
-845.48
-879.229
-913.956
-949.723
-986.691
-1024.89
-1064.43
-1105.44
-1148.14
-1192.53
-1238.89
-1287.37
-1338.24
-1391.7
-1448.11
-1507.73
-1571.05
-111.139
-109.263
-107.314
-105.3
-103.231
-101.112
-98.9504
-96.7536
-94.528
-92.2791
-90.0124
-87.7345
-85.4497
-83.1636
-80.8799
-78.6041
-76.3396
-74.0909
-71.8603
-69.652
-67.4685
-65.3129
-63.1874
-61.0943
-59.0354
-57.0123
-55.0268
-53.0798
-51.1723
-49.3055
-47.4797
-45.6955
-43.9534
-42.2534
-40.5955
-38.9796
-37.4057
-35.8731
-34.3814
-32.9301
-31.5183
-30.1454
-28.8102
-27.5116
-26.2486
-25.0198
-23.8231
-22.6563
-21.5228
-20.4165
-19.303
-18.2699
-17.387
-15.8011
-14.8796
-18.441
-603.499
-631.422
-659.923
-689.013
-718.773
-749.204
-780.4
-812.355
-845.176
-878.923
-913.649
-949.416
-986.385
-1024.58
-1064.12
-1105.14
-1147.83
-1192.22
-1238.58
-1287.06
-1337.93
-1391.39
-1447.8
-1507.42
-1570.71
-1638.15
-116.268
-114.321
-112.298
-110.207
-108.057
-105.856
-103.61
-101.328
-99.0141
-96.676
-94.3193
-91.95
-89.5729
-87.1934
-84.8164
-82.4467
-80.0882
-77.7447
-75.4206
-73.1182
-70.8417
-68.5934
-66.3759
-64.1917
-62.0425
-59.9302
-57.8566
-55.8227
-53.8299
-51.8791
-49.9707
-48.1055
-46.2839
-44.5059
-42.7717
-41.081
-39.4337
-37.8295
-36.2678
-34.7479
-33.2693
-31.8308
-30.4316
-29.0704
-27.746
-26.4571
-25.2021
-23.9787
-22.7843
-21.6218
-20.4864
-19.3409
-18.2682
-17.3599
-15.7409
-14.6953
-18.3841
-603.216
-631.129
-659.619
-688.703
-718.456
-748.883
-780.074
-812.026
-844.845
-878.591
-913.315
-949.083
-986.051
-1024.25
-1063.78
-1104.8
-1147.5
-1191.89
-1238.24
-1286.72
-1337.59
-1391.05
-1447.46
-1507.07
-1570.35
-1637.75
-1709.88
-121.618
-119.597
-117.495
-115.324
-113.091
-110.804
-108.47
-106.098
-103.693
-101.262
-98.8113
-96.3467
-93.8739
-91.3974
-88.9232
-86.4555
-83.9993
-81.5583
-79.1361
-76.7365
-74.3628
-72.0183
-69.7049
-67.4258
-65.1828
-62.9781
-60.8128
-58.6889
-56.6072
-54.5688
-52.5746
-50.6251
-48.7209
-46.8619
-45.0483
-43.28
-41.5569
-39.8784
-38.2442
-36.6535
-35.1056
-33.5997
-32.1346
-30.7091
-29.3221
-27.9719
-26.657
-25.3757
-24.1256
-22.9033
-21.7117
-20.5467
-19.3691
-18.2557
-17.321
-15.6716
-14.4936
-18.309
-602.913
-630.816
-659.295
-688.37
-718.115
-748.538
-779.723
-811.672
-844.488
-878.232
-912.954
-948.723
-985.687
-1023.89
-1063.42
-1104.44
-1147.13
-1191.52
-1237.88
-1286.35
-1337.22
-1390.68
-1447.09
-1506.7
-1569.97
-1637.36
-1709.43
-1786.88
-127.2
-125.099
-122.916
-120.66
-118.34
-115.964
-113.539
-111.073
-108.572
-106.045
-103.497
-100.932
-98.3596
-95.783
-93.2074
-90.6381
-88.0799
-85.5371
-83.0135
-80.5127
-78.0383
-75.5932
-73.1807
-70.8027
-68.4623
-66.1607
-63.9005
-61.6827
-59.5086
-57.3793
-55.2958
-53.2587
-51.2683
-49.3251
-47.4292
-45.5802
-43.7782
-42.0227
-40.3133
-38.6493
-37.0299
-35.4542
-33.9211
-32.4295
-30.978
-29.5651
-28.1891
-26.8482
-25.5406
-24.2636
-23.0134
-21.7923
-20.5975
-19.3876
-18.2325
-17.2701
-15.5938
-14.2743
-18.2148
-602.595
-630.482
-658.948
-688.014
-717.749
-748.166
-779.344
-811.29
-844.104
-877.844
-912.563
-948.332
-985.295
-1023.49
-1063.03
-1104.05
-1146.73
-1191.12
-1237.48
-1285.95
-1336.82
-1390.27
-1446.68
-1506.29
-1569.56
-1636.94
-1708.98
-1786.37
-1869.93
-133.023
-130.841
-128.572
-126.227
-123.816
-121.345
-118.825
-116.261
-113.662
-111.033
-108.383
-105.715
-103.039
-100.357
-97.6763
-95.0016
-92.3375
-89.6888
-87.0594
-84.4533
-81.8736
-79.3247
-76.8086
-74.3283
-71.886
-69.4843
-67.1251
-64.8095
-62.5393
-60.3154
-58.139
-56.0107
-53.931
-51.9001
-49.9183
-47.9855
-46.1015
-44.2661
-42.4785
-40.7383
-39.0448
-37.3968
-35.7934
-34.2334
-32.7154
-31.2379
-29.7993
-28.3976
-27.0307
-25.6968
-24.3927
-23.1145
-21.8637
-20.6387
-19.3964
-18.1987
-17.2072
-15.5077
-14.0374
-18.1009
-602.259
-630.129
-658.579
-687.635
-717.359
-747.768
-778.938
-810.879
-843.688
-877.427
-912.143
-947.91
-984.87
-1023.07
-1062.6
-1103.62
-1146.3
-1190.69
-1237.05
-1285.52
-1336.38
-1389.83
-1446.23
-1505.84
-1569.1
-1636.48
-1708.52
-1785.87
-1869.35
-1959.76
-139.101
-136.831
-134.472
-132.034
-129.527
-126.959
-124.338
-121.673
-118.969
-116.236
-113.478
-110.704
-107.919
-105.128
-102.338
-99.5531
-96.7794
-94.0203
-91.2809
-88.5649
-85.8768
-83.2188
-80.5954
-78.0085
-75.4607
-72.9544
-70.4922
-68.0751
-65.7048
-63.3824
-61.1094
-58.8861
-56.713
-54.5909
-52.52
-50.4999
-48.5306
-46.6119
-44.7432
-42.924
-41.1533
-39.4304
-37.7541
-36.1232
-34.5364
-32.9922
-31.4889
-30.0245
-28.5971
-27.2043
-25.8439
-24.5128
-23.2064
-21.9258
-20.6702
-19.3957
-18.1543
-17.1322
-15.4136
-13.7828
-17.9683
-601.897
-629.757
-658.192
-687.234
-716.944
-747.343
-778.503
-810.439
-843.243
-876.977
-911.69
-947.455
-984.413
-1022.61
-1062.14
-1103.16
-1145.84
-1190.23
-1236.58
-1285.05
-1335.9
-1389.35
-1445.74
-1505.35
-1568.6
-1635.98
-1708.01
-1785.35
-1868.78
-1959.1
-2057.35
-145.444
-143.083
-140.628
-138.093
-135.485
-132.815
-130.089
-127.317
-124.506
-121.662
-118.794
-115.907
-113.009
-110.105
-107.2
-104.301
-101.413
-98.5394
-95.6854
-92.8555
-90.0533
-87.2833
-84.5475
-81.8497
-79.192
-76.5773
-74.0077
-71.4849
-69.0102
-66.5855
-64.2116
-61.8895
-59.6197
-57.4025
-55.2386
-53.1276
-51.0696
-49.0642
-47.1111
-45.2096
-43.3587
-41.5579
-39.8059
-38.1014
-36.4433
-34.83
-33.2597
-31.7306
-30.2406
-28.7876
-27.3689
-25.9821
-24.6239
-23.2893
-21.9785
-20.6922
-19.3854
-18.0996
-17.0447
-15.312
-13.5113
-17.8138
-601.501
-629.351
-657.778
-686.81
-716.505
-746.891
-778.04
-809.968
-842.766
-876.493
-911.202
-946.965
-983.917
-1022.11
-1061.64
-1102.66
-1145.33
-1189.72
-1236.07
-1284.53
-1335.39
-1388.83
-1445.22
-1504.81
-1568.06
-1635.42
-1707.44
-1784.77
-1868.19
-1958.45
-2056.58
-2165.23
-152.066
-149.607
-147.054
-144.415
-141.702
-138.923
-136.088
-133.204
-130.279
-127.321
-124.338
-121.334
-118.318
-115.295
-112.272
-109.254
-106.246
-103.253
-100.281
-97.3323
-94.4125
-91.5243
-88.6724
-85.8589
-83.087
-80.3591
-77.678
-75.0449
-72.4618
-69.9304
-67.4515
-65.0263
-62.6556
-60.3395
-58.0788
-55.8732
-53.7228
-51.6272
-49.5861
-47.5989
-45.6648
-43.7828
-41.952
-40.1711
-38.4389
-36.7536
-35.1139
-33.5177
-31.963
-30.4476
-28.969
-27.5245
-26.1113
-24.726
-23.363
-22.022
-20.7046
-19.3657
-18.0346
-16.945
-15.2038
-13.2228
-17.6385
-601.083
-628.914
-657.328
-686.353
-716.04
-746.417
-777.55
-809.468
-842.256
-875.976
-910.679
-946.439
-983.386
-1021.57
-1061.1
-1102.12
-1144.79
-1189.17
-1235.52
-1283.98
-1334.82
-1388.26
-1444.64
-1504.23
-1567.47
-1634.81
-1706.81
-1784.13
-1867.54
-1957.78
-2055.83
-2164.32
-2286.39
-158.981
-156.42
-153.76
-151.013
-148.189
-145.297
-142.347
-139.346
-136.303
-133.225
-130.12
-126.994
-123.855
-120.71
-117.562
-114.42
-111.288
-108.171
-105.074
-102.003
-98.9602
-95.9504
-92.9765
-90.0431
-87.152
-84.3065
-81.5089
-78.7613
-76.0654
-73.4229
-70.8349
-68.3026
-65.8265
-63.4073
-61.0457
-58.7415
-56.4948
-54.3053
-52.1725
-50.096
-48.0752
-46.1088
-44.1959
-42.3354
-40.526
-38.7661
-37.0541
-35.388
-33.7661
-32.1859
-30.6452
-29.1412
-27.6709
-26.2313
-24.8189
-23.4277
-22.0563
-20.7075
-19.3367
-17.9598
-16.8328
-15.0894
-12.9173
-17.4415
-600.65
-628.458
-656.85
-685.86
-715.537
-745.909
-777.033
-808.94
-841.717
-875.426
-910.12
-945.875
-982.814
-1021
-1060.52
-1101.53
-1144.2
-1188.58
-1234.92
-1283.38
-1334.21
-1387.65
-1444.01
-1503.59
-1566.82
-1634.15
-1706.14
-1783.43
-1866.82
-1957.04
-2055.06
-2163.43
-2285.43
-2363.1
-166.203
-163.533
-160.762
-157.9
-154.959
-151.949
-148.877
-145.754
-142.587
-139.384
-136.152
-132.899
-129.631
-126.357
-123.081
-119.809
-116.547
-113.301
-110.075
-106.875
-103.705
-100.568
-97.468
-94.4087
-91.3944
-88.4263
-85.5079
-82.641
-79.8275
-77.0692
-74.3674
-71.7233
-69.1376
-66.6112
-64.1444
-61.7376
-59.3903
-57.103
-54.8747
-52.7053
-50.5938
-48.5394
-46.5411
-44.5977
-42.7079
-40.8702
-39.0829
-37.3442
-35.6523
-34.0047
-32.3994
-30.8334
-29.3041
-27.8081
-26.3423
-24.9027
-23.4833
-22.0814
-20.701
-19.2984
-17.8753
-16.7083
-14.9693
-12.5955
-17.2217
-600.199
-627.983
-656.353
-685.342
-715
-745.359
-776.478
-808.38
-841.148
-874.844
-909.527
-945.273
-982.204
-1020.38
-1059.9
-1100.9
-1143.56
-1187.94
-1234.27
-1282.72
-1333.55
-1386.98
-1443.33
-1502.9
-1566.11
-1633.43
-1705.4
-1782.67
-1866.03
-1956.22
-2054.21
-2162.54
-2284.43
-2361.89
-2388.56
-173.75
-170.964
-168.073
-165.091
-162.027
-158.891
-155.692
-152.44
-149.142
-145.808
-142.444
-139.058
-135.657
-132.248
-128.837
-125.43
-122.033
-118.653
-115.293
-111.959
-108.655
-105.385
-102.154
-98.9652
-95.8213
-92.7261
-89.6814
-86.6906
-83.7547
-80.8759
-78.0554
-75.295
-72.595
-69.9569
-67.3807
-64.8665
-62.4148
-60.0252
-57.6974
-55.431
-53.2251
-51.079
-48.9915
-46.9618
-44.9881
-43.0693
-41.2036
-39.3892
-37.6242
-35.9065
-34.2336
-32.6031
-31.0121
-29.4576
-27.9362
-26.444
-24.9774
-23.5297
-22.0974
-20.6851
-19.2512
-17.7819
-16.5711
-14.8444
-12.2583
-16.9802
-599.729
-627.489
-655.835
-684.803
-714.441
-744.781
-775.883
-807.777
-840.539
-874.228
-908.902
-944.637
-981.555
-1019.72
-1059.23
-1100.23
-1142.88
-1187.25
-1233.57
-1282.02
-1332.84
-1386.25
-1442.6
-1502.15
-1565.35
-1632.65
-1704.59
-1781.84
-1865.16
-1955.32
-2053.27
-2161.55
-2283.38
-2360.94
-2387.33
-2413.99
-181.636
-178.727
-175.711
-172.6
-169.406
-166.137
-162.805
-159.417
-155.983
-152.511
-149.007
-145.482
-141.942
-138.392
-134.841
-131.293
-127.755
-124.234
-120.735
-117.261
-113.819
-110.412
-107.044
-103.719
-100.441
-97.2132
-94.0373
-90.9169
-87.8536
-84.8491
-81.9055
-79.0235
-76.2049
-73.4501
-70.7596
-68.134
-65.5732
-63.0771
-60.6455
-58.2779
-55.9736
-53.7319
-51.5515
-49.4314
-47.3704
-45.367
-43.4194
-41.526
-39.6849
-37.8938
-36.1505
-34.4525
-32.7971
-31.1813
-29.6018
-28.0548
-26.5366
-25.043
-23.5672
-22.1045
-20.6601
-19.1953
-17.6798
-16.4211
-14.7159
-11.9065
-16.7126
-599.241
-626.974
-655.296
-684.241
-713.858
-744.178
-775.26
-807.138
-839.887
-873.566
-908.233
-943.965
-980.871
-1019.02
-1058.52
-1099.51
-1142.15
-1186.51
-1232.82
-1281.26
-1332.07
-1385.47
-1441.8
-1501.34
-1564.51
-1631.79
-1703.71
-1780.92
-1864.22
-1954.34
-2052.24
-2160.44
-2282.22
-2359.81
-2386.38
-2412.8
-2440.08
-189.881
-186.84
-183.691
-180.444
-177.111
-173.703
-170.23
-166.7
-163.122
-159.505
-155.857
-152.184
-148.498
-144.802
-141.102
-137.409
-133.725
-130.057
-126.412
-122.793
-119.206
-115.655
-112.145
-108.68
-105.262
-101.896
-98.583
-95.3279
-92.1314
-88.9966
-85.9243
-82.9164
-79.9733
-77.0972
-74.288
-71.5458
-68.8711
-66.264
-63.7243
-61.2513
-58.8442
-56.5025
-54.2252
-52.0111
-49.8588
-47.767
-45.734
-43.7581
-41.8374
-39.9696
-38.1527
-36.3842
-34.6614
-32.9813
-31.3408
-29.7364
-28.1642
-26.6201
-25.0996
-23.5958
-22.1028
-20.6261
-19.1307
-17.5694
-16.2588
-14.5847
-11.5401
-16.4238
-598.734
-626.439
-654.734
-683.657
-713.251
-743.551
-774.612
-806.471
-839.201
-872.864
-907.519
-943.243
-980.143
-1018.28
-1057.77
-1098.75
-1141.37
-1185.72
-1232.02
-1280.44
-1331.24
-1384.63
-1440.94
-1500.45
-1563.61
-1630.86
-1702.75
-1779.93
-1863.19
-1953.26
-2051.1
-2159.23
-2280.93
-2358.55
-2385.26
-2411.88
-2438.88
-2466.11
-198.504
-195.323
-192.03
-188.639
-185.161
-181.605
-177.983
-174.302
-170.574
-166.804
-163.003
-159.179
-155.338
-151.488
-147.635
-143.788
-139.952
-136.132
-132.334
-128.564
-124.826
-121.126
-117.467
-113.854
-110.291
-106.781
-103.327
-99.9308
-96.5965
-93.3251
-90.119
-86.9793
-83.9076
-80.9046
-77.9712
-75.1079
-72.3147
-69.5919
-66.939
-64.3558
-61.8418
-59.396
-57.0173
-54.7051
-52.4576
-50.2735
-48.1512
-46.0891
-44.0852
-42.1373
-40.2434
-38.401
-36.6075
-34.86
-33.1555
-31.4906
-29.8615
-28.2643
-26.6944
-25.1472
-23.6156
-22.0924
-20.5833
-19.0579
-17.452
-16.0839
-14.4519
-11.1614
-16.1112
-598.206
-625.881
-654.15
-683.047
-712.617
-742.897
-773.936
-805.776
-838.488
-872.131
-906.767
-942.477
-979.362
-1017.49
-1056.98
-1097.94
-1140.54
-1184.88
-1231.16
-1279.57
-1330.35
-1383.72
-1440.01
-1499.5
-1562.64
-1629.86
-1701.71
-1778.86
-1862.07
-1952.09
-2049.86
-2157.91
-2279.52
-2357.16
-2384
-2410.78
-2437.94
-2464.97
-2492.78
-207.524
-204.193
-200.749
-197.205
-193.571
-189.859
-186.079
-182.241
-178.352
-174.423
-170.462
-166.477
-162.475
-158.464
-154.451
-150.443
-146.447
-142.467
-138.511
-134.583
-130.688
-126.832
-123.019
-119.253
-115.538
-111.879
-108.276
-104.734
-101.256
-97.8426
-94.4971
-91.2205
-88.014
-84.8792
-81.8165
-78.8267
-75.9099
-73.0662
-70.2958
-67.5977
-64.9717
-62.4172
-59.933
-57.518
-55.1711
-52.8906
-50.6752
-48.523
-46.432
-44.4004
-42.4259
-40.5061
-38.6385
-36.8203
-35.0484
-33.3197
-31.6305
-29.9771
-28.355
-26.7595
-25.1858
-23.6267
-22.0737
-20.532
-18.9769
-17.328
-15.8965
-14.3188
-10.7716
-15.7718
-597.657
-625.301
-653.542
-682.413
-711.957
-742.214
-773.232
-805.052
-837.743
-871.367
-905.984
-941.675
-978.541
-1016.66
-1056.12
-1097.08
-1139.67
-1183.99
-1230.25
-1278.64
-1329.4
-1382.75
-1439.01
-1498.48
-1561.58
-1628.77
-1700.59
-1777.69
-1860.85
-1950.8
-2048.51