/*--------------------------------*- C++ -*----------------------------------*\
  =========                 |
  \\      /  F ield         | OpenFOAM: The Open Source CFD Toolbox
   \\    /   O peration     | Website:  https://openfoam.org
    \\  /    A nd           | Version:  7
     \\/     M anipulation  |
\*---------------------------------------------------------------------------*/
FoamFile
{
    version     2.0;
    format      ascii;
    class       surfaceScalarField;
    location    "2000";
    object      phi;
}
// * * * * * * * * * * * * * * * * * * * * * * * * * * * * * * * * * * * * * //

dimensions      [0 3 -1 0 0 0 0];

internalField   nonuniform List<scalar> 
45818
(
0.0756486
0.146617
0.0724781
0.140224
0.0757458
0.149939
0.0694394
0.134113
0.0725687
0.143401
0.0758231
0.153255
0.0665309
0.12827
0.0695286
0.137153
0.072641
0.146583
0.0758821
0.156562
0.0637353
0.122705
0.0666151
0.131183
0.0696044
0.14019
0.0727119
0.149754
0.0759313
0.159866
0.0610645
0.117354
0.0638365
0.125483
0.0666944
0.134093
0.0696787
0.143223
0.0727694
0.152915
0.0759656
0.163166
0.0585098
0.11225
0.0611742
0.120016
0.0639193
0.128258
0.0667723
0.137
0.0697348
0.146258
0.0728022
0.156079
0.0759766
0.166477
0.0560646
0.107388
0.0585996
0.114824
0.0612371
0.122698
0.0639823
0.131048
0.0668134
0.139921
0.0697626
0.149298
0.0728217
0.159234
0.0759728
0.16977
0.0537195
0.102737
0.0561553
0.109833
0.0586845
0.117377
0.0613136
0.125367
0.0640369
0.133825
0.0668681
0.142816
0.0697989
0.15232
0.0728213
0.162385
0.0759591
0.17306
0.0514729
0.0982887
0.053812
0.10508
0.056242
0.112275
0.0587646
0.119926
0.0613803
0.128023
0.0640852
0.136608
0.066903
0.145712
0.0697936
0.155348
0.0727977
0.165547
0.0759306
0.176329
0.0493254
0.0940411
0.0515663
0.100534
0.0538946
0.107428
0.0563113
0.114728
0.0588213
0.122485
0.0614236
0.130685
0.0641151
0.139396
0.0669011
0.148604
0.0698002
0.158345
0.0727959
0.168681
0.0758655
0.179597
0.0472668
0.0899842
0.049412
0.0961955
0.0516522
0.102777
0.053972
0.109767
0.0563779
0.117172
0.0588732
0.125035
0.0614621
0.133338
0.0641402
0.142156
0.0669079
0.151496
0.0697618
0.161379
0.0727293
0.171818
0.0757939
0.182863
0.0452895
0.0861093
0.0473552
0.092041
0.049501
0.0983467
0.0517227
0.105026
0.0540318
0.112113
0.056428
0.119617
0.0589103
0.127587
0.0614673
0.136011
0.0641321
0.144932
0.0668863
0.154372
0.0697354
0.164373
0.0726711
0.17494
0.0756991
0.186106
0.0434061
0.0823986
0.0453811
0.0880834
0.0474374
0.0941045
0.0495711
0.100498
0.0517884
0.10727
0.0540841
0.114457
0.0564646
0.122063
0.058929
0.130125
0.0614911
0.138652
0.0641325
0.147686
0.0668684
0.157239
0.0696807
0.167364
0.0725847
0.178055
0.0755845
0.189355
0.0415917
0.0788649
0.0434895
0.0842902
0.0454664
0.0900544
0.0475107
0.0961649
0.0496399
0.102647
0.0518439
0.10951
0.0541338
0.116788
0.0564981
0.124494
0.0589564
0.13266
0.0614816
0.141303
0.0641047
0.15045
0.0668038
0.160116
0.0696028
0.170346
0.0724919
0.181147
0.0754551
0.192581
0.0398626
0.0754767
0.0416819
0.0806725
0.0435717
0.0861849
0.0455365
0.0920286
0.0475813
0.0982235
0.0496935
0.104797
0.0518818
0.111762
0.0541583
0.119127
0.056512
0.126938
0.0589369
0.135205
0.0614623
0.143945
0.0640536
0.1532
0.0667394
0.162979
0.0695101
0.173328
0.0723576
0.184245
0.0753025
0.195795
0.0382012
0.0722515
0.0399433
0.0772153
0.0417609
0.0824833
0.0436513
0.0880701
0.0456053
0.0940046
0.0476295
0.100288
0.0497373
0.106942
0.0519234
0.113997
0.0541766
0.121463
0.0565169
0.129358
0.0589447
0.137722
0.0614332
0.146566
0.064011
0.155928
0.0666636
0.165826
0.0693975
0.176288
0.0722184
0.187329
0.0751385
0.198981
0.0366087
0.0691644
0.0382836
0.0739112
0.0400277
0.0789485
0.0418373
0.0842973
0.0437119
0.0899635
0.0456616
0.0959724
0.0476864
0.102339
0.0497758
0.109089
0.0519449
0.116228
0.054186
0.123794
0.0565016
0.131801
0.0588921
0.140263
0.0613758
0.149201
0.0639303
0.158662
0.0665695
0.168654
0.0692802
0.179226
0.0720628
0.190405
0.0749196
0.202173
0.035088
0.0662087
0.036693
0.0707551
0.0383649
0.075574
0.0400959
0.0806899
0.0418998
0.0861094
0.04377
0.0918551
0.0457067
0.097952
0.0477181
0.104396
0.0498018
0.111232
0.0519538
0.118461
0.0541829
0.126112
0.0564851
0.134208
0.0588617
0.142777
0.0613001
0.151831
0.0638448
0.161386
0.0664422
0.171492
0.0691247
0.182164
0.071889
0.193435
0.0747126
0.205333
0.0336312
0.0633948
0.0351663
0.0677354
0.036771
0.0723489
0.0384335
0.0772364
0.0401666
0.0824231
0.041956
0.0879234
0.0438169
0.0937449
0.0457515
0.0999186
0.0477449
0.106453
0.0498152
0.113371
0.0519502
0.120693
0.0541659
0.128431
0.0564497
0.13662
0.058808
0.145269
0.0612365
0.154439
0.063726
0.164103
0.0663052
0.174311
0.0689509
0.185102
0.071677
0.196471
0.0744724
0.20848
0.0322299
0.0607024
0.033705
0.0648561
0.0352448
0.0692616
0.0368451
0.0739373
0.0384996
0.0789034
0.0402196
0.0841595
0.0420111
0.0897293
0.0438613
0.0956352
0.0457765
0.101887
0.0477665
0.108502
0.0498174
0.115504
0.0519441
0.122915
0.0541315
0.13075
0.0563955
0.139033
0.0587261
0.14778
0.0611362
0.157029
0.0636024
0.166805
0.0661483
0.177114
0.0687742
0.188005
0.0714503
0.199493
0.0742075
0.211613
0.0308926
0.0581278
0.0323042
0.0621033
0.033784
0.0663169
0.0353107
0.070796
0.036903
0.0755339
0.0385608
0.0805622
0.0402751
0.0858955
0.0420522
0.0915383
0.043893
0.0975187
0.0458012
0.103852
0.0477705
0.110549
0.0498094
0.117638
0.0519141
0.125133
0.0540931
0.133052
0.0563288
0.14143
0.0586437
0.150272
0.0610162
0.159615
0.0634725
0.169481
0.0659817
0.179906
0.0685525
0.190903
0.0711954
0.202505
0.0739061
0.214728
0.0296081
0.055672
0.0309638
0.0594682
0.0323836
0.0635037
0.0338503
0.0677773
0.035379
0.07232
0.0369633
0.0771315
0.0386067
0.0822306
0.0403144
0.0876333
0.0420808
0.0933506
0.0439122
0.0994077
0.0458098
0.105813
0.0477683
0.11259
0.0497889
0.119764
0.0518815
0.127344
0.0540309
0.13535
0.0562533
0.14382
0.0585336
0.152755
0.0608948
0.162193
0.0633059
0.172157
0.0657903
0.182668
0.0683378
0.19376
0.0709425
0.205469
0.0736067
0.217811
0.0283795
0.053323
0.0296788
0.056957
0.0310372
0.0608146
0.032449
0.064905
0.0339141
0.0692422
0.0354361
0.0738471
0.0370173
0.0787209
0.0386592
0.0838858
0.0403547
0.0893593
0.0421117
0.0951511
0.0439275
0.10129
0.0458058
0.107775
0.0477473
0.114632
0.0497609
0.121884
0.0518265
0.129548
0.0539575
0.137646
0.0561603
0.146194
0.0584182
0.155232
0.0607283
0.164771
0.0631146
0.174833
0.0655673
0.185439
0.0680717
0.196631
0.0706298
0.208446
0.0732558
0.220877
0.0272009
0.051078
0.0284498
0.0545521
0.0297577
0.0582364
0.0311095
0.0621541
0.0325095
0.0663095
0.033973
0.0707053
0.035492
0.0753725
0.0370602
0.0803198
0.0386849
0.0855556
0.0403738
0.0910972
0.0421216
0.0969571
0.043933
0.103163
0.0457978
0.109725
0.0477288
0.116664
0.0497117
0.123999
0.0517613
0.131745
0.0538753
0.139931
0.0560421
0.14857
0.058278
0.157682
0.0605689
0.167317
0.0629319
0.177468
0.065333
0.188178
0.0677957
0.199465
0.070334
0.211367
0.0729035
0.22391
0.0260741
0.0489323
0.0272727
0.0522551
0.0285223
0.0557875
0.0298176
0.0595283
0.0311677
0.0634959
0.0325725
0.06771
0.0340229
0.0721744
0.0355339
0.0768988
0.0370991
0.0819056
0.0387222
0.0872073
0.0403954
0.0928234
0.0421338
0.0987563
0.0439233
0.105037
0.0457738
0.11168
0.0476813
0.118694
0.0496559
0.126104
0.0516849
0.133935
0.0537743
0.142199
0.0559177
0.15093
0.0581214
0.160129
0.0603997
0.169849
0.0626977
0.180103
0.0650705
0.190903
0.067495
0.202304
0.0699634
0.214308
0.0724948
0.226943
0.0249923
0.046884
0.0261425
0.0500625
0.0273393
0.0534381
0.0285826
0.0570225
0.0298777
0.0608183
0.0312225
0.064846
0.0326178
0.0691151
0.0340716
0.0736367
0.0355695
0.0784284
0.0371268
0.083501
0.0387355
0.0888671
0.0404044
0.0945527
0.0421222
0.100557
0.0439073
0.106904
0.0457458
0.113615
0.0476377
0.120712
0.0495854
0.128204
0.0515947
0.136115
0.0536558
0.144461
0.0557782
0.153273
0.0579523
0.162577
0.0601789
0.172368
0.0624671
0.182707
0.0648017
0.193596
0.0671796
0.205088
0.0696098
0.217193
0.0720897
0.22993
0.0239584
0.0449251
0.0250608
0.0479657
0.0262097
0.051192
0.0274017
0.054619
0.0286468
0.0582534
0.0299351
0.0621057
0.0312768
0.066187
0.0326669
0.0705197
0.0341077
0.0750986
0.035604
0.0799511
0.0371469
0.0850897
0.0387527
0.0905189
0.0404073
0.0962676
0.0421143
0.10235
0.0438774
0.108772
0.0456967
0.115556
0.0475716
0.122726
0.0494996
0.130299
0.051482
0.138288
0.0535184
0.14672
0.0556113
0.155614
0.0577594
0.164996
0.0599484
0.174886
0.0621984
0.18531
0.0644863
0.19629
0.0668395
0.207858
0.0692181
0.220064
0.0716449
0.23289
0.0229664
0.0430539
0.0240231
0.0459628
0.0251246
0.0490508
0.0262697
0.0523241
0.0274678
0.055798
0.0286996
0.0594889
0.0299877
0.0633948
0.0313228
0.0675311
0.0327112
0.0719161
0.0341389
0.0765637
0.0356245
0.0814735
0.0371658
0.0866765
0.0387509
0.0921753
0.0403912
0.0979907
0.0420889
0.104139
0.0438364
0.110632
0.0456373
0.117491
0.0474903
0.124735
0.0494027
0.132378
0.0513604
0.140446
0.0533723
0.148959
0.0554369
0.157937
0.0575441
0.167401
0.0597116
0.177373
0.0619065
0.18789
0.0641696
0.198959
0.0664578
0.210618
0.0688067
0.222902
0.0711637
0.235835
0.0220163
0.0412655
0.0230302
0.0440468
0.0240869
0.0470005
0.0251861
0.0501344
0.0263314
0.0534604
0.0275132
0.0569844
0.0287563
0.0607203
0.0300363
0.0646813
0.0313611
0.0688813
0.0327351
0.07332
0.0341648
0.0780234
0.0356402
0.0829991
0.0371708
0.0882566
0.038748
0.0938185
0.0403776
0.0997021
0.0420547
0.105921
0.0437879
0.112482
0.0455682
0.119413
0.0474029
0.126735
0.049287
0.134452
0.0512214
0.142597
0.05321
0.151186
0.0552387
0.160242
0.05732
0.169792
0.0594422
0.179837
0.0616167
0.190443
0.0638198
0.201597
0.0660599
0.213365
0.068339
0.225727
0.0706662
0.238739
0.0211057
0.0395561
0.0220788
0.0422169
0.0230917
0.045042
0.0241466
0.0480401
0.0252434
0.0512223
0.0263838
0.0545899
0.0275689
0.0581718
0.0287953
0.0619613
0.03007
0.0659723
0.0313968
0.0702196
0.0327692
0.0747156
0.0341873
0.0794763
0.0356534
0.0845165
0.0371646
0.08984
0.0387274
0.0954686
0.0403441
0.101413
0.0420106
0.107698
0.0437205
0.11433
0.0454888
0.121327
0.0473029
0.128719
0.0491587
0.136515
0.05107
0.144737
0.053024
0.153401
0.0550267
0.162535
0.0570721
0.172163
0.0591525
0.182302
0.0612854
0.192977
0.0634454
0.204212
0.0656523
0.216052
0.0678782
0.228515
0.0701257
0.241624
1.49823e-06
-0.000100692
0.0202335
0.0379242
0.0211653
0.0404695
0.0221385
0.0431701
0.0231495
0.046039
0.024203
0.0490805
0.0252985
0.0523077
0.0264321
0.0557267
0.0276134
0.0593536
0.0288381
0.0631932
0.0301111
0.067258
0.0314249
0.0715639
0.0327807
0.0761222
0.0341908
0.0809389
0.0356475
0.0860336
0.0371522
0.0914152
0.0387044
0.0971084
0.040304
0.103119
0.0419513
0.109467
0.0436469
0.116171
0.0453883
0.123242
0.0471791
0.130699
0.0490217
0.138563
0.0508997
0.146862
0.0528228
0.155605
0.0547923
0.164815
0.0568018
0.174513
0.05885
0.184737
0.0609343
0.195488
0.0630512
0.206813
0.0651966
0.218733
0.067371
0.23127
0.0695789
0.244449
3.05456e-06
-0.000112799
1.49716e-06
-0.000102189
0.0193977
0.0363611
0.0202933
0.0387962
0.0212252
0.0413828
0.0221934
0.0441262
0.0232045
0.0470375
0.0242551
0.0501239
0.0253423
0.0533975
0.0264771
0.056863
0.0276566
0.0605351
0.0288746
0.0644298
0.0301346
0.0685482
0.0314432
0.0729015
0.032801
0.0775121
0.0341981
0.0823883
0.0356419
0.0875439
0.0371309
0.0929887
0.0386688
0.0987437
0.0402555
0.104815
0.0418858
0.111228
0.0435595
0.118
0.045284
0.125137
0.0470479
0.132673
0.0488572
0.140605
0.0507106
0.148974
0.0526068
0.157791
0.0545392
0.167078
0.0565078
0.176855
0.0585188
0.187152
0.0605502
0.197989
0.062629
0.209381
0.0647263
0.221378
0.0668426
0.234006
0.0689757
0.247265
4.76439e-06
-0.000123766
3.09132e-06
-0.000114393
1.47211e-06
-0.00010366
0.0185978
0.0348707
0.0194542
0.0372002
0.0203493
0.0396721
0.0212798
0.0422965
0.022249
0.0450817
0.0232567
0.0480359
0.024303
0.0511632
0.0253898
0.0544848
0.0265193
0.0580004
0.0276922
0.0617175
0.0289035
0.0656609
0.0301583
0.069833
0.0314588
0.0742436
0.0328
0.0789102
0.0341865
0.0838437
0.0356223
0.0890525
0.0370984
0.0945591
0.0386234
0.100376
0.0401881
0.106513
0.0418028
0.112985
0.0434595
0.119825
0.0451585
0.127026
0.0468991
0.134631
0.0486816
0.142634
0.0505104
0.15107
0.0523708
0.159959
0.0542686
0.169317
0.0562014
0.179173
0.0581638
0.189539
0.0601549
0.200463
0.0621721
0.211935
0.064213
0.224008
0.0662729
0.236709
0.0683479
0.250047
6.54909e-06
-0.000133687
4.76787e-06
-0.000125442
3.07948e-06
-0.000116001
1.54834e-06
-0.000105208
0.0178304
0.0334453
0.0186526
0.0356723
0.01951
0.0380396
0.0204026
0.0405492
0.0213325
0.043213
0.0222999
0.0460385
0.0233042
0.0490346
0.0243496
0.0522034
0.0254326
0.0555715
0.026559
0.0591336
0.0277151
0.0629059
0.0289262
0.066893
0.0301744
0.0711174
0.0314619
0.0755818
0.0327987
0.0802979
0.0341764
0.0852896
0.0355965
0.0905544
0.0370633
0.0961192
0.0385663
0.101998
0.0401168
0.108198
0.0417059
0.114739
0.0433435
0.12164
0.0450191
0.128906
0.0467366
0.136576
0.0484908
0.144654
0.0502815
0.153159
0.052111
0.162117
0.0539743
0.171544
0.0558699
0.181467
0.0577929
0.191901
0.0597435
0.202892
0.0617056
0.214442
0.0636933
0.226587
0.0657002
0.239357
0.0677038
0.252787
8.48947e-06
-0.0001434
6.59811e-06
-0.000135517
4.84437e-06
-0.000127207
3.12353e-06
-0.000117576
1.4904e-06
-0.000106698
0.0170954
0.0320816
0.0178849
0.034213
0.0187065
0.0364758
0.0195629
0.0388793
0.020455
0.0414267
0.021383
0.0441298
0.022347
0.0469958
0.0233485
0.0500358
0.0243835
0.0532525
0.0254698
0.0566607
0.0265823
0.0602664
0.0277447
0.0640874
0.0289427
0.0681246
0.0301829
0.0723965
0.0314637
0.0769168
0.032789
0.0816852
0.034156
0.0867301
0.0355595
0.0920581
0.0370057
0.0976798
0.0385008
0.103614
0.0400308
0.109874
0.0416042
0.116478
0.0432186
0.12344
0.0448673
0.130775
0.0465579
0.138509
0.0482876
0.146648
0.0500451
0.155225
0.0518414
0.16425
0.0536626
0.173751
0.0555124
0.183747
0.0573869
0.194257
0.0592887
0.205309
0.0612094
0.216926
0.0631307
0.229157
0.0650662
0.241994
0.0670169
0.255481
1.05534e-05
-0.000153215
8.5475e-06
-0.00014535
6.6467e-06
-0.00013732
4.85883e-06
-0.000128943
3.11637e-06
-0.000119202
1.5345e-06
-0.000108232
0.0163918
0.0307786
0.0171476
0.0328189
0.0179365
0.0349829
0.0187577
0.037281
0.0196145
0.0397198
0.0205022
0.0423075
0.0214278
0.045049
0.0223893
0.0479549
0.0233879
0.0510314
0.0244291
0.0542932
0.0254951
0.0577479
0.0266109
0.0614002
0.0277652
0.0652649
0.028953
0.0693545
0.0301851
0.0736751
0.0314594
0.0782464
0.0327653
0.0830758
0.0341193
0.0881703
0.0355136
0.0935502
0.0369469
0.0992336
0.0384214
0.105223
0.0399344
0.111543
0.0414874
0.118209
0.0430761
0.125231
0.0447031
0.13263
0.0463668
0.140429
0.048057
0.148636
0.04979
0.157277
0.0515405
0.166372
0.0533258
0.175938
0.0551398
0.185994
0.0569672
0.196579
0.0588106
0.207708
0.0606618
0.219395
0.0625485
0.231674
0.0644176
0.244594
0.066292
0.258137
1.27487e-05
-0.000163302
1.06228e-05
-0.00015529
8.60992e-06
-0.000147313
6.71293e-06
-0.000139174
4.82728e-06
-0.000130654
3.21571e-06
-0.000120883
1.5514e-06
-0.000109784
0.0157161
0.0295339
0.0164423
0.0314839
0.017199
0.0335564
0.0179849
0.0357557
0.018807
0.0380885
0.0196599
0.0405621
0.0205491
0.0431862
0.0214722
0.0459661
0.0224314
0.0489114
0.0234261
0.0520344
0.0244556
0.0553327
0.0255263
0.0588325
0.0266304
0.0625351
0.0277744
0.0664435
0.0289542
0.0705854
0.0301761
0.0749584
0.0314375
0.0795742
0.0327419
0.0844533
0.0340802
0.0896038
0.0354566
0.0950405
0.0368742
0.100781
0.0383295
0.106828
0.0398233
0.113207
0.0413557
0.11993
0.0429162
0.127018
0.044515
0.134482
0.0461505
0.142336
0.0478139
0.150612
0.0495074
0.15931
0.0512321
0.168465
0.0529744
0.178103
0.0547363
0.188225
0.0565166
0.198873
0.0583179
0.210052
0.0601214
0.221822
0.0619283
0.234164
0.0637344
0.247151
0.0655275
0.260764
1.50846e-05
-0.000173812
1.2832e-05
-0.000165511
1.06585e-05
-0.000157339
8.64889e-06
-0.000149249
6.7402e-06
-0.000141087
4.94188e-06
-0.00013238
3.17051e-06
-0.000122502
1.54156e-06
-0.000111326
0.0150704
0.0283423
0.0157658
0.0302103
0.0164899
0.032193
0.0172461
0.0342952
0.0180339
0.0365288
0.0188525
0.0388959
0.0197054
0.0414058
0.0205907
0.0440678
0.021512
0.0468856
0.0224637
0.0498738
0.0234566
0.0530333
0.0244808
0.0563782
0.0255412
0.0599218
0.0266415
0.063668
0.0277775
0.0676202
0.0289556
0.0718059
0.030171
0.0762249
0.031418
0.0808982
0.032703
0.0858305
0.0340262
0.0910342
0.0353919
0.0965228
0.0367954
0.102315
0.03823
0.108421
0.0396997
0.114863
0.0412038
0.121642
0.0427489
0.128784
0.0443208
0.136312
0.0459232
0.144227
0.047557
0.152562
0.0492111
0.161331
0.0508927
0.170547
0.0525979
0.180242
0.0543127
0.190429
0.0560473
0.201143
0.0577839
0.212389
0.0595367
0.224214
0.0612736
0.236625
0.0630217
0.249657
0.0647568
0.26334
1.75267e-05
-0.000184781
1.51408e-05
-0.000176121
1.28862e-05
-0.000167739
1.08003e-05
-0.000159491
8.73779e-06
-0.000151246
6.78962e-06
-0.000142935
4.92421e-06
-0.000134134
3.21852e-06
-0.000124179
1.61299e-06
-0.000112939
0.0144505
0.0272057
0.0151163
0.0289918
0.0158127
0.0308874
0.0165377
0.0329014
0.0172924
0.0350368
0.0180797
0.0373016
0.0188968
0.0397045
0.0197477
0.0422488
0.020629
0.0449507
0.0215469
0.0478024
0.0224997
0.0508307
0.0234823
0.0540317
0.0245012
0.0574182
0.0255599
0.0610034
0.0266521
0.0647934
0.0277779
0.0687979
0.0289458
0.0730311
0.0301418
0.077501
0.0313822
0.0822189
0.0326557
0.0872009
0.0339682
0.0924579
0.0353148
0.0980034
0.0366939
0.103851
0.0381131
0.110008
0.0395658
0.116501
0.0410458
0.123345
0.042564
0.130541
0.0441091
0.138126
0.0456784
0.146105
0.0472741
0.154499
0.0488938
0.16333
0.0505346
0.17261
0.0521927
0.182362
0.0538632
0.192613
0.055548
0.203379
0.0572339
0.214692
0.0589181
0.226569
0.0606077
0.239039
0.0622662
0.252147
0.06392
0.265877
2.01732e-05
-0.000196357
1.76464e-05
-0.000187286
1.52598e-05
-0.000178495
1.30049e-05
-0.000169944
1.08259e-05
-0.000161579
8.80743e-06
-0.000153264
6.83506e-06
-0.000144845
5.05462e-06
-0.00013597
3.26713e-06
-0.000125833
1.56413e-06
-0.000114504
0.0138566
0.0261176
0.0144958
0.0278262
0.0151635
0.029641
0.0158589
0.0315663
0.0165833
0.0336105
0.0173383
0.0357782
0.0181221
0.0380763
0.0189382
0.040514
0.0197847
0.0430931
0.0206671
0.0458305
0.021577
0.0487251
0.022523
0.05179
0.0235003
0.0550326
0.0245203
0.0584578
0.0255673
0.0620881
0.0266493
0.0659219
0.0277721
0.0699717
0.028922
0.0742509
0.0301164
0.0787668
0.0313389
0.0835358
0.0326031
0.088566
0.0338978
0.0938749
0.0352264
0.0994709
0.0365914
0.105373
0.037985
0.111589
0.0394136
0.118134
0.0408754
0.125034
0.0423567
0.132293
0.043875
0.139929
0.0454148
0.147965
0.0469775
0.156416
0.0485627
0.165302
0.0501592
0.174644
0.0517729
0.184452
0.0533949
0.194766
0.0550192
0.205594
0.0566504
0.21696
0.0582749
0.228902
0.0598855
0.241419
0.0614811
0.254586
0.063067
0.268368
2.29456e-05
-0.000208505
2.02707e-05
-0.000198981
1.77906e-05
-0.000189817
1.54029e-05
-0.000180893
1.31e-05
-0.000172218
1.09621e-05
-0.000163733
8.87749e-06
-0.000155307
6.98855e-06
-0.000146779
5.13755e-06
-0.00013784
3.32361e-06
-0.000127592
1.62911e-06
-0.000116134
0.013287
0.025078
0.0139007
0.0267128
0.0145408
0.028449
0.0152069
0.030293
0.0159026
0.032247
0.0166259
0.0343229
0.017379
0.0365213
0.0181623
0.0388522
0.0189759
0.0413228
0.0198199
0.0439404
0.0206949
0.0467126
0.0216044
0.0496438
0.0225451
0.0527452
0.0235235
0.0560294
0.0245253
0.0594998
0.0255736
0.0631638
0.0266489
0.0670451
0.0277564
0.0711373
0.0289034
0.0754639
0.0300798
0.0800259
0.0312958
0.0848431
0.0325357
0.089928
0.0338175
0.0952839
0.0351305
0.100932
0.0364699
0.106888
0.0378444
0.113158
0.0392497
0.119759
0.0406824
0.126708
0.042142
0.134027
0.0436258
0.141718
0.0451288
0.149813
0.0466584
0.15832
0.0481993
0.167262
0.04976
0.176657
0.0513217
0.186525
0.0528981
0.196887
0.0544703
0.207774
0.0560382
0.219196
0.0576008
0.231187
0.0591442
0.243756
0.0606848
0.256969
0.0621712
0.270824
2.59469e-05
-0.000221409
2.31156e-05
-0.00021135
2.04892e-05
-0.00020168
1.79161e-05
-0.00019233
1.54822e-05
-0.000183275
1.32634e-05
-0.000174519
1.10155e-05
-0.000165871
9.01298e-06
-0.000157331
7.05526e-06
-0.000148697
5.13755e-06
-0.000139654
3.33791e-06
-0.000129301
1.65431e-06
-0.000117789
0.012743
0.0240823
0.013331
0.0256476
0.0139439
0.0273096
0.0145829
0.029073
0.0152504
0.0309452
0.0159451
0.0329279
0.0166679
0.035034
0.0174183
0.0372653
0.0181996
0.0396285
0.0190107
0.042132
0.0198533
0.0447819
0.0207249
0.0475921
0.0216291
0.0505598
0.0225659
0.0537028
0.0235326
0.0570221
0.0245356
0.0605377
0.0255671
0.0642456
0.0266359
0.0681656
0.0277354
0.0723053
0.0288672
0.0766765
0.0300321
0.0812897
0.0312273
0.0861516
0.0324608
0.0912848
0.0337219
0.0966925
0.0350171
0.102385
0.0363424
0.10839
0.0376963
0.114711
0.0390725
0.121369
0.040482
0.128368
0.0419084
0.135744
0.0433568
0.14349
0.0448318
0.15164
0.0463206
0.160199
0.0478221
0.169199
0.0493335
0.178645
0.0508496
0.188574
0.0523703
0.198987
0.0538929
0.209919
0.0554039
0.221393
0.0568982
0.233433
0.058376
0.246065
0.0598224
0.259317
0.0612359
0.27323
2.91444e-05
-0.000235071
2.61486e-05
-0.000224442
2.33205e-05
-0.000214181
2.06471e-05
-0.000204411
1.80745e-05
-0.000194923
1.57223e-05
-0.000185734
1.33032e-05
-0.000176807
1.12255e-05
-0.000168084
9.15506e-06
-0.000159431
7.12937e-06
-0.000150689
5.22414e-06
-0.00014154
3.42813e-06
-0.000131074
1.68335e-06
-0.000119473
0.0122208
0.023132
0.0127832
0.0246301
0.013372
0.0262195
0.0139859
0.0279066
0.0146252
0.0296982
0.0152911
0.0315991
0.0159842
0.0336115
0.0167054
0.0357469
0.0174564
0.0380085
0.0182347
0.0404046
0.0190448
0.0429404
0.0198789
0.0456279
0.0207516
0.0484696
0.0216454
0.0514804
0.0225754
0.0546599
0.0235383
0.0580195
0.0245296
0.0615753
0.0255545
0.065327
0.0266116
0.0692895
0.0277009
0.0734716
0.0288233
0.0778853
0.0299753
0.0825417
0.0311654
0.0874469
0.0323796
0.092627
0.0336229
0.0980868
0.0348962
0.103831
0.0361972
0.109889
0.0375256
0.116258
0.038885
0.122966
0.0402591
0.130017
0.0416601
0.137441
0.0430791
0.145243
0.044516
0.153445
0.0459618
0.162059
0.0474239
0.171109
0.0488884
0.180606
0.0503614
0.190583
0.0518276
0.201053
0.053286
0.212037
0.0547287
0.223563
0.0561621
0.235647
0.057564
0.248323
0.0589439
0.261609
0.0602712
0.275573
3.25499e-05
-0.000249485
2.93339e-05
-0.000238256
2.63917e-05
-0.000227513
2.35624e-05
-0.000217096
2.07965e-05
-0.000207133
1.83511e-05
-0.000197551
1.58458e-05
-0.000188276
1.364e-05
-0.000179221
1.14039e-05
-0.000170333
9.26441e-06
-0.000161566
7.24923e-06
-0.000152714
5.34497e-06
-0.000143456
3.49178e-06
-0.000132882
1.67523e-06
-0.000121149
0.0117195
0.0222232
0.0122603
0.0236548
0.012824
0.0251781
0.0134117
0.0267937
0.0140254
0.0285064
0.0146647
0.0303247
0.0153316
0.0322517
0.0160225
0.0342944
0.0167427
0.0364606
0.0174886
0.0387546
0.0182649
0.0411845
0.0190671
0.0437523
0.0199053
0.0464742
0.0207626
0.0493524
0.021664
0.0523918
0.0225852
0.055613
0.0235413
0.0590078
0.0245274
0.0626024
0.0255406
0.066398
0.0265925
0.0703978
0.0276688
0.074626
0.0287747
0.0790859
0.0299187
0.0837884
0.0310846
0.0887419
0.0322795
0.0939704
0.0335086
0.0994743
0.0347604
0.105268
0.0360446
0.11137
0.0373489
0.117794
0.0386715
0.124554
0.0400188
0.131659
0.0413917
0.139128
0.0427753
0.146984
0.0441728
0.155234
0.0455843
0.163899
0.0469971
0.173
0.0484186
0.182549
0.049837
0.192573
0.0512503
0.203088
0.0526491
0.214117
0.0540336
0.225691
0.0553951
0.237816
0.0567239
0.250543
0.0580083
0.263872
0.0592721
0.277872
3.60862e-05
-0.000264797
3.27805e-05
-0.000252932
2.96189e-05
-0.000241484
2.66273e-05
-0.000230578
2.38037e-05
-0.000220104
2.11618e-05
-0.000209944
1.84689e-05
-0.000200174
1.60812e-05
-0.000190718
1.37666e-05
-0.000181584
1.15064e-05
-0.000172575
9.42195e-06
-0.000163738
7.40634e-06
-0.000154775
5.40363e-06
-0.000145368
3.52445e-06
-0.000134731
1.79581e-06
-0.000122946
0.0112412
0.0213524
0.0117579
0.0227256
0.012298
0.0241809
0.0128636
0.0257262
0.0134522
0.027367
0.0140652
0.0291058
0.0147034
0.0309529
0.0153661
0.0329082
0.0160585
0.0349786
0.0167756
0.0371736
0.0175211
0.0394984
0.0182934
0.0419583
0.0190926
0.044565
0.0199234
0.0473134
0.0207868
0.0502297
0.0216699
0.0533071
0.0225872
0.0565671
0.0235331
0.0600021
0.0245125
0.0636305
0.0255205
0.06747
0.0265544
0.0715123
0.0276191
0.0757816
0.0287185
0.0802861
0.0298395
0.0850334
0.0309911
0.0900303
0.0321796
0.0952993
0.0333845
0.10085
0.0346144
0.106698
0.0358708
0.112848
0.0371483
0.119318
0.0384504
0.126122
0.039771
0.133279
0.0411085
0.140795
0.0424564
0.1487
0.0438172
0.157001
0.0451808
0.165715
0.0465529
0.174866
0.0479238
0.184462
0.0492881
0.194535
0.0506431
0.205094
0.051985
0.216165
0.0533064
0.22778
0.0545884
0.239951
0.0558477
0.252704
0.0570607
0.266084
0.0582253
0.2801
3.99472e-05
-0.000281077
3.64455e-05
-0.000268463
3.31138e-05
-0.000256427
3.00004e-05
-0.000244857
2.69165e-05
-0.000233691
2.41193e-05
-0.000223061
2.13273e-05
-0.000212802
1.88452e-05
-0.000202938
1.63965e-05
-0.000193347
1.39606e-05
-0.000184038
1.17531e-05
-0.000174906
9.57403e-06
-0.000165906
7.50877e-06
-0.00015688
5.52144e-06
-0.000147365
3.682e-06
-0.000136617
1.79151e-06
-0.000124738
0.0107807
0.0205211
0.0112763
0.0218339
0.0117949
0.0232288
0.0123369
0.0247076
0.0129002
0.0262781
0.0134892
0.027943
0.0141022
0.029707
0.0147397
0.0315792
0.0154034
0.0335633
0.0160907
0.0356636
0.0168052
0.0378894
0.0175477
0.0402441
0.0183155
0.0427354
0.0191133
0.0453751
0.0199387
0.0481615
0.0207866
0.0511129
0.0216724
0.054222
0.0225816
0.0575186
0.0235222
0.0609924
0.0244913
0.0646597
0.0254877
0.0685366
0.02651
0.0726215
0.0275682
0.0769319
0.0286496
0.0814761
0.0297578
0.0862667
0.0308979
0.091312
0.0320558
0.0966281
0.0332415
0.102223
0.0344536
0.108115
0.0356896
0.114307
0.0369402
0.120828
0.0382133
0.12768
0.0395021
0.134886
0.0408002
0.142451
0.0421178
0.1504
0.0434343
0.158747
0.0447635
0.167504
0.0460878
0.176702
0.0474068
0.186344
0.0487205
0.196458
0.0500187
0.207061
0.0512902
0.218182
0.0525434
0.229825
0.0537623
0.242036
0.0549371
0.254827
0.0560643
0.268245
0.057115
0.282284
4.40044e-05
-0.000298336
4.0358e-05
-0.000284989
3.68408e-05
-0.000272189
3.34986e-05
-0.000259925
3.02453e-05
-0.000248185
2.73339e-05
-0.000236906
2.43371e-05
-0.000226071
2.17052e-05
-0.000215662
1.90671e-05
-0.000205609
1.65941e-05
-0.000195981
1.42565e-05
-0.000186542
1.20011e-05
-0.000177333
9.77177e-06
-0.000168169
7.67208e-06
-0.00015903
5.72209e-06
-0.000149405
3.67087e-06
-0.000138496
1.79335e-06
-0.000126533
0.010339
0.0197263
0.0108146
0.0209827
0.0113121
0.0223167
0.0118316
0.0237341
0.0123729
0.025235
0.0129371
0.0268302
0.013526
0.0285192
0.0141362
0.0303105
0.0147731
0.0322094
0.0154342
0.0342198
0.0161205
0.0363483
0.0168346
0.0386025
0.0175735
0.040986
0.0183404
0.0435083
0.0191327
0.046181
0.0199492
0.048999
0.0207968
0.0519885
0.0216708
0.0551327
0.0225761
0.0584646
0.0235065
0.0619773
0.024464
0.0656834
0.0254487
0.0695978
0.0264644
0.0737252
0.0275061
0.0780754
0.0285746
0.0826593
0.0296713
0.0874933
0.0307821
0.0925857
0.0319272
0.0979424
0.0330987
0.103578
0.0342853
0.109519
0.0354894
0.115757
0.036716
0.122325
0.0379624
0.12922
0.0392144
0.136472
0.0404809
0.144088
0.0417554
0.152078
0.043039
0.160472
0.044319
0.169273
0.0455927
0.178516
0.0468638
0.1882
0.0481207
0.198356
0.0493534
0.208998
0.0505717
0.220153
0.0517519
0.231835
0.0528964
0.244077
0.0539932
0.256899
0.055036
0.270324
0.0560205
0.284396
4.83714e-05
-0.000316707
4.45227e-05
-0.000302501
4.08138e-05
-0.000288962
3.72852e-05
-0.000275976
3.38546e-05
-0.000263534
3.07719e-05
-0.000251623
2.76118e-05
-0.00024018
2.4822e-05
-0.000229188
2.20855e-05
-0.00021868
1.94195e-05
-0.000208434
1.68962e-05
-0.000198621
1.45102e-05
-0.000189051
1.2158e-05
-0.000179719
9.98671e-06
-0.000170484
7.87523e-06
-0.000161184
5.75972e-06
-0.000151494
3.75381e-06
-0.000140456
1.88241e-06
-0.000128416
0.00991853
0.0189645
0.010373
0.020168
0.0108499
0.021445
0.0113483
0.0227999
0.011868
0.024239
0.0124091
0.0257631
0.0129732
0.027383
0.0135587
0.0290967
0.0141715
0.0309121
0.0148053
0.0328383
0.0154648
0.0348754
0.0161491
0.0370339
0.0168571
0.0393189
0.0175915
0.0417349
0.0183509
0.0442901
0.0191408
0.0469893
0.0199569
0.0498389
0.0208007
0.0528585
0.0216658
0.0560431
0.0225609
0.0594102
0.023478
0.0629632
0.0244304
0.0667018
0.0254086
0.0706537
0.0264077
0.0748237
0.0274364
0.0792135
0.0284869
0.0838437
0.0295607
0.0887147
0.0306674
0.0938454
0.0317882
0.0992528
0.032932
0.104932
0.0340945
0.110914
0.0352795
0.117194
0.0364807
0.123807
0.0376889
0.130745
0.0389143
0.138038
0.0401455
0.145698
0.041382
0.153735
0.0426164
0.162174
0.0438471
0.171019
0.0450829
0.180297
0.0462972
0.190024
0.047495
0.200214
0.0486696
0.2109
0.0498162
0.222089
0.0509246
0.233807
0.0519911
0.246079
0.0530072
0.258927
0.0539644
0.27238
0.0548807
0.286457
5.30059e-05
-0.000336063
4.88985e-05
-0.000321083
4.49917e-05
-0.000306679
4.12712e-05
-0.000292948
3.77089e-05
-0.00027983
3.43568e-05
-0.000267119
3.11172e-05
-0.000255129
2.81619e-05
-0.00024352
2.52692e-05
-0.000232371
2.24027e-05
-0.000221664
1.97846e-05
-0.000211323
1.72606e-05
-0.000201371
1.47777e-05
-0.00019167
1.24798e-05
-0.000182212
1.02471e-05
-0.000172855
8.01673e-06
-0.00016344
5.9028e-06
-0.000153643
3.93937e-06
-0.000142513
1.94009e-06
-0.000130357
0.00951147
0.0182379
0.00994966
0.0193878
0.0104059
0.0206119
0.0108843
0.021909
0.0113824
0.0232856
0.0119019
0.0247461
0.0124429
0.0262934
0.0130069
0.0279348
0.0135923
0.0296759
0.0142009
0.0315166
0.0148347
0.0334685
0.0154911
0.0355334
0.0161723
0.0377187
0.0168793
0.0400311
0.0176077
0.0424781
0.0183682
0.0450628
0.0191462
0.0478001
0.0199533
0.0506862
0.0207868
0.0537376
0.0216517
0.0569523
0.022535
0.0603533
0.0234535
0.0639401
0.0243841
0.0677263
0.0253521
0.0717093
0.0263396
0.0759204
0.0273504
0.0803501
0.0283894
0.085015
0.0294541
0.089928
0.0305342
0.0950994
0.0316359
0.100549
0.0327527
0.106273
0.0339012
0.112292
0.0350508
0.118624
0.0362215
0.125274
0.0373994
0.13226
0.0385895
0.139594
0.0397813
0.147298
0.0409799
0.155372
0.0421727
0.163849
0.0433642
0.172737
0.0445396
0.182054
0.0456984
0.19182
0.0468407
0.202043
0.047955
0.212761
0.0490336
0.22398
0.0500703
0.235728
0.0510588
0.248028
0.0519906
0.260901
0.0528349
0.274426
0.0536392
0.28848
5.7862e-05
-0.000356637
5.35991e-05
-0.000340764