/*--------------------------------*- C++ -*----------------------------------*\
  =========                 |
  \\      /  F ield         | OpenFOAM: The Open Source CFD Toolbox
   \\    /   O peration     | Website:  https://openfoam.org
    \\  /    A nd           | Version:  7
     \\/     M anipulation  |
\*---------------------------------------------------------------------------*/
FoamFile
{
    version     2.0;
    format      ascii;
    class       volVectorField;
    location    "2000";
    object      U;
}
// * * * * * * * * * * * * * * * * * * * * * * * * * * * * * * * * * * * * * //

dimensions      [0 1 -1 0 0 0 0];

internalField   nonuniform List<vector> 
23064
(
(49.7341 13.3374 7.63762e-17)
(49.7395 13.3638 8.66706e-18)
(49.7347 13.3372 0)
(49.744 13.3898 -9.18715e-17)
(49.7404 13.3634 3.38641e-18)
(49.7353 13.337 1.00206e-17)
(49.7506 13.4162 -8.82002e-17)
(49.7451 13.3893 8.77493e-17)
(49.7412 13.3631 -9.70209e-17)
(49.7359 13.3368 -4.97103e-18)
(49.7579 13.4435 -3.1336e-18)
(49.752 13.4154 4.42067e-17)
(49.7462 13.3886 -9.33472e-17)
(49.7421 13.3626 5.60158e-18)
(49.7365 13.3366 -5.37558e-18)
(49.7656 13.4716 0)
(49.7597 13.4425 -5.01105e-17)
(49.7535 13.4146 -9.44615e-17)
(49.7473 13.388 9.19868e-17)
(49.743 13.3622 5.72503e-18)
(49.7372 13.3364 0)
(49.7738 13.5007 -3.88716e-18)
(49.7678 13.4704 -3.63479e-18)
(49.7616 13.4414 5.25287e-17)
(49.7549 13.4137 1.95529e-16)
(49.7484 13.3873 9.70892e-17)
(49.744 13.3617 -5.83122e-18)
(49.7379 13.3361 9.09593e-17)
(49.7825 13.5308 -1.33236e-16)
(49.7764 13.4993 7.77587e-18)
(49.77 13.4692 0)
(49.7634 13.4403 -1.14831e-16)
(49.7564 13.4128 -9.46399e-17)
(49.7495 13.3866 -1.88532e-16)
(49.7449 13.3612 0)
(49.7387 13.3358 -1.8796e-16)
(49.7916 13.562 -1.37243e-16)
(49.7855 13.5292 6.2626e-17)
(49.779 13.4979 0)
(49.7722 13.4679 -5.67833e-17)
(49.7652 13.4391 1.02894e-16)
(49.7579 13.4118 6.69042e-18)
(49.7506 13.3859 1.98155e-16)
(49.7459 13.3607 6.06814e-18)
(49.7395 13.3355 -8.64129e-18)
(49.8011 13.5944 -4.91851e-18)
(49.7951 13.5603 7.82947e-17)
(49.7886 13.5276 -7.08186e-17)
(49.7817 13.4964 -6.17724e-17)
(49.7745 13.4665 5.95583e-17)
(49.7671 13.4379 -6.99015e-18)
(49.7593 13.4107 0)
(49.7517 13.3851 -1.95151e-16)
(49.7469 13.3601 1.06185e-16)
(49.7403 13.3351 7.02105e-17)
(49.8109 13.6281 0)
(49.8051 13.5925 -8.91021e-17)
(49.7987 13.5585 8.27633e-17)
(49.7917 13.5259 1.37677e-16)
(49.7843 13.4948 1.2794e-16)
(49.7767 13.465 -1.25527e-16)
(49.769 13.4366 0)
(49.7608 13.4097 -6.69512e-18)
(49.7529 13.3842 -2.94229e-18)
(49.7479 13.3595 -8.61584e-17)
(49.7412 13.3348 9.71973e-17)
(49.8211 13.6631 -4.84892e-17)
(49.8155 13.6261 0)
(49.8092 13.5906 1.63449e-16)
(49.8022 13.5566 -7.66983e-17)
(49.7948 13.5241 -6.67718e-17)
(49.787 13.4931 -6.62499e-17)
(49.779 13.4635 2.43496e-16)
(49.7709 13.4353 1.27291e-16)
(49.7624 13.4085 0)
(49.754 13.3833 1.02537e-16)
(49.7489 13.3588 0)
(49.7421 13.3344 -9.59359e-17)
(49.8316 13.6997 0)
(49.8262 13.661 -5.13477e-17)
(49.82 13.624 0)
(49.8132 13.5886 -8.45093e-17)
(49.8058 13.5547 8.59715e-17)
(49.7979 13.5223 7.49449e-17)
(49.7897 13.4914 8.24117e-17)
(49.7812 13.4619 -3.98737e-18)
(49.7728 13.4339 -1.18186e-16)
(49.7639 13.4073 -1.13965e-16)
(49.7552 13.3824 6.7124e-18)
(49.7499 13.3581 1.04438e-16)
(49.743 13.3339 -1.13305e-17)
(49.8423 13.7377 -5.78544e-17)
(49.8372 13.6974 3.60062e-18)
(49.8313 13.6588 1.58559e-16)
(49.8246 13.6218 9.03614e-17)
(49.8173 13.5864 -9.4363e-17)
(49.8094 13.5526 -7.97111e-17)
(49.8011 13.5203 -7.36748e-17)
(49.7924 13.4895 8.18116e-17)
(49.7835 13.4602 -1.19837e-16)
(49.7747 13.4324 -7.76363e-18)
(49.7654 13.4061 1.05504e-16)
(49.7564 13.3814 1.01458e-16)
(49.751 13.3574 -1.16186e-16)
(49.744 13.3334 1.14483e-17)
(49.8533 13.7774 2.52308e-19)
(49.8485 13.7353 5.70519e-17)
(49.8428 13.695 -6.13694e-17)
(49.8364 13.6564 -1.00117e-16)
(49.8292 13.6195 3.12504e-18)
(49.8214 13.5842 1.78328e-16)
(49.813 13.5504 2.63367e-19)
(49.8042 13.5183 -1.4227e-17)
(49.7951 13.4876 -1.57425e-16)
(49.7858 13.4585 1.42032e-16)
(49.7766 13.4308 0)
(49.767 13.4047 -2.6285e-19)
(49.7576 13.3804 -9.33651e-17)
(49.7521 13.3566 1.31713e-17)
(49.745 13.3329 0)
(49.8645 13.8187 -4.5315e-18)
(49.8601 13.7749 0)
(49.8547 13.7328 6.81761e-17)
(49.8485 13.6925 1.19517e-16)
(49.8415 13.654 -6.8738e-18)
(49.8338 13.6171 -9.67889e-17)
(49.8255 13.5818 -9.48319e-17)
(49.8166 13.5482 -2.66347e-19)
(49.8074 13.5161 8.81546e-17)
(49.7978 13.4856 -1.45937e-16)
(49.7881 13.4567 -1.32212e-16)
(49.7785 13.4292 7.70052e-18)
(49.7686 13.4034 1.26189e-16)
(49.7588 13.3793 -1.24634e-16)
(49.7532 13.3558 2.16667e-16)
(49.746 13.3323 2.19534e-16)
(49.876 13.8619 0)
(49.8719 13.8161 0)
(49.8669 13.7722 -4.2449e-18)
(49.8609 13.7301 -6.72921e-17)
(49.8541 13.6899 -5.09016e-17)
(49.8466 13.6514 0)
(49.8384 13.6145 -1.07907e-16)
(49.8296 13.5794 5.61915e-18)
(49.8202 13.5458 -5.46448e-18)
(49.8105 13.5139 -7.76473e-17)
(49.8005 13.4836 2.82717e-16)
(49.7904 13.4548 -1.37692e-16)
(49.7804 13.4275 -1.36519e-16)
(49.7701 13.4019 -1.17302e-16)
(49.76 13.3782 2.21688e-16)
(49.7543 13.3549 -2.14209e-16)
(49.7471 13.3317 -2.05451e-16)
(49.8877 13.9069 -1.38309e-16)
(49.884 13.8591 -8.02147e-17)
(49.8793 13.8133 0)
(49.8737 13.7694 8.90082e-18)
(49.8672 13.7273 0)
(49.8598 13.6871 1.21837e-16)
(49.8517 13.6486 6.71718e-18)
(49.843 13.6119 1.06612e-16)
(49.8337 13.5768 1.17222e-17)
(49.8239 13.5434 8.75757e-17)
(49.8137 13.5116 9.76697e-18)
(49.8032 13.4814 -1.46156e-16)
(49.7927 13.4528 1.36006e-16)
(49.7824 13.4258 1.27181e-16)
(49.7717 13.4004 -1.21589e-16)
(49.7612 13.377 -1.25111e-16)
(49.7555 13.354 0)
(49.7483 13.331 2.25707e-16)
(49.8995 13.9539 4.66661e-17)
(49.8963 13.904 8.61244e-17)
(49.892 13.8562 1.71432e-16)
(49.8868 13.8103 -4.78358e-18)
(49.8805 13.7664 0)
(49.8734 13.7244 -4.27497e-18)
(49.8655 13.6842 -1.2012e-16)
(49.8569 13.6458 -6.82301e-18)
(49.8476 13.6091 -6.28177e-18)
(49.8378 13.5741 6.10338e-18)
(49.8275 13.5408 -1.75245e-16)
(49.8169 13.5092 -1.03867e-17)
(49.806 13.4791 -9.60839e-18)
(49.795 13.4507 -8.91342e-18)
(49.7843 13.4239 1.31842e-16)
(49.7733 13.3989 1.35126e-16)
(49.7624 13.3758 -9.99215e-17)
(49.7566 13.353 -1.3964e-17)
(49.7494 13.3303 -2.23454e-16)
(49.9117 14.003 5.87358e-17)
(49.9089 13.9509 3.33121e-18)
(49.905 13.9009 0)
(49.9001 13.8531 -8.0177e-17)
(49.8942 13.8072 0)
(49.8874 13.7633 9.19409e-18)
(49.8797 13.7213 -1.36762e-16)
(49.8712 13.6812 -7.96924e-18)
(49.8621 13.6428 1.15323e-16)
(49.8523 13.6062 1.06376e-16)
(49.8419 13.5713 9.75912e-17)
(49.8311 13.5382 9.85219e-17)
(49.82 13.5066 1.00348e-17)
(49.8087 13.4768 -1.44517e-16)
(49.7974 13.4486 1.33812e-16)
(49.7863 13.422 -2.72058e-16)
(49.7749 13.3972 -1.50796e-17)
(49.7637 13.3745 2.28519e-16)
(49.7578 13.352 1.41125e-17)
(49.7507 13.3295 0)
(49.924 14.0542 -6.32972e-17)
(49.9217 13.9998 5.46646e-17)
(49.9183 13.9477 -3.38613e-18)
(49.9138 13.8977 9.21e-17)
(49.9082 13.8498 5.70468e-18)
(49.9017 13.804 -4.93918e-18)
(49.8943 13.7601 7.56124e-17)
(49.886 13.7181 1.43187e-16)
(49.877 13.678 8.08437e-18)
(49.8672 13.6397 -1.2082e-16)
(49.8569 13.6032 -1.04654e-16)
(49.8461 13.5684 -1.02626e-16)
(49.8348 13.5354 0)
(49.8232 13.504 -1.78888e-16)
(49.8114 13.4743 1.61438e-16)
(49.7997 13.4463 -1.41558e-16)
(49.7883 13.42 1.40319e-16)
(49.7766 13.3955 0)
(49.7649 13.3731 -1.28899e-16)
(49.759 13.3509 -2.27336e-16)
(49.7519 13.3287 -2.44787e-16)
(49.9365 14.1077 0)
(49.9348 14.0509 -2.01656e-18)
(49.9318 13.9965 -5.3713e-17)
(49.9277 13.9443 0)
(49.9225 13.8943 -2.01924e-16)
(49.9163 13.8464 0)
(49.9092 13.8005 0)
(49.9012 13.7567 -7.45652e-17)
(49.8923 13.7148 4.92143e-19)
(49.8827 13.6747 0)
(49.8724 13.6365 -1.18455e-16)
(49.8616 13.6001 6.54915e-18)
(49.8502 13.5654 -1.00102e-16)
(49.8384 13.5325 1.11277e-17)
(49.8264 13.5013 -3.94966e-18)
(49.8142 13.4718 1.94932e-17)
(49.802 13.444 -1.5484e-16)
(49.7902 13.4179 0)
(49.7782 13.3937 -6.16126e-19)
(49.7662 13.3717 1.48531e-17)
(49.7602 13.3498 -3.80461e-18)
(49.7533 13.3278 4.38465e-16)
(49.9492 14.1635 0)
(49.9481 14.1042 -4.50956e-18)
(49.9456 14.0474 1.32789e-16)
(49.9419 13.9929 1.19905e-16)
(49.9372 13.9407 1.09993e-16)
(49.9313 13.8907 9.79993e-17)
(49.9245 13.8428 0)
(49.9167 13.797 0)
(49.9081 13.7531 -1.64758e-16)
(49.8986 13.7113 0)
(49.8884 13.6713 0)
(49.8776 13.6331 1.24568e-16)
(49.8662 13.5968 0)
(49.8543 13.5623 9.88847e-17)
(49.8421 13.5295 1.984e-16)
(49.8296 13.4984 -1.4267e-17)
(49.8169 13.4692 1.59049e-16)
(49.8043 13.4416 -3.07325e-18)
(49.7922 13.4157 1.66972e-17)
(49.7798 13.3918 -1.55104e-17)
(49.7675 13.3702 1.47341e-17)
(49.7614 13.3486 2.26884e-16)
(49.7547 13.3268 -2.32752e-16)
(49.9622 14.2218 -8.55075e-17)
(49.9616 14.1599 4.70716e-18)
(49.9596 14.1006 6.32954e-17)
(49.9565 14.0437 -6.85359e-17)
(49.9521 13.9891 -1.18128e-16)
(49.9466 13.9369 -1.08399e-16)
(49.9401 13.8869 0)
(49.9326 13.839 -5.95462e-18)
(49.9242 13.7932 0)
(49.915 13.7494 1.53356e-16)
(49.9049 13.7076 9.17126e-18)
(49.8942 13.6677 1.24365e-16)
(49.8828 13.6297 0)
(49.8709 13.5934 0)
(49.8585 13.559 7.70885e-17)
(49.8457 13.5264 -3.61059e-16)
(49.8328 13.4955 1.70154e-16)
(49.8196 13.4664 1.35471e-17)
(49.8067 13.4391 1.45862e-16)
(49.7942 13.4135 1.56142e-16)
(49.7815 13.3899 -1.2888e-16)
(49.7687 13.3687 0)
(49.7627 13.3473 1.46455e-17)
(49.7561 13.3257 1.2229e-17)
(49.9754 14.2826 9.14673e-17)
(49.9753 14.218 8.4169e-17)
(49.9739 14.1561 9.83785e-18)
(49.9713 14.0967 6.52322e-18)
(49.9673 14.0397 -7.14788e-17)
(49.9623 13.9852 -7.82879e-18)
(49.9561 13.9329 -1.13041e-16)
(49.9489 13.8829 -9.73874e-17)
(49.9408 13.8351 -9.49362e-17)
(49.9318 13.7893 0)
(49.9219 13.7456 -1.58835e-16)
(49.9113 13.7038 0)
(49.8999 13.664 -1.30669e-16)
(49.888 13.626 0)
(49.8755 13.5899 6.42269e-18)
(49.8626 13.5556 -3.20928e-16)
(49.8494 13.5232 3.77103e-16)
(49.836 13.4925 1.65075e-16)
(49.8224 13.4636 -1.69223e-16)
(49.809 13.4365 -1.827e-17)
(49.7961 13.4111 -1.3723e-16)
(49.7831 13.3879 2.41099e-16)
(49.77 13.367 1.52105e-17)
(49.764 13.346 0)
(49.7576 13.3246 0)
(49.9888 14.3461 -3.29921e-18)
(49.9894 14.2787 3.0363e-18)
(49.9885 14.214 -1.0863e-17)
(49.9864 14.152 0)
(49.9829 14.0926 -6.77034e-17)
(49.9783 14.0356 7.00796e-17)
(49.9725 13.981 -1.2492e-16)
(49.9656 13.9288 1.11464e-16)
(49.9578 13.8788 1.0219e-16)
(49.949 13.8309 1.89772e-16)
(49.9393 13.7852 8.86499e-17)
(49.9288 13.7415 3.18622e-16)
(49.9176 13.6999 0)
(49.9057 13.6601 0)
(49.8932 13.6223 1.31651e-16)
(49.8802 13.5863 -1.2843e-16)
(49.8668 13.5521 2.04803e-16)
(49.8531 13.5198 -1.88512e-16)
(49.8391 13.4893 -3.40481e-16)
(49.8251 13.4606 -1.63732e-16)
(49.8113 13.4338 -1.9189e-17)
(49.7981 13.4087 3.49537e-17)
(49.7848 13.3857 1.33813e-16)
(49.7713 13.3653 0)
(49.7652 13.3446 0)
(49.7591 13.3234 0)
(50.0024 14.4124 3.44288e-18)
(50.0036 14.3421 -3.16869e-18)
(50.0034 14.2746 5.82798e-18)
(50.0018 14.2098 0)
(49.9988 14.1478 0)
(49.9946 14.0883 -7.07155e-17)
(49.9892 14.0313 0)
(49.9827 13.9767 1.15132e-16)
(49.9751 13.9244 0)
(49.9666 13.8745 0)
(49.9572 13.8267 -1.00352e-16)
(49.9469 13.781 -9.82268e-17)
(49.9358 13.7374 -3.22379e-16)
(49.9239 13.6957 0)
(49.9115 13.6561 -8.70691e-18)
(49.8984 13.6183 -1.07594e-16)
(49.8849 13.5825 2.27772e-16)
(49.8709 13.5485 0)
(49.8567 13.5163 -1.94427e-16)
(49.8423 13.486 3.54604e-16)
(49.8279 13.4575 1.92552e-16)
(49.8137 13.4309 7.65196e-19)
(49.8001 13.4061 -1.59353e-16)
(49.7864 13.3835 -2.59348e-16)
(49.7726 13.3636 1.54175e-17)
(49.7665 13.3431 0)
(49.7607 13.3221 0)
(50.0162 14.4816 5.92912e-17)
(50.0182 14.4082 -3.69133e-18)
(50.0185 14.3378 0)
(50.0175 14.2702 -9.22623e-17)
(50.015 14.2054 0)
(50.0113 14.1433 0)
(50.0063 14.0837 7.41526e-17)
(50.0002 14.0267 8.38794e-18)
(49.9929 13.9721 0)
(49.9847 13.9199 0)
(49.9755 13.8699 -1.20699e-16)
(49.9654 13.8222 1.1825e-17)
(49.9544 13.7766 1.80105e-16)
(49.9427 13.733 6.69634e-18)
(49.9303 13.6915 9.08973e-18)
(49.9172 13.6519 0)
(49.9036 13.6143 1.26779e-16)
(49.8895 13.5786 -1.13841e-16)
(49.8751 13.5447 0)
(49.8603 13.5127 1.92367e-16)
(49.8455 13.4826 -1.99629e-16)
(49.8306 13.4544 -1.97333e-16)
(49.816 13.428 0)
(49.8021 13.4035 -2.04663e-17)
(49.7881 13.3812 -1.60969e-17)
(49.7739 13.3617 0)
(49.7678 13.3415 2.52253e-16)
(49.7623 13.3207 0)
(50.0303 14.5538 8.59536e-18)
(50.033 14.4772 -1.22648e-16)
(50.034 14.4037 -1.21878e-16)
(50.0335 14.3332 1.02098e-16)
(50.0316 14.2655 9.70364e-17)
(50.0283 14.2007 0)
(50.0238 14.1385 -5.33747e-18)
(50.018 14.079 0)
(50.0111 14.022 0)
(50.0032 13.9674 8.23131e-18)
(49.9942 13.9152 1.46713e-17)
(49.9843 13.8652 -2.58398e-18)
(49.9736 13.8175 1.26503e-17)
(49.962 13.772 -1.88835e-16)
(49.9496 13.7285 1.62912e-16)
(49.9366 13.687 1.42856e-16)
(49.923 13.6476 -1.39725e-16)
(49.9088 13.6101 -1.41652e-16)
(49.8942 13.5745 1.0245e-16)
(49.8792 13.5408 1.37015e-17)
(49.864 13.509 2.45586e-17)
(49.8487 13.4791 -1.71153e-16)
(49.8333 13.4511 1.75593e-16)
(49.8183 13.425 -1.55896e-16)
(49.8041 13.4008 2.67665e-16)
(49.7898 13.3788 0)
(49.7752 13.3598 -1.53017e-17)
(49.7691 13.3399 -2.3562e-16)
(49.764 13.3192 -2.33962e-16)
(50.0447 14.6292 -8.1341e-17)
(50.048 14.5493 6.62143e-17)
(50.0497 14.4726 6.71091e-17)
(50.0498 14.3989 -3.34775e-18)
(50.0485 14.3283 -1.13963e-16)
(50.0457 14.2606 0)
(50.0416 14.1957 9.82967e-17)
(50.0363 14.1335 5.40207e-18)
(50.0298 14.074 0)
(50.0221 14.017 -8.59202e-18)
(50.0134 13.9624 -1.61966e-17)
(50.0038 13.9102 1.19905e-16)
(49.9932 13.8603 9.40285e-17)
(49.9818 13.8127 0)
(49.9695 13.7672 1.95615e-16)
(49.9566 13.7238 2.0848e-17)
(49.9429 13.6825 -1.50807e-16)
(49.9287 13.6431 1.55163e-16)
(49.914 13.6057 1.28372e-16)
(49.8988 13.5703 9.14133e-17)
(49.8833 13.5368 -2.69632e-17)
(49.8676 13.5052 0)
(49.8518 13.4754 1.69279e-16)
(49.8361 13.4477 -9.53114e-19)
(49.8206 13.4219 1.72712e-16)
(49.806 13.3979 2.22253e-18)
(49.7915 13.3763 2.85742e-16)
(49.7766 13.3577 2.4593e-16)
(49.7704 13.3381 -1.47876e-17)
(49.7657 13.3176 2.60401e-16)
(50.0593 14.7079 -5.34221e-18)
(50.0634 14.6245 1.53065e-16)
(50.0658 14.5444 -7.41331e-17)
(50.0665 14.4676 -1.31813e-16)
(50.0657 14.3939 2.38673e-16)
(50.0635 14.3232 7.06424e-18)
(50.0599 14.2554 0)
(50.055 14.1905 -9.70563e-17)
(50.0488 14.1283 5.46497e-18)
(50.0415 14.0688 0)
(50.0331 14.0118 -1.35807e-16)
(50.0237 13.9572 -8.41559e-18)
(50.0133 13.9051 -1.18377e-16)
(50.0021 13.8552 1.10899e-16)
(49.99 13.8077 -1.22172e-17)
(49.9771 13.7622 -1.92918e-16)
(49.9635 13.7189 0)
(49.9493 13.6777 1.65449e-16)
(49.9345 13.6385 1.71718e-17)
(49.9192 13.6012 -2.42517e-16)
(49.9034 13.566 -2.20024e-16)
(49.8874 13.5326 1.39486e-17)
(49.8712 13.5012 2.01292e-16)
(49.855 13.4717 2.24309e-17)
(49.8388 13.4442 1.48757e-16)
(49.8229 13.4186 1.57252e-16)
(49.808 13.395 -1.43065e-16)
(49.7931 13.3737 -2.83595e-16)
(49.7779 13.3556 -2.28504e-16)
(49.7718 13.3363 -1.58709e-17)
(49.7675 13.3159 2.36939e-16)
(33.1824 -3.0387 0)
(50.0741 14.7899 9.26806e-17)
(50.079 14.703 5.13859e-18)
(50.0822 14.6194 -1.50669e-16)
(50.0836 14.5393 6.79457e-17)
(50.0834 14.4623 2.71297e-16)
(50.0817 14.3886 -1.26774e-16)
(50.0785 14.3178 -1.19792e-16)
(50.0741 14.25 0)
(50.0683 14.1851 -1.17274e-17)
(50.0614 14.1229 -1.73919e-16)
(50.0533 14.0633 0)
(50.0441 14.0063 1.51398e-16)
(50.034 13.9518 -1.42195e-16)
(50.0229 13.8997 1.14592e-16)
(50.0109 13.85 1.67008e-17)
(49.9982 13.8024 1.30462e-17)
(49.9846 13.7571 1.87504e-16)
(49.9704 13.7139 -2.12605e-17)
(49.9556 13.6728 1.31372e-17)
(49.9402 13.6337 -1.61964e-16)
(49.9243 13.5966 2.60591e-16)
(49.9081 13.5615 -1.456e-17)
(49.8915 13.5283 0)
(49.8748 13.4971 3.50494e-18)
(49.8581 13.4678 1.07455e-17)
(49.8415 13.4405 -1.68877e-16)
(49.8252 13.4152 -3.33393e-16)
(49.81 13.3919 -2.94208e-16)
(49.7948 13.371 -1.72187e-17)
(49.7792 13.3534 -1.54945e-17)
(49.7731 13.3344 2.41004e-16)
(49.7694 13.314 -2.10263e-16)
(35.6932 -3.25157 0)
(33.6799 -3.01241 1.67337e-15)
(50.0892 14.8756 -1.02137e-16)
(50.095 14.7849 -5.95331e-18)
(50.0989 14.6977 0)
(50.101 14.6141 8.24107e-17)
(50.1014 14.5338 1.96798e-18)
(50.1003 14.4568 -2.66483e-16)
(50.0976 14.3829 1.39378e-16)
(50.0936 14.3121 1.03816e-16)
(50.0883 14.2443 6.28653e-18)
(50.0817 14.1793 9.58527e-17)
(50.0739 14.1171 1.82773e-16)
(50.065 14.0576 0)
(50.0551 14.0007 -1.3859e-16)
(50.0442 13.9462 2.75155e-16)
(50.0324 13.8942 -1.35762e-16)
(50.0198 13.8445 -2.37337e-16)
(50.0063 13.797 -2.06858e-16)
(49.9922 13.7518 -1.73973e-16)
(49.9773 13.7087 5.90932e-19)
(49.9619 13.6677 2.21763e-17)
(49.9459 13.6287 1.42156e-16)
(49.9295 13.5918 -1.30198e-16)
(49.9127 13.5568 0)
(49.8956 13.5238 0)
(49.8784 13.4928 -3.92967e-16)
(49.8613 13.4638 0)
(49.8442 13.4367 0)
(49.8275 13.4117 1.71107e-17)
(49.8119 13.3887 1.39953e-17)
(49.7965 13.3682 -1.73092e-17)
(49.7805 13.3511 -2.48534e-16)
(49.7744 13.3324 -2.39236e-16)
(49.7713 13.3121 2.4814e-17)
(37.5881 -3.41105 0)
(36.2006 -3.2223 -1.13079e-20)
(34.1769 -2.9821 5.54449e-21)
(50.1046 14.9649 6.12465e-17)
(50.1112 14.8703 6.51531e-18)
(50.1159 14.7794 0)
(50.1187 14.6921 0)
(50.1198 14.6083 5.11878e-18)
(50.1193 14.528 -7.23411e-17)
(50.1172 14.4509 -2.03492e-17)
(50.1136 14.377 -1.14742e-16)
(50.1087 14.3062 0)
(50.1025 14.2383 -9.89013e-17)
(50.095 14.1734 -3.24202e-18)
(50.0865 14.1112 0)
(50.0768 14.0517 1.72935e-16)
(50.0661 13.9948 -3.26659e-18)
(50.0545 13.9404 -1.33355e-16)
(50.042 13.8884 -1.24712e-16)
(50.0286 13.8388 1.11739e-16)
(50.0145 13.7914 2.04497e-16)
(49.9997 13.7463 1.6723e-16)
(49.9842 13.7033 -1.74595e-16)
(49.9682 13.6624 -1.56679e-16)
(49.9516 13.6236 -1.86178e-17)
(49.9346 13.5868 0)
(49.9173 13.552 0)
(49.8997 13.5192 0)
(49.882 13.4884 2.02519e-16)
(49.8644 13.4596 0)
(49.8469 13.4328 0)
(49.8298 13.4081 1.81414e-17)
(49.8139 13.3854 1.42454e-17)
(49.7982 13.3652 0)
(49.7819 13.3486 4.95921e-16)
(49.7758 13.3303 2.99453e-17)
(49.7733 13.31 2.47948e-17)
(38.972 -3.52365 0)
(38.1114 -3.37933 -3.54948e-16)
(36.7099 -3.18872 4.95808e-16)
(34.6788 -2.94775 -1.76896e-15)
(50.1202 15.058 5.77582e-17)
(50.1278 14.9594 -1.16862e-16)
(50.1333 14.8646 2.06348e-16)
(50.1369 14.7736 -9.64176e-17)
(50.1387 14.6862 -9.41168e-17)
(50.1387 14.6023 0)
(50.1372 14.5218 9.03695e-18)
(50.1341 14.4447 1.346e-16)
(50.1296 14.3708 1.26723e-16)
(50.1238 14.2999 -6.99972e-18)
(50.1167 14.2321 9.77769e-17)
(50.1084 14.1671 -9.55673e-17)
(50.099 14.105 -1.07904e-17)
(50.0886 14.0455 -3.14249e-16)
(50.0771 13.9887 1.47062e-16)
(50.0648 13.9343 0)
(50.0515 13.8824 1.39275e-16)
(50.0375 13.8329 -1.46595e-17)
(50.0227 13.7856 2.61003e-17)
(50.0072 13.7406 -3.81335e-16)
(49.9911 13.6978 1.72746e-16)
(49.9745 13.657 1.94305e-17)
(49.9573 13.6183 1.87712e-17)
(49.9397 13.5817 -2.69516e-16)
(49.9219 13.5471 1.57215e-17)
(49.9038 13.5145 2.40431e-16)
(49.8856 13.4839 -2.07256e-16)
(49.8675 13.4553 0)
(49.8495 13.4288 -1.96078e-16)
(49.8321 13.4044 3.19745e-16)
(49.8158 13.382 -3.66133e-18)
(49.7999 13.3621 -1.74729e-17)
(49.7832 13.3461 -2.78699e-16)
(49.7771 13.3281 -3.0006e-17)
(49.7753 13.3077 -2.89413e-17)
(40.1216 -3.61313 0)
(39.5079 -3.49012 0)
(38.6375 -3.3434 3.66063e-16)
(37.2246 -3.15085 1.91918e-20)
(35.1829 -2.908 0)
(50.1361 15.1552 2.29463e-18)
(50.1447 15.0523 1.76948e-18)
(50.1511 14.9535 1.15325e-16)
(50.1554 14.8585 -1.03032e-16)
(50.1579 14.7674 8.87882e-17)
(50.1586 14.6799 8.74663e-17)
(50.1577 14.5959 0)
(50.1551 14.5154 0)
(50.1511 14.4382 -1.48291e-16)
(50.1456 14.3643 -2.5298e-16)
(50.1389 14.2934 0)
(50.1309 14.2256 -1.14535e-16)
(50.1218 14.1606 1.25513e-17)
(50.1116 14.0985 1.69964e-16)
(50.1003 14.0391 1.62107e-16)
(50.0881 13.9823 0)
(50.075 13.928 1.22008e-16)
(50.061 13.8762 1.52988e-17)
(50.0463 13.8268 -2.31361e-16)
(50.0308 13.7796 0)
(50.0147 13.7347 3.84578e-16)
(49.998 13.692 -1.13106e-17)
(49.9807 13.6514 -4.02758e-17)
(49.963 13.6129 -1.29489e-16)
(49.9449 13.5764 -3.67191e-18)
(49.9264 13.542 -1.50279e-17)
(49.9078 13.5096 -2.24017e-16)
(49.8892 13.4792 2.18759e-16)
(49.8706 13.4508 1.91439e-16)
(49.8522 13.4246 -2.47757e-17)
(49.8343 13.4005 2.04553e-18)
(49.8177 13.3784 3.1395e-16)
(49.8015 13.359 -1.75462e-17)
(49.7845 13.3434 6.34421e-17)
(49.7785 13.3258 3.13818e-17)
(49.7774 13.3053 2.4324e-16)
(41.1421 -3.68973 0)
(40.6692 -3.57836 0)
(40.0467 -3.45238 -5.53856e-16)
(39.1671 -3.30211 3.77173e-16)
(37.7385 -3.10789 0)
(35.6905 -2.86362 -1.8639e-15)
(50.1523 15.2565 -1.45436e-16)
(50.1619 15.1493 7.06644e-17)
(50.1692 15.0462 -1.9112e-16)
(50.1744 14.9472 0)
(50.1776 14.8521 -3.39942e-19)
(50.179 14.7608 0)
(50.1786 14.6732 0)
(50.1766 14.5892 0)
(50.173 14.5086 -1.44109e-16)
(50.168 14.4314 -3.29124e-18)
(50.1617 14.3574 1.18075e-16)
(50.154 14.2866 7.14134e-18)
(50.1452 14.2188 9.32077e-17)
(50.1352 14.1539 -1.99201e-16)
(50.1241 14.0918 -1.78628e-16)
(50.1121 14.0324 -1.67057e-16)
(50.0991 13.9757 0)
(50.0852 13.9215 -1.28228e-16)
(50.0705 13.8698 -1.43401e-16)
(50.0551 13.8205 4.7856e-16)
(50.039 13.7735 2.13994e-16)
(50.0222 13.7287 1.53548e-17)
(50.0048 13.6861 2.15881e-17)
(49.987 13.6456 -1.97445e-17)
(49.9686 13.6073 1.28931e-16)
(49.9499 13.571 5.42503e-16)
(49.931 13.5367 -2.50251e-16)
(49.9119 13.5045 -1.38691e-17)
(49.8927 13.4744 0)
(49.8736 13.4463 5.05602e-17)
(49.8548 13.4203 1.74459e-16)
(49.8366 13.3965 -1.81205e-16)
(49.8197 13.3747 1.8311e-17)
(49.8032 13.3556 2.4374e-16)
(49.7859 13.3407 -2.50676e-16)
(49.7798 13.3233 0)
(49.7796 13.3028 -5.39731e-16)
(42.0876 -3.75836 0)
(41.7014 -3.65391 0)
(41.2201 -3.53909 1.97551e-20)
(40.5893 -3.40912 -2.85549e-16)
(39.6993 -3.25641 0)
(38.2607 -3.0597 5.38227e-16)
(36.2032 -2.81472 0)
(50.1688 15.3621 -8.58606e-17)
(50.1794 15.2504 1.43092e-16)
(50.1877 15.1429 0)
(50.1937 15.0397 1.24119e-16)
(50.1978 14.9405 -3.70075e-19)
(50.1998 14.8452 0)
(50.2001 14.7538 9.96719e-17)
(50.1986 14.6662 0)
(50.1956 14.5821 0)
(50.191 14.5015 3.06052e-16)
(50.185 14.4243 2.89646e-16)
(50.1777 14.3503 8.28705e-18)
(50.1691 14.2795 7.60292e-18)
(50.1594 14.2117 1.09653e-16)
(50.1485 14.1468 1.96735e-16)
(50.1366 14.0848 -1.7231e-16)
(50.1238 14.0255 1.65092e-16)
(50.11 13.9689 -9.29563e-18)
(50.0954 13.9148 -1.23075e-16)
(50.08 13.8632 1.27439e-16)
(50.0639 13.814 -2.31538e-16)
(50.0471 13.7671 3.89212e-18)
(50.0297 13.7224 -1.93651e-16)
(50.0117 13.68 -1.14886e-17)
(49.9932 13.6397 2.10059e-17)
(49.9743 13.6015 -1.50576e-16)
(49.955 13.5654 -2.71031e-16)
(49.9355 13.5313 -3.85096e-18)
(49.9159 13.4993 0)
(49.8962 13.4694 -2.56003e-17)
(49.8767 13.4415 -1.91049e-16)
(49.8575 13.4158 4.42234e-17)
(49.8388 13.3924 1.42412e-16)
(49.8216 13.3709 3.20652e-16)
(49.8049 13.3522 -2.75412e-16)
(49.7872 13.3378 2.49094e-16)
(49.7811 13.3208 6.16716e-17)
(49.7818 13.3001 2.71937e-16)
(42.9893 -3.82185 1.47733e-16)
(42.6588 -3.72169 0)
(42.2644 -3.61347 1.94824e-16)
(41.775 -3.4943 4.67674e-16)
(41.1358 -3.36114 0)
(40.2375 -3.20491 -3.99299e-16)
(38.7864 -3.00643 5.52297e-16)
(36.7201 -2.75967 0)
(50.1855 15.4722 -1.7485e-16)
(50.1972 15.3557 -2.30562e-18)
(50.2065 15.2437 -7.36896e-17)
(50.2135 15.1361 -4.42656e-18)
(50.2184 15.0327 1.3673e-16)
(50.2212 14.9333 0)
(50.2221 14.838 -6.93675e-18)
(50.2212 14.7465 -2.05319e-16)
(50.2187 14.6588 0)
(50.2145 14.5747 -1.08008e-17)
(50.209 14.494 -1.52741e-16)
(50.202 14.4168 -2.92364e-16)
(50.1937 14.3429 -1.31163e-16)
(50.1842 14.2721 -1.20659e-16)
(50.1736 14.2043 -3.43547e-16)
(50.1619 14.1395 -2.5107e-17)
(50.1492 14.0776 -3.69298e-18)
(50.1355 14.0184 1.59013e-16)
(50.121 13.9618 -1.7414e-16)
(50.1056 13.9079 1.22337e-16)
(50.0895 13.8564 0)
(50.0727 13.8073 0)
(50.0552 13.7605 -2.13459e-16)
(50.0371 13.716 2.46501e-17)
(50.0185 13.6737 -2.03414e-16)
(49.9994 13.6336 0)
(49.9799 13.5955 1.49213e-16)
(49.9601 13.5596 -2.94914e-16)
(49.94 13.5258 2.49784e-16)
(49.9198 13.494 0)
(49.8997 13.4643 0)
(49.8797 13.4367 -4.844e-17)
(49.8601 13.4112 2.16899e-17)
(49.841 13.3881 -3.66771e-16)
(49.8235 13.3669 -1.62055e-17)
(49.8066 13.3486 -2.6115e-16)
(49.7885 13.3348 -2.82624e-16)
(49.7824 13.3181 -3.16347e-17)
(49.7841 13.2972 2.17036e-16)
(43.8666 -3.88184 -1.54654e-20)
(43.5728 -3.78438 0)
(43.2342 -3.68024 0)
(42.8319 -3.56744 -2.01387e-16)
(42.3348 -3.44482 0)
(41.6879 -3.30712 3.02941e-16)
(40.7807 -3.14815 -8.20828e-16)
(39.3169 -2.9467 0)
(37.2459 -2.69977 0)
(50.2025 15.5869 -2.70528e-19)
(50.2154 15.4656 8.73077e-17)
(50.2258 15.3489 8.07446e-17)
(50.2337 15.2367 8.1256e-17)
(50.2394 15.1288 0)
(50.243 15.0252 -1.27059e-16)
(50.2446 14.9258 7.23384e-18)
(50.2444 14.8304 6.6597e-18)
(50.2424 14.7388 9.92699e-17)
(50.2387 14.651 1.12662e-17)
(50.2335 14.5669 -1.09023e-17)
(50.2269 14.4862 -1.00149e-17)
(50.2189 14.409 1.42058e-16)
(50.2097 14.3351 1.29921e-16)
(50.1993 14.2644 1.33834e-16)
(50.1878 14.1967 8.9472e-18)
(50.1752 14.132 0)
(50.1617 14.0701 3.81665e-16)
(50.1472 14.011 -1.67903e-16)
(50.1319 13.9545 1.53679e-16)
(50.1158 13.9007 0)
(50.0989 13.8493 -2.61913e-16)
(50.0814 13.8003 1.52631e-17)
(50.0632 13.7537 -2.71665e-17)
(50.0445 13.7093 0)
(50.0252 13.6672 3.62543e-16)
(50.0055 13.6272 -2.13086e-17)
(49.9855 13.5894 -1.34168e-16)
(49.9651 13.5537 2.74867e-16)
(49.9445 13.52 -2.38828e-16)
(49.9238 13.4884 0)
(49.9032 13.459 -1.87669e-16)
(49.8827 13.4316 0)
(49.8627 13.4065 -1.07965e-18)
(49.8432 13.3836 -1.25173e-16)
(49.8253 13.3628 -3.19062e-16)
(49.8082 13.3448 2.77186e-16)
(49.7898 13.3316 5.01055e-16)
(49.7838 13.3153 6.18063e-17)
(49.7864 13.2941 2.22651e-18)
(44.7325 -3.93947 -1.60489e-20)
(44.4629 -3.8437 0)
(44.1611 -3.74211 0)
(43.8147 -3.63319 1.79801e-16)
(43.4049 -3.51652 0)
(42.9005 -3.38888 0)
(42.2455 -3.2479 3.10609e-20)
(41.3294 -3.08497 1.261e-20)
(39.8556 -2.88242 0)
(37.7738 -2.63238 3.40148e-20)
(50.2199 15.7064 5.47998e-17)
(50.234 15.5801 -3.46791e-18)
(50.2455 15.4584 5.74969e-18)
(50.2544 15.3415 -5.31358e-18)
(50.261 15.2291 -7.5489e-17)
(50.2654 15.1211 0)
(50.2677 15.0174 8.34575e-18)
(50.2681 14.9178 0)
(50.2667 14.8223 0)
(50.2635 14.7307 6.51086e-18)
(50.2588 14.6429 1.99973e-16)
(50.2525 14.5587 -1.62783e-16)
(50.2449 14.4781 -1.68619e-16)
(50.2359 14.4009 0)
(50.2257 14.327 0)
(50.2144 14.2563 -1.38249e-16)
(50.2019 14.1887 2.34621e-16)
(50.1885 14.1241 1.31e-17)
(50.1741 14.0623 3.5516e-18)
(50.1589 14.0033 1.72437e-16)
(50.1428 13.947 0)
(50.1259 13.8933 1.83864e-17)
(50.1083 13.842 2.6012e-16)
(50.0901 13.7932 -2.2657e-16)
(50.0713 13.7467 0)
(50.0519 13.7025 0)
(50.032 13.6605 -1.82326e-16)
(50.0117 13.6207 0)
(49.991 13.5831 1.51318e-16)
(49.9701 13.5476 -1.69838e-17)
(49.9489 13.5141 2.53074e-16)
(49.9277 13.4828 0)
(49.9066 13.4535 2.1199e-16)
(49.8857 13.4264 1.95358e-16)
(49.8652 13.4016 -4.48552e-17)
(49.8454 13.379 3.47886e-16)
(49.8272 13.3586 0)
(49.8099 13.3409 -3.56587e-17)
(49.7912 13.3283 -2.8136e-16)
(49.785 13.3124 0)
(49.7888 13.2908 -2.45748e-16)
(45.5956 -3.99545 -1.68546e-20)
(45.3419 -3.90069 0)
(45.0645 -3.80065 0)
(44.7551 -3.69406 -2.05361e-20)
(44.4014 -3.58102 0)
(43.9842 -3.45918 0)
(43.4723 -3.3278 2.56171e-16)
(42.8096 -3.18214 0)
(41.8854 -3.01622 4.32658e-16)
(40.3971 -2.81137 1.18921e-15)
(38.3106 -2.56029 0)
(50.2375 15.831 0)
(50.2529 15.6993 6.4777e-18)
(50.2655 15.5727 -2.02294e-16)
(50.2755 15.4508 5.53841e-18)
(50.2831 15.3336 0)
(50.2883 15.221 -7.83045e-17)
(50.2914 15.1129 -8.70157e-18)
(50.2924 15.0091 8.42998e-18)
(50.2916 14.9094 0)
(50.289 14.8138 -1.39348e-17)
(50.2847 14.7222 0)
(50.2788 14.6344 -3.76331e-16)
(50.2715 14.5502 1.7098e-16)
(50.2628 14.4696 1.67177e-16)
(50.2528 14.3925 0)
(50.2417 14.3187 2.48513e-17)
(50.2294 14.248 -1.73292e-17)
(50.2161 14.1805 1.98374e-16)
(50.2018 14.116 0)
(50.1866 14.0543 1.55682e-17)
(50.1705 13.9954 -1.59497e-16)
(50.1536 13.9392 1.06264e-18)
(50.136 13.8856 -1.75442e-17)
(50.1177 13.8345 0)
(50.0988 13.7858 2.38785e-16)
(50.0793 13.7395 0)
(50.0592 13.6955 -2.04075e-16)
(50.0387 13.6537 0)
(50.0178 13.6141 -1.69172e-16)
(49.9965 13.5766 -3.09105e-16)
(49.975 13.5413 0)
(49.9534 13.508 -1.64767e-17)
(49.9317 13.4769 -2.35924e-16)
(49.91 13.4479 -1.8959e-16)
(49.8887 13.4211 -1.71269e-16)
(49.8678 13.3965 -2.19684e-17)
(49.8475 13.3743 -3.52302e-16)
(49.829 13.3541 3.42152e-16)
(49.8115 13.3369 0)
(49.7925 13.3248 2.51314e-16)
(49.7863 13.3093 3.00633e-17)
(49.7912 13.2873 -2.42359e-17)
(46.4625 -4.05025 -1.77906e-20)
(46.2187 -3.95604 0)
(45.9574 -3.85692 0)
(45.6725 -3.75172 -3.08688e-16)
(45.3559 -3.64086 0)
(44.9949 -3.5224 0)
(44.5705 -3.39643 0)
(44.0511 -3.25978 0)
(43.3812 -3.11058 -3.67458e-20)
(42.4483 -2.94117 -8.87692e-16)
(40.9516 -2.73398 0)
(38.8561 -2.48071 -2.14747e-15)
(50.2553 15.9607 6.17083e-17)
(50.2721 15.8236 3.71814e-18)
(50.286 15.6917 0)
(50.2971 15.5647 1.98614e-16)
(50.3057 15.4426 9.88223e-17)
(50.3118 15.3253 -5.43166e-18)
(50.3157 15.2125 7.71641e-17)
(50.3174 15.1042 1.46213e-16)
(50.3172 15.0003 8.51133e-18)
(50.3151 14.9006 1.38805e-16)
(50.3113 14.805 1.13596e-16)
(50.3058 14.7133 0)
(50.2988 14.6255 3.79568e-16)
(50.2904 14.5414 -2.18156e-17)
(50.2807 14.4608 1.61603e-16)
(50.2697 14.3837 1.48687e-16)
(50.2576 14.31 0)
(50.2444 14.2394 3.86203e-16)
(50.2302 14.172 -2.23855e-16)
(50.215 14.1076 -1.26095e-17)
(50.1989 14.046 -1.99282e-16)
(50.1821 13.9873 -2.11231e-17)
(50.1644 13.9312 0)
(50.1461 13.8777 -1.2762e-16)
(50.127 13.8268 0)
(50.1074 13.7783 0)
(50.0872 13.7321 2.69856e-17)
(50.0665 13.6882 2.29252e-17)
(50.0454 13.6466 2.37884e-17)
(50.0239 13.6072 1.67759e-16)
(50.002 13.5699 -4.3389e-18)
(49.98 13.5348 1.71901e-17)
(49.9578 13.5018 1.65722e-17)
(49.9355 13.4709 4.71368e-16)
(49.9134 13.4422 2.4197e-16)
(49.8916 13.4156 0)
(49.8703 13.3913 2.20503e-17)
(49.8497 13.3694 3.29199e-16)
(49.8308 13.3496 -3.03225e-16)
(49.8131 13.3326 2.81084e-16)
(49.7938 13.3212 -2.8141e-16)
(49.7876 13.3061 2.70402e-16)
(49.7937 13.2836 0)
(47.3378 -4.10424 -1.90411e-20)
(47.0997 -4.01029 1.26861e-16)
(46.8485 -3.91157 0)
(46.58 -3.80713 1.4678e-16)
(46.288 -3.69752 0)
(45.9642 -3.58107 -1.76743e-16)
(45.5962 -3.45816 0)
(45.1645 -3.32662 0)
(44.6382 -3.18596 -2.7137e-16)
(43.9613 -3.03228 3.94668e-20)
(43.0213 -2.85891 0)
(41.5122 -2.6494 5.86172e-20)
(39.4112 -2.39477 -1.09779e-15)
(50.2735 16.0958 -4.38426e-18)
(50.2917 15.9531 -3.8737e-18)
(50.3069 15.8157 0)
(50.3192 15.6834 0)
(50.3288 15.5562 -1.05248e-16)
(50.3358 15.4339 -8.59014e-17)