# y+ ()       
# Time        	patch         	min           	max           	average       
0             	airfoil-l1	1.103953e+00	1.448196e+00	1.242944e+00
0             	wall-l1	0.000000e+00	0.000000e+00	0.000000e+00
0             	airfoil-l2	1.299313e+00	1.368164e+00	1.313246e+00
0             	wall-l2	0.000000e+00	0.000000e+00	0.000000e+00
0             	wall-h2	0.000000e+00	0.000000e+00	0.000000e+00
0             	airfoil-h2	1.299267e+00	1.368018e+00	1.314869e+00
0             	wall-h1	0.000000e+00	0.000000e+00	0.000000e+00
0             	airfoil-h1	1.108134e+00	1.448250e+00	1.248119e+00
50            	airfoil-l1	9.806232e-02	3.174081e-01	1.622816e-01
50            	wall-l1	4.463279e+01	9.993986e+01	6.277175e+01
50            	airfoil-l2	1.575314e-01	1.897169e-01	1.712323e-01
50            	wall-l2	4.460129e+01	4.511276e+01	4.491745e+01
50            	wall-h2	4.455731e+01	4.511122e+01	4.490975e+01
50            	airfoil-h2	1.594727e-01	1.898100e-01	1.712990e-01
50            	wall-h1	4.459004e+01	9.998410e+01	6.276081e+01
50            	airfoil-h1	6.640105e-02	2.830331e-01	1.620026e-01
100           	airfoil-l1	7.618658e-02	2.008520e-01	1.148947e-01
100           	wall-l1	3.145866e+01	9.156591e+01	4.890619e+01
100           	airfoil-l2	1.114914e-01	1.296931e-01	1.177023e-01
100           	wall-l2	4.114966e+01	8.993115e+01	5.627476e+01
100           	wall-h2	4.096831e+01	8.996979e+01	5.626599e+01
100           	airfoil-h2	1.122519e-01	1.298759e-01	1.178457e-01
100           	wall-h1	3.147943e+01	9.157480e+01	4.887619e+01
100           	airfoil-h1	5.436173e-02	1.777677e-01	1.138286e-01
150           	airfoil-l1	3.404753e-02	1.488395e-01	9.895246e-02
150           	wall-l1	1.286728e+01	4.153404e+01	3.065185e+01
150           	airfoil-l2	8.186951e-02	1.008330e-01	9.126949e-02
150           	wall-l2	2.035036e+01	7.323559e+01	5.061337e+01
150           	wall-h2	2.006666e+01	7.292421e+01	5.037689e+01
150           	airfoil-h2	8.180702e-02	1.011723e-01	9.138525e-02
150           	wall-h1	1.282702e+01	4.177171e+01	3.087828e+01
150           	airfoil-h1	4.974266e-02	1.344112e-01	9.589051e-02
200           	airfoil-l1	6.205505e-02	1.245917e-01	9.914996e-02
200           	wall-l1	2.771398e+01	4.351395e+01	3.843252e+01
200           	airfoil-l2	6.215396e-02	9.343668e-02	7.855647e-02
200           	wall-l2	2.111551e+01	3.671176e+01	2.774841e+01
200           	wall-h2	2.070460e+01	3.695374e+01	2.762820e+01
200           	airfoil-h2	6.211420e-02	9.529512e-02	7.861168e-02
200           	wall-h1	2.798305e+01	4.375314e+01	3.868864e+01
200           	airfoil-h1	1.418400e-02	1.127216e-01	9.602395e-02
250           	airfoil-l1	4.597037e-02	1.099897e-01	9.781459e-02
250           	wall-l1	1.533561e+01	3.880189e+01	2.454016e+01
250           	airfoil-l2	4.958374e-02	9.384680e-02	7.537068e-02
250           	wall-l2	2.914095e+01	4.038050e+01	3.728246e+01
250           	wall-h2	2.979968e+01	4.067672e+01	3.764623e+01
250           	airfoil-h2	4.927108e-02	9.651662e-02	7.565218e-02
250           	wall-h1	1.497263e+01	3.910788e+01	2.469801e+01
250           	airfoil-h1	2.760220e-02	1.082764e-01	9.573075e-02
300           	airfoil-l1	4.196548e-02	1.082430e-01	9.598607e-02
300           	wall-l1	1.082804e+01	1.835404e+01	1.580445e+01
300           	airfoil-l2	4.492963e-02	9.286346e-02	7.519805e-02
300           	wall-l2	1.843067e+01	3.701901e+01	2.857799e+01
300           	wall-h2	1.908561e+01	3.708510e+01	2.893776e+01
300           	airfoil-h2	4.450392e-02	9.523676e-02	7.556818e-02
300           	wall-h1	1.111524e+01	1.890377e+01	1.583232e+01
300           	airfoil-h1	3.125602e-02	1.064023e-01	9.437808e-02
350           	airfoil-l1	4.104875e-02	1.068001e-01	9.451973e-02
350           	wall-l1	1.781104e+01	2.104136e+01	1.977491e+01
350           	airfoil-l2	4.466587e-02	9.165039e-02	7.464317e-02
350           	wall-l2	1.720428e+01	2.938792e+01	2.102674e+01
350           	wall-h2	1.738025e+01	2.946232e+01	2.114136e+01
350           	airfoil-h2	4.449105e-02	9.372701e-02	7.491104e-02
350           	wall-h1	1.787888e+01	2.101817e+01	1.980802e+01
350           	airfoil-h1	3.203438e-02	1.047721e-01	9.334915e-02
400           	airfoil-l1	4.084815e-02	1.057159e-01	9.349765e-02
400           	wall-l1	1.863711e+01	1.946422e+01	1.893068e+01
400           	airfoil-l2	4.419380e-02	9.060302e-02	7.372361e-02
400           	wall-l2	1.909636e+01	2.231034e+01	1.998648e+01
400           	wall-h2	1.910487e+01	2.190694e+01	1.991614e+01
400           	airfoil-h2	4.405662e-02	9.250783e-02	7.387834e-02
400           	wall-h1	1.862245e+01	1.949893e+01	1.888966e+01
400           	airfoil-h1	3.220092e-02	1.035710e-01	9.267932e-02
450           	airfoil-l1	4.080418e-02	1.049079e-01	9.280540e-02
450           	wall-l1	1.781407e+01	1.915057e+01	1.878037e+01
450           	airfoil-l2	4.346355e-02	8.975386e-02	7.278320e-02
450           	wall-l2	1.770990e+01	2.115575e+01	1.899426e+01
450           	wall-h2	1.753235e+01	2.055651e+01	1.870574e+01
450           	airfoil-h2	4.327322e-02	9.153666e-02	7.285881e-02
450           	wall-h1	1.761936e+01	1.885528e+01	1.851251e+01
450           	airfoil-h1	3.223602e-02	1.026869e-01	9.224195e-02
500           	airfoil-l1	4.078413e-02	1.043278e-01	9.234322e-02
500           	wall-l1	1.689500e+01	1.883621e+01	1.813413e+01
500           	airfoil-l2	4.269290e-02	8.909062e-02	7.194537e-02
500           	wall-l2	1.874312e+01	2.121072e+01	1.961276e+01
500           	wall-h2	1.843256e+01	2.102474e+01	1.936118e+01
500           	airfoil-h2	4.245841e-02	9.078977e-02	7.198580e-02
500           	wall-h1	1.673150e+01	1.851107e+01	1.787031e+01
500           	airfoil-h1	3.225667e-02	1.023696e-01	9.196845e-02
550           	airfoil-l1	4.075803e-02	1.039195e-01	9.202475e-02
550           	wall-l1	1.587492e+01	1.813001e+01	1.691115e+01
550           	airfoil-l2	4.195101e-02	8.857111e-02	7.121560e-02
550           	wall-l2	1.814194e+01	2.186314e+01	1.974279e+01
550           	wall-h2	1.790081e+01	2.170638e+01	1.951470e+01
550           	airfoil-h2	4.168018e-02	9.019792e-02	7.123011e-02
550           	wall-h1	1.580472e+01	1.788983e+01	1.677471e+01
550           	airfoil-h1	3.228835e-02	1.023700e-01	9.179192e-02
600           	airfoil-l1	4.072311e-02	1.036427e-01	9.179535e-02
600           	wall-l1	1.572539e+01	1.708337e+01	1.627922e+01
600           	airfoil-l2	4.126329e-02	8.815962e-02	7.058126e-02
600           	wall-l2	1.709601e+01	2.229107e+01	1.926332e+01
600           	wall-h2	1.699611e+01	2.211910e+01	1.912910e+01
600           	airfoil-h2	4.096504e-02	8.972832e-02	7.057702e-02
600           	wall-h1	1.570030e+01	1.698417e+01	1.622847e+01
600           	airfoil-h1	3.233120e-02	1.023750e-01	9.168008e-02
650           	airfoil-l1	4.068327e-02	1.034615e-01	9.162410e-02
650           	wall-l1	1.593960e+01	1.668830e+01	1.628158e+01
650           	airfoil-l2	4.063752e-02	8.783225e-02	7.003046e-02
650           	wall-l2	1.669680e+01	2.234078e+01	1.891279e+01
650           	wall-h2	1.667885e+01	2.241449e+01	1.892729e+01
650           	airfoil-h2	4.032136e-02	8.935958e-02	7.001381e-02
650           	wall-h1	1.597744e+01	1.667051e+01	1.629037e+01
650           	airfoil-h1	3.237970e-02	1.023813e-01	9.161175e-02
700           	airfoil-l1	4.064199e-02	1.033412e-01	9.149210e-02
700           	wall-l1	1.613849e+01	1.676990e+01	1.648002e+01
700           	airfoil-l2	4.007327e-02	8.757093e-02	6.955262e-02
700           	wall-l2	1.677592e+01	2.221201e+01	1.886899e+01
700           	wall-h2	1.682966e+01	2.257919e+01	1.901667e+01
700           	airfoil-h2	3.974698e-02	8.907265e-02	6.952872e-02
700           	wall-h1	1.626173e+01	1.682375e+01	1.657062e+01
700           	airfoil-h1	3.242967e-02	1.023878e-01	9.157108e-02
750           	airfoil-l1	4.060264e-02	1.032574e-01	9.138790e-02
750           	wall-l1	1.623049e+01	1.694170e+01	1.662451e+01
750           	airfoil-l2	3.956754e-02	8.736124e-02	6.913848e-02
750           	wall-l2	1.694729e+01	2.215153e+01	1.896403e+01
750           	wall-h2	1.708713e+01	2.264417e+01	1.919997e+01
750           	airfoil-h2	3.923670e-02	8.885055e-02	6.911144e-02
750           	wall-h1	1.641778e+01	1.708178e+01	1.679734e+01
750           	airfoil-h1	3.247721e-02	1.023940e-01	9.154758e-02
800           	airfoil-l1	4.056831e-02	1.031955e-01	9.130454e-02
800           	wall-l1	1.624849e+01	1.703880e+01	1.667569e+01
800           	airfoil-l2	3.911666e-02	8.719209e-02	6.877979e-02
800           	wall-l2	1.704468e+01	2.215441e+01	1.904334e+01
800           	wall-h2	1.725744e+01	2.265805e+01	1.933556e+01
800           	airfoil-h2	3.878490e-02	8.867924e-02	6.875292e-02
800           	wall-h1	1.646171e+01	1.725171e+01	1.689739e+01
800           	airfoil-h1	3.251866e-02	1.023997e-01	9.153476e-02
850           	airfoil-l1	4.054058e-02	1.031483e-01	9.123755e-02
850           	wall-l1	1.624010e+01	1.705697e+01	1.667315e+01
850           	airfoil-l2	3.871652e-02	8.705510e-02	6.846927e-02
850           	wall-l2	1.706312e+01	2.216190e+01	1.906734e+01
850           	wall-h2	1.731160e+01	2.267724e+01	1.939568e+01
850           	airfoil-h2	3.838636e-02	8.854761e-02	6.844525e-02
850           	wall-h1	1.645851e+01	1.730537e+01	1.690991e+01
850           	airfoil-h1	3.255212e-02	1.024044e-01	9.152860e-02
900           	airfoil-l1	4.051886e-02	1.031153e-01	9.118912e-02
900           	wall-l1	1.622780e+01	1.704746e+01	1.666083e+01
900           	airfoil-l2	3.839844e-02	8.695540e-02	6.822877e-02
900           	wall-l2	1.705369e+01	2.215961e+01	1.906383e+01
900           	wall-h2	1.731092e+01	2.271388e+01	1.941477e+01
900           	airfoil-h2	3.808281e-02	8.845938e-02	6.821602e-02
900           	wall-h1	1.645029e+01	1.730447e+01	1.690058e+01
900           	airfoil-h1	3.257831e-02	1.024081e-01	9.152685e-02
950           	airfoil-l1	4.050252e-02	1.030906e-01	9.115127e-02
950           	wall-l1	1.622208e+01	1.703995e+01	1.665297e+01
950           	airfoil-l2	3.812269e-02	8.687624e-02	6.802563e-02
950           	wall-l2	1.704623e+01	2.216746e+01	1.906197e+01
950           	wall-h2	1.730563e+01	2.275480e+01	1.942441e+01
950           	airfoil-h2	3.781643e-02	8.839134e-02	6.801983e-02
950           	wall-h1	1.645169e+01	1.729911e+01	1.689717e+01
950           	airfoil-h1	3.259803e-02	1.024110e-01	9.152685e-02
1000          	airfoil-l1	4.048984e-02	1.030708e-01	9.112022e-02
1000          	wall-l1	1.622415e+01	1.703790e+01	1.665363e+01
1000          	airfoil-l2	3.787912e-02	8.681072e-02	6.784838e-02
1000          	wall-l2	1.704419e+01	2.219599e+01	1.906909e+01
1000          	wall-h2	1.730755e+01	2.278855e+01	1.943425e+01
1000          	airfoil-h2	3.757871e-02	8.833716e-02	6.784838e-02
1000          	wall-h1	1.645915e+01	1.730106e+01	1.690337e+01
1000          	airfoil-h1	3.261326e-02	1.024132e-01	9.152802e-02
1050          	airfoil-l1	4.047929e-02	1.030549e-01	9.109444e-02
1050          	wall-l1	1.623353e+01	1.704359e+01	1.666114e+01
1050          	airfoil-l2	3.766390e-02	8.675564e-02	6.769254e-02
1050          	wall-l2	1.704989e+01	2.222767e+01	1.908262e+01
1050          	wall-h2	1.731669e+01	2.280562e+01	1.944622e+01
1050          	airfoil-h2	3.736782e-02	8.829427e-02	6.769838e-02
1050          	wall-h1	1.646970e+01	1.731019e+01	1.691329e+01
1050          	airfoil-h1	3.262594e-02	1.024151e-01	9.153010e-02
1100          	airfoil-l1	4.047000e-02	1.030422e-01	9.107307e-02
1100          	wall-l1	1.624241e+01	1.705405e+01	1.667160e+01
1100          	airfoil-l2	3.747294e-02	8.670926e-02	6.755505e-02
1100          	wall-l2	1.706034e+01	2.225340e+01	1.909661e+01
1100          	wall-h2	1.732785e+01	2.282270e+01	1.945989e+01
1100          	airfoil-h2	3.718074e-02	8.826067e-02	6.756708e-02
1100          	wall-h1	1.647908e+01	1.732135e+01	1.692340e+01
1100          	airfoil-h1	3.263708e-02	1.024166e-01	9.153274e-02
1150          	airfoil-l1	4.046139e-02	1.030323e-01	9.105540e-02
1150          	wall-l1	1.624878e+01	1.706507e+01	1.668016e+01
1150          	airfoil-l2	3.730290e-02	8.667029e-02	6.743367e-02
1150          	wall-l2	1.707136e+01	2.226537e+01	1.910663e+01
1150          	wall-h2	1.733870e+01	2.284425e+01	1.947399e+01
1150          	airfoil-h2	3.701469e-02	8.823456e-02	6.745225e-02
1150          	wall-h1	1.648784e+01	1.733218e+01	1.693288e+01
1150          	airfoil-h1	3.264745e-02	1.024181e-01	9.153562e-02
1200          	airfoil-l1	4.045291e-02	1.030244e-01	9.104080e-02
1200          	wall-l1	1.625171e+01	1.707161e+01	1.668505e+01
1200          	airfoil-l2	3.715115e-02	8.663764e-02	6.732659e-02
1200          	wall-l2	1.707792e+01	2.226811e+01	1.911309e+01
1200          	wall-h2	1.734816e+01	2.287354e+01	1.949055e+01
1200          	airfoil-h2	3.686728e-02	8.821440e-02	6.735193e-02
1200          	wall-h1	1.649941e+01	1.734164e+01	1.694337e+01
1200          	airfoil-h1	3.265767e-02	1.024195e-01	9.153858e-02
1250          	airfoil-l1	4.044421e-02	1.030180e-01	9.102870e-02
1250          	wall-l1	1.625149e+01	1.707523e+01	1.668597e+01
1250          	airfoil-l2	3.701559e-02	8.661032e-02	6.723219e-02
1250          	wall-l2	1.708154e+01	2.226316e+01	1.911467e+01
1250          	wall-h2	1.735999e+01	2.290341e+01	1.950754e+01
1250          	airfoil-h2	3.673653e-02	8.819897e-02	6.726437e-02
1250          	wall-h1	1.651184e+01	1.735347e+01	1.695546e+01
1250          	airfoil-h1	3.266818e-02	1.024209e-01	9.154151e-02
1300          	airfoil-l1	4.043524e-02	1.030130e-01	9.101867e-02
1300          	wall-l1	1.624706e+01	1.707508e+01	1.668396e+01
1300          	airfoil-l2	3.689455e-02	8.658751e-02	6.714907e-02
1300          	wall-l2	1.708141e+01	2.225782e+01	1.911363e+01
1300          	wall-h2	1.737361e+01	2.293385e+01	1.952650e+01
1300          	airfoil-h2	3.662073e-02	8.818727e-02	6.718805e-02
1300          	wall-h1	1.652237e+01	1.736711e+01	1.696849e+01
1300          	airfoil-h1	3.267907e-02	1.024224e-01	9.154433e-02
1350          	airfoil-l1	4.042605e-02	1.030088e-01	9.101033e-02
1350          	wall-l1	1.624435e+01	1.707247e+01	1.668040e+01
1350          	airfoil-l2	3.678652e-02	8.656849e-02	6.707595e-02
1350          	wall-l2	1.707880e+01	2.225168e+01	1.911075e+01
1350          	wall-h2	1.738787e+01	2.296125e+01	1.954450e+01
1350          	airfoil-h2	3.651840e-02	8.817849e-02	6.712161e-02
1350          	wall-h1	1.653445e+01	1.738135e+01	1.698153e+01
1350          	airfoil-h1	3.269024e-02	1.024241e-01	9.154700e-02
1400          	airfoil-l1	4.041686e-02	1.030054e-01	9.100337e-02
1400          	wall-l1	1.623959e+01	1.706863e+01	1.667632e+01
1400          	airfoil-l2	3.669034e-02	8.655263e-02	6.701169e-02
1400          	wall-l2	1.707500e+01	2.224494e+01	1.910610e+01
1400          	wall-h2	1.740208e+01	2.298898e+01	1.956335e+01
1400          	airfoil-h2	3.642818e-02	8.817200e-02	6.706383e-02
1400          	wall-h1	1.654503e+01	1.739552e+01	1.699405e+01
1400          	airfoil-h1	3.270142e-02	1.024257e-01	9.154950e-02
1450          	airfoil-l1	4.040773e-02	1.030026e-01	9.099755e-02
1450          	wall-l1	1.623551e+01	1.706414e+01	1.667190e+01
1450          	airfoil-l2	3.660485e-02	8.653943e-02	6.695528e-02
1450          	wall-l2	1.707048e+01	2.223458e+01	1.909986e+01
1450          	wall-h2	1.741535e+01	2.301507e+01	1.958103e+01
1450          	airfoil-h2	3.634893e-02	8.816728e-02	6.701365e-02
1450          	wall-h1	1.655607e+01	1.740878e+01	1.700575e+01
1450          	airfoil-h1	3.271253e-02	1.024274e-01	9.155180e-02
1500          	airfoil-l1	4.039875e-02	1.030002e-01	9.099266e-02
1500          	wall-l1	1.623189e+01	1.705928e+01	1.666725e+01
1500          	airfoil-l2	3.652889e-02	8.652844e-02	6.690581e-02
1500          	wall-l2	1.706566e+01	2.222419e+01	1.909336e+01
1500          	wall-h2	1.742749e+01	2.304104e+01	1.959772e+01
1500          	airfoil-h2	3.627949e-02	8.816393e-02	6.697012e-02
1500          	wall-h1	1.656678e+01	1.742086e+01	1.701690e+01
1500          	airfoil-h1	3.272348e-02	1.024291e-01	9.155392e-02
1550          	airfoil-l1	4.038999e-02	1.029982e-01	9.098854e-02
1550          	wall-l1	1.622639e+01	1.705376e+01	1.666240e+01
1550          	airfoil-l2	3.646143e-02	8.651930e-02	6.686245e-02
1550          	wall-l2	1.706011e+01	2.221206e+01	1.908614e+01
1550          	wall-h2	1.743891e+01	2.306572e+01	1.961348e+01
1550          	airfoil-h2	3.621873e-02	8.816162e-02	6.693240e-02
1550          	wall-h1	1.657545e+01	1.743231e+01	1.702772e+01
1550          	airfoil-h1	3.273417e-02	1.024308e-01	9.155584e-02
1600          	airfoil-l1	4.038162e-02	1.029964e-01	9.098507e-02
1600          	wall-l1	1.622204e+01	1.704863e+01	1.665724e+01
1600          	airfoil-l2	3.640147e-02	8.651170e-02	6.682448e-02
1600          	wall-l2	1.705495e+01	2.219911e+01	1.907869e+01
1600          	wall-h2	1.745052e+01	2.308830e+01	1.962844e+01
1600          	airfoil-h2	3.616556e-02	8.816010e-02	6.689976e-02
1600          	wall-h1	1.658518e+01	1.744394e+01	1.703797e+01
1600          	airfoil-h1	3.274437e-02	1.024324e-01	9.155758e-02
1650          	airfoil-l1	4.037381e-02	1.029949e-01	9.098213e-02
1650          	wall-l1	1.621695e+01	1.704389e+01	1.665226e+01
1650          	airfoil-l2	3.634842e-02	8.650538e-02	6.679127e-02
1650          	wall-l2	1.705024e+01	2.218769e+01	1.907209e+01
1650          	wall-h2	1.746111e+01	2.310778e+01	1.964184e+01
1650          	airfoil-h2	3.611914e-02	8.815917e-02	6.687155e-02
1650          	wall-h1	1.659314e+01	1.745446e+01	1.704717e+01
1650          	airfoil-h1	3.275390e-02	1.024339e-01	9.155914e-02
1700          	airfoil-l1	4.036670e-02	1.029936e-01	9.097964e-02
1700          	wall-l1	1.621298e+01	1.703889e+01	1.664811e+01
1700          	airfoil-l2	3.630156e-02	8.650012e-02	6.676225e-02
1700          	wall-l2	1.704520e+01	2.217969e+01	1.906636e+01
1700          	wall-h2	1.746882e+01	2.312337e+01	1.965224e+01
1700          	airfoil-h2	3.607874e-02	8.815867e-02	6.684721e-02
1700          	wall-h1	1.660021e+01	1.746220e+01	1.705491e+01
1700          	airfoil-h1	3.276260e-02	1.024353e-01	9.156053e-02
1750          	airfoil-l1	4.035993e-02	1.029924e-01	9.097752e-02
1750          	wall-l1	1.621094e+01	1.703466e+01	1.664433e+01
1750          	airfoil-l2	3.626028e-02	8.649574e-02	6.673689e-02
1750          	wall-l2	1.704098e+01	2.217289e+01	1.906180e+01
1750          	wall-h2	1.747599e+01	2.313758e+01	1.966195e+01
1750          	airfoil-h2	3.604374e-02	8.815848e-02	6.682622e-02
1750          	wall-h1	1.660777e+01	1.746936e+01	1.706174e+01
1750          	airfoil-h1	3.277087e-02	1.024366e-01	9.156177e-02
1800          	airfoil-l1	4.035357e-02	1.029914e-01	9.097570e-02
1800          	wall-l1	1.620748e+01	1.703140e+01	1.664102e+01
1800          	airfoil-l2	3.622396e-02	8.649210e-02	6.671473e-02
1800          	wall-l2	1.703775e+01	2.216579e+01	1.905676e+01
1800          	wall-h2	1.748386e+01	2.315024e+01	1.967092e+01
1800          	airfoil-h2	3.601349e-02	8.815851e-02	6.680811e-02
1800          	wall-h1	1.661234e+01	1.747722e+01	1.706791e+01
1800          	airfoil-h1	3.277862e-02	1.024379e-01	9.156288e-02
1850          	airfoil-l1	4.034769e-02	1.029905e-01	9.097414e-02
1850          	wall-l1	1.620464e+01	1.702880e+01	1.663833e+01
1850          	airfoil-l2	3.619205e-02	8.648906e-02	6.669537e-02
1850          	wall-l2	1.703517e+01	2.216004e+01	1.905267e+01
1850          	wall-h2	1.749125e+01	2.316153e+01	1.967893e+01
1850          	airfoil-h2	3.598741e-02	8.815869e-02	6.679252e-02
1850          	wall-h1	1.661648e+01	1.748450e+01	1.707344e+01
1850          	airfoil-h1	3.278578e-02	1.024390e-01	9.156387e-02
1900          	airfoil-l1	4.034221e-02	1.029896e-01	9.097278e-02
1900          	wall-l1	1.620161e+01	1.702547e+01	1.663568e+01
1900          	airfoil-l2	3.616406e-02	8.648653e-02	6.667846e-02
1900          	wall-l2	1.703189e+01	2.215402e+01	1.904903e+01
1900          	wall-h2	1.749640e+01	2.317210e+01	1.968695e+01
1900          	airfoil-h2	3.596500e-02	8.815896e-02	6.677909e-02
1900          	wall-h1	1.661970e+01	1.748966e+01	1.707822e+01
1900          	airfoil-h1	3.279247e-02	1.024401e-01	9.156475e-02
1950          	airfoil-l1	4.033724e-02	1.029889e-01	9.097162e-02
1950          	wall-l1	1.620094e+01	1.702239e+01	1.663337e+01
1950          	airfoil-l2	3.613944e-02	8.648441e-02	6.666369e-02
1950          	wall-l2	1.702874e+01	2.215054e+01	1.904551e+01
1950          	wall-h2	1.750072e+01	2.318346e+01	1.969352e+01
1950          	airfoil-h2	3.594582e-02	8.815929e-02	6.676754e-02
1950          	wall-h1	1.662488e+01	1.749396e+01	1.708263e+01
1950          	airfoil-h1	3.279853e-02	1.024411e-01	9.156553e-02
2000          	airfoil-l1	4.033265e-02	1.029882e-01	9.097060e-02
2000          	wall-l1	1.619912e+01	1.702027e+01	1.663115e+01
2000          	airfoil-l2	3.611766e-02	8.648264e-02	6.665079e-02
2000          	wall-l2	1.702654e+01	2.214374e+01	1.904178e+01
2000          	wall-h2	1.750587e+01	2.319175e+01	1.969919e+01
2000          	airfoil-h2	3.592926e-02	8.815965e-02	6.675760e-02
2000          	wall-h1	1.662944e+01	1.749924e+01	1.708676e+01
2000          	airfoil-h1	3.280413e-02	1.024421e-01	9.156622e-02
2050          	airfoil-l1	4.032841e-02	1.029876e-01	9.096971e-02
2050          	wall-l1	1.619612e+01	1.701785e+01	1.662901e+01
2050          	airfoil-l2	3.609835e-02	8.648115e-02	6.663952e-02
2050          	wall-l2	1.702413e+01	2.213751e+01	1.903834e+01
2050          	wall-h2	1.751043e+01	2.319935e+01	1.970496e+01
2050          	airfoil-h2	3.591485e-02	8.816001e-02	6.674906e-02
2050          	wall-h1	1.663164e+01	1.750374e+01	1.709061e+01
2050          	airfoil-h1	3.280930e-02	1.024429e-01	9.156683e-02
2100          	airfoil-l1	4.032443e-02	1.029871e-01	9.096893e-02
2100          	wall-l1	1.619296e+01	1.701450e+01	1.662668e+01
2100          	airfoil-l2	3.608129e-02	8.647990e-02	6.662968e-02
2100          	wall-l2	1.702086e+01	2.213134e+01	1.903528e+01
2100          	wall-h2	1.751326e+01	2.320653e+01	1.971034e+01
2100          	airfoil-h2	3.590236e-02	8.816037e-02	6.674172e-02
2100          	wall-h1	1.663389e+01	1.750649e+01	1.709411e+01
2100          	airfoil-h1	3.281415e-02	1.024437e-01	9.156738e-02
2150          	airfoil-l1	4.032057e-02	1.029866e-01	9.096824e-02
2150          	wall-l1	1.619202e+01	1.701289e+01	1.662446e+01
2150          	airfoil-l2	3.606625e-02	8.647885e-02	6.662107e-02
2150          	wall-l2	1.701927e+01	2.212830e+01	1.903194e+01
2150          	wall-h2	1.751719e+01	2.321495e+01	1.971509e+01
2150          	airfoil-h2	3.589158e-02	8.816072e-02	6.673541e-02
2150          	wall-h1	1.663766e+01	1.751039e+01	1.709737e+01
2150          	airfoil-h1	3.281884e-02	1.024445e-01	9.156788e-02
2200          	airfoil-l1	4.031692e-02	1.029861e-01	9.096761e-02
2200          	wall-l1	1.618946e+01	1.701118e+01	1.662262e+01
2200          	airfoil-l2	3.605298e-02	8.647796e-02	6.661353e-02
2200          	wall-l2	1.701747e+01	2.212433e+01	1.902921e+01
2200          	wall-h2	1.752146e+01	2.322239e+01	1.971940e+01
2200          	airfoil-h2	3.588229e-02	8.816104e-02	6.672998e-02
2200          	wall-h1	1.663946e+01	1.751475e+01	1.710083e+01
2200          	airfoil-h1	3.282329e-02	1.024452e-01	9.156833e-02
2250          	airfoil-l1	4.031339e-02	1.029857e-01	9.096706e-02
2250          	wall-l1	1.618768e+01	1.700864e+01	1.662047e+01
2250          	airfoil-l2	3.604129e-02	8.647720e-02	6.660693e-02
2250          	wall-l2	1.701492e+01	2.211752e+01	1.902584e+01
2250          	wall-h2	1.752420e+01	2.322711e+01	1.972378e+01
2250          	airfoil-h2	3.587425e-02	8.816133e-02	6.672531e-02
2250          	wall-h1	1.664322e+01	1.751755e+01	1.710378e+01
2250          	airfoil-h1	3.282760e-02	1.024459e-01	9.156874e-02
2300          	airfoil-l1	4.031018e-02	1.029853e-01	9.096655e-02
2300          	wall-l1	1.618669e+01	1.700578e+01	1.661828e+01
2300          	airfoil-l2	3.603095e-02	8.647655e-02	6.660115e-02
2300          	wall-l2	1.701215e+01	2.211218e+01	1.902328e+01
2300          	wall-h2	1.752688e+01	2.323242e+01	1.972818e+01
2300          	airfoil-h2	3.586731e-02	8.816161e-02	6.672129e-02
2300          	wall-h1	1.664657e+01	1.752008e+01	1.710641e+01
2300          	airfoil-h1	3.283152e-02	1.024465e-01	9.156912e-02
2350          	airfoil-l1	4.030716e-02	1.029849e-01	9.096609e-02
2350          	wall-l1	1.618398e+01	1.700517e+01	1.661635e+01
2350          	airfoil-l2	3.602167e-02	8.647600e-02	6.659607e-02
2350          	wall-l2	1.701144e+01	2.210865e+01	1.901959e+01
2350          	wall-h2	1.753234e+01	2.324031e+01	1.973202e+01
2350          	airfoil-h2	3.586118e-02	8.816185e-02	6.671781e-02
2350          	wall-h1	1.664852e+01	1.752563e+01	1.710934e+01
2350          	airfoil-h1	3.283519e-02	1.024471e-01	9.156947e-02
2400          	airfoil-l1	4.030390e-02	1.029846e-01	9.096566e-02
2400          	wall-l1	1.618284e+01	1.700233e+01	1.661418e+01
2400          	airfoil-l2	3.601315e-02	8.647552e-02	6.659160e-02
2400          	wall-l2	1.700867e+01	2.210265e+01	1.901694e+01
2400          	wall-h2	1.753366e+01	2.324472e+01	1.973625e+01
2400          	airfoil-h2	3.585560e-02	8.816208e-02	6.671480e-02
2400          	wall-h1	1.665216e+01	1.752687e+01	1.711198e+01
2400          	airfoil-h1	3.283916e-02	1.024478e-01	9.156980e-02
2450          	airfoil-l1	4.030079e-02	1.029842e-01	9.096527e-02
2450          	wall-l1	1.618041e+01	1.700004e+01	1.661203e+01
2450          	airfoil-l2	3.600535e-02	8.647510e-02	6.658765e-02
2450          	wall-l2	1.700636e+01	2.209836e+01	1.901418e+01
2450          	wall-h2	1.753650e+01	2.325102e+01	1.973986e+01
2450          	airfoil-h2	3.585049e-02	8.816228e-02	6.671219e-02
2450          	wall-h1	1.665348e+01	1.752974e+01	1.711457e+01
2450          	airfoil-h1	3.284295e-02	1.024484e-01	9.157011e-02
2500          	airfoil-l1	4.029817e-02	1.029839e-01	9.096490e-02
2500          	wall-l1	1.617871e+01	1.699650e+01	1.660992e+01
2500          	airfoil-l2	3.599825e-02	8.647474e-02	6.658417e-02
2500          	wall-l2	1.700280e+01	2.209296e+01	1.901026e+01
2500          	wall-h2	1.753817e+01	2.325833e+01	1.974378e+01
2500          	airfoil-h2	3.584576e-02	8.816246e-02	6.670991e-02
2500          	wall-h1	1.665716e+01	1.753138e+01	1.711742e+01
2500          	airfoil-h1	3.284614e-02	1.024489e-01	9.157039e-02
2550          	airfoil-l1	4.029530e-02	1.029836e-01	9.096456e-02
2550          	wall-l1	1.617531e+01	1.699452e+01	1.660778e+01
2550          	airfoil-l2	3.599170e-02	8.647441e-02	6.658108e-02
2550          	wall-l2	1.700081e+01	2.208716e+01	1.900697e+01
2550          	wall-h2	1.754123e+01	2.326339e+01	1.974749e+01
2550          	airfoil-h2	3.584140e-02	8.816263e-02	6.670792e-02
2550          	wall-h1	1.665767e+01	1.753447e+01	1.712021e+01
2550          	airfoil-h1	3.284962e-02	1.024495e-01	9.157067e-02
2600          	airfoil-l1	4.029232e-02	1.029834e-01	9.096422e-02
2600          	wall-l1	1.617450e+01	1.699264e+01	1.660538e+01
2600          	airfoil-l2	3.598572e-02	8.647413e-02	6.657834e-02
2600          	wall-l2	1.699891e+01	2.208174e+01	1.900344e+01
2600          	wall-h2	1.754470e+01	2.327072e+01	1.975116e+01
2600          	airfoil-h2	3.583735e-02	8.816277e-02	6.670616e-02
2600          	wall-h1	1.666205e+01	1.753797e+01	1.712306e+01
2600          	airfoil-h1	3.285326e-02	1.024500e-01	9.157093e-02
2650          	airfoil-l1	4.028960e-02	1.029831e-01	9.096391e-02
2650          	wall-l1	1.617141e+01	1.699070e+01	1.660304e+01
2650          	airfoil-l2	3.598014e-02	8.647388e-02	6.657590e-02
2650          	wall-l2	1.699699e+01	2.207746e+01	1.900109e+01
2650          	wall-h2	1.754861e+01	2.327556e+01	1.975582e+01
2650          	airfoil-h2	3.583361e-02	8.816291e-02	6.670461e-02
2650          	wall-h1	1.666310e+01	1.754186e+01	1.712561e+01
2650          	airfoil-h1	3.285656e-02	1.024506e-01	9.157119e-02
2700          	airfoil-l1	4.028713e-02	1.029828e-01	9.096362e-02
2700          	wall-l1	1.616955e+01	1.698688e+01	1.660076e+01
2700          	airfoil-l2	3.597482e-02	8.647365e-02	6.657371e-02
2700          	wall-l2	1.699310e+01	2.207085e+01	1.899650e+01
2700          	wall-h2	1.755031e+01	2.328301e+01	1.975909e+01
2700          	airfoil-h2	3.582997e-02	8.816303e-02	6.670324e-02
2700          	wall-h1	1.666675e+01	1.754363e+01	1.712859e+01
2700          	airfoil-h1	3.285957e-02	1.024511e-01	9.157143e-02
2750          	airfoil-l1	4.028466e-02	1.029826e-01	9.096333e-02
2750          	wall-l1	1.616709e+01	1.698546e+01	1.659825e+01
2750          	airfoil-l2	3.596966e-02	8.647344e-02	6.657174e-02
2750          	wall-l2	1.699177e+01	2.206426e+01	1.899353e+01
2750          	wall-h2	1.755370e+01	2.328692e+01	1.976357e+01
2750          	airfoil-h2	3.582632e-02	8.816313e-02	6.670200e-02
2750          	wall-h1	1.666907e+01	1.754693e+01	1.713102e+01
2750          	airfoil-h1	3.286258e-02	1.024516e-01	9.157166e-02
2800          	airfoil-l1	4.028197e-02	1.029824e-01	9.096306e-02
2800          	wall-l1	1.616515e+01	1.698277e+01	1.659601e+01
2800          	airfoil-l2	3.596466e-02	8.647325e-02	6.656996e-02
2800          	wall-l2	1.698902e+01	2.206067e+01	1.899005e+01
2800          	wall-h2	1.755663e+01	2.329380e+01	1.976647e+01
2800          	airfoil-h2	3.582270e-02	8.816323e-02	6.670090e-02
2800          	wall-h1	1.667102e+01	1.754991e+01	1.713375e+01
2800          	airfoil-h1	3.286584e-02	1.024521e-01	9.157188e-02
2850          	airfoil-l1	4.027934e-02	1.029821e-01	9.096279e-02
2850          	wall-l1	1.616388e+01	1.698057e+01	1.659359e+01
2850          	airfoil-l2	3.595980e-02	8.647307e-02	6.656835e-02
2850          	wall-l2	1.698685e+01	2.205364e+01	1.898645e+01
2850          	wall-h2	1.755932e+01	2.329860e+01	1.977063e+01
2850          	airfoil-h2	3.581906e-02	8.816332e-02	6.669987e-02
2850          	wall-h1	1.667483e+01	1.755255e+01	1.713625e+01
2850          	airfoil-h1	3.286904e-02	1.024526e-01	9.157210e-02
2900          	airfoil-l1	4.027688e-02	1.029819e-01	9.096254e-02
2900          	wall-l1	1.616139e+01	1.697737e+01	1.659149e+01
2900          	airfoil-l2	3.595507e-02	8.647292e-02	6.656689e-02
2900          	wall-l2	1.698364e+01	2.204971e+01	1.898358e+01
2900          	wall-h2	1.756173e+01	2.330516e+01	1.977424e+01
2900          	airfoil-h2	3.581544e-02	8.816340e-02	6.669894e-02
2900          	wall-h1	1.667635e+01	1.755500e+01	1.713882e+01