/*--------------------------------*- C++ -*----------------------------------*\
  =========                 |
  \\      /  F ield         | OpenFOAM: The Open Source CFD Toolbox
   \\    /   O peration     | Website:  https://openfoam.org
    \\  /    A nd           | Version:  7
     \\/     M anipulation  |
\*---------------------------------------------------------------------------*/
FoamFile
{
    version     2.0;
    format      ascii;
    class       volScalarField;
    location    "2000";
    object      nut;
}
// * * * * * * * * * * * * * * * * * * * * * * * * * * * * * * * * * * * * * //

dimensions      [0 2 -1 0 0 0 0];

internalField   nonuniform List<scalar> 
40920
(
5.2233e-06
5.22002e-06
5.23492e-06
5.2195e-06
5.22988e-06
5.23142e-06
5.21821e-06
5.22725e-06
5.22473e-06
5.22223e-06
5.21728e-06
5.22422e-06
5.22187e-06
5.21769e-06
5.21781e-06
5.21628e-06
5.22163e-06
5.21898e-06
5.21696e-06
5.21635e-06
5.2169e-06
5.21531e-06
5.21924e-06
5.21692e-06
5.21601e-06
5.2161e-06
5.21623e-06
5.21736e-06
5.21434e-06
5.21715e-06
5.21547e-06
5.21546e-06
5.21563e-06
5.21615e-06
5.21787e-06
5.21993e-06
5.2134e-06
5.21539e-06
5.2146e-06
5.21507e-06
5.21531e-06
5.21621e-06
5.21848e-06
5.22077e-06
5.22196e-06
5.21249e-06
5.21397e-06
5.21416e-06
5.21477e-06
5.21509e-06
5.21656e-06
5.21898e-06
5.2207e-06
5.22111e-06
5.2209e-06
5.21162e-06
5.21288e-06
5.21381e-06
5.21447e-06
5.215e-06
5.217e-06
5.21927e-06
5.22037e-06
5.21977e-06
5.2181e-06
5.21739e-06
5.21083e-06
5.21211e-06
5.21358e-06
5.21417e-06
5.21504e-06
5.21733e-06
5.21926e-06
5.21958e-06
5.21832e-06
5.21622e-06
5.21428e-06
5.21422e-06
5.21012e-06
5.21165e-06
5.21341e-06
5.21393e-06
5.21523e-06
5.21755e-06
5.21895e-06
5.21851e-06
5.2167e-06
5.21455e-06
5.21319e-06
5.21295e-06
5.21406e-06
5.20951e-06
5.21145e-06
5.21326e-06
5.21378e-06
5.21553e-06
5.21765e-06
5.21839e-06
5.21727e-06
5.21512e-06
5.21323e-06
5.21256e-06
5.21343e-06
5.21503e-06
5.21666e-06
5.209e-06
5.21146e-06
5.21311e-06
5.2137e-06
5.21574e-06
5.21759e-06
5.21764e-06
5.21598e-06
5.21374e-06
5.21235e-06
5.21257e-06
5.21409e-06
5.21637e-06
5.21887e-06
5.22048e-06
5.20861e-06
5.21153e-06
5.21294e-06
5.21369e-06
5.21586e-06
5.21733e-06
5.21676e-06
5.21472e-06
5.21264e-06
5.21192e-06
5.21293e-06
5.21505e-06
5.21762e-06
5.22028e-06
5.22291e-06
5.22436e-06
5.20833e-06
5.21159e-06
5.21277e-06
5.21377e-06
5.2159e-06
5.2169e-06
5.21582e-06
5.21358e-06
5.21186e-06
5.21192e-06
5.21356e-06
5.21605e-06
5.21884e-06
5.22156e-06
5.22407e-06
5.22648e-06
5.22782e-06
5.20817e-06
5.21164e-06
5.2126e-06
5.21392e-06
5.21587e-06
5.21634e-06
5.21485e-06
5.21259e-06
5.2114e-06
5.21217e-06
5.21432e-06
5.21706e-06
5.21991e-06
5.22264e-06
5.22514e-06
5.22737e-06
5.22949e-06
5.23079e-06
5.20812e-06
5.21167e-06
5.21246e-06
5.214e-06
5.21575e-06
5.21571e-06
5.2139e-06
5.2118e-06
5.21122e-06
5.21259e-06
5.2151e-06
5.21801e-06
5.22087e-06
5.22353e-06
5.22598e-06
5.22819e-06
5.23017e-06
5.23207e-06
5.23334e-06
5.20818e-06
5.21168e-06
5.21233e-06
5.21403e-06
5.21553e-06
5.21504e-06
5.21302e-06
5.21121e-06
5.21129e-06
5.21313e-06
5.21586e-06
5.21884e-06
5.22168e-06
5.22427e-06
5.22664e-06
5.22883e-06
5.23079e-06
5.23261e-06
5.23432e-06
5.23557e-06
5.20835e-06
5.21168e-06
5.21223e-06
5.21403e-06
5.21523e-06
5.21436e-06
5.21223e-06
5.21081e-06
5.21149e-06
5.21372e-06
5.21659e-06
5.21955e-06
5.22235e-06
5.22489e-06
5.22718e-06
5.22931e-06
5.23127e-06
5.23306e-06
5.23478e-06
5.23634e-06
5.23756e-06
5.20863e-06
5.21164e-06
5.21217e-06
5.21398e-06
5.21486e-06
5.21368e-06
5.21157e-06
5.2106e-06
5.21178e-06
5.2143e-06
5.21726e-06
5.22016e-06
5.22289e-06
5.22538e-06
5.22762e-06
5.22969e-06
5.23164e-06
5.23343e-06
5.2351e-06
5.23674e-06
5.23815e-06
5.23937e-06
5.20906e-06
5.21158e-06
5.21216e-06
5.21391e-06
5.21444e-06
5.21303e-06
5.21103e-06
5.21055e-06
5.21214e-06
5.21485e-06
5.21785e-06
5.22071e-06
5.22333e-06
5.22575e-06
5.22797e-06
5.22999e-06
5.2319e-06
5.23371e-06
5.23537e-06
5.23695e-06
5.23851e-06
5.23981e-06
5.24103e-06
5.20934e-06
5.21147e-06
5.21216e-06
5.21379e-06
5.21401e-06
5.2124e-06
5.2106e-06
5.21062e-06
5.21254e-06
5.21536e-06
5.21835e-06
5.22116e-06
5.22371e-06
5.22604e-06
5.22822e-06
5.23023e-06
5.2321e-06
5.23389e-06
5.23557e-06
5.23714e-06
5.23865e-06
5.24012e-06
5.24132e-06
5.24254e-06
5.20957e-06
5.21132e-06
5.21212e-06
5.21363e-06
5.21357e-06
5.21183e-06
5.21028e-06
5.21076e-06
5.21295e-06
5.21583e-06
5.21877e-06
5.22153e-06
5.22402e-06
5.22628e-06
5.22841e-06
5.2304e-06
5.23225e-06
5.23401e-06
5.23569e-06
5.23726e-06
5.23876e-06
5.24019e-06
5.24158e-06
5.24272e-06
5.24394e-06
5.20975e-06
5.21115e-06
5.21207e-06
5.21344e-06
5.21312e-06
5.21133e-06
5.21005e-06
5.21094e-06
5.21334e-06
5.21626e-06
5.21915e-06
5.22182e-06
5.22427e-06
5.22649e-06
5.22855e-06
5.23051e-06
5.23235e-06
5.23408e-06
5.23575e-06
5.23733e-06
5.23881e-06
5.24025e-06
5.2416e-06
5.24293e-06
5.244e-06
5.24521e-06
5.20988e-06
5.21097e-06
5.21201e-06
5.21323e-06
5.21269e-06
5.21088e-06
5.20992e-06
5.21116e-06
5.21371e-06
5.21665e-06
5.21947e-06
5.22206e-06
5.22445e-06
5.22664e-06
5.22866e-06
5.23057e-06
5.2324e-06
5.23412e-06
5.23576e-06
5.23734e-06
5.23882e-06
5.24023e-06
5.24161e-06
5.24289e-06
5.24416e-06
5.24518e-06
5.24638e-06
5.20997e-06
5.21079e-06
5.21192e-06
5.21299e-06
5.21226e-06
5.2105e-06
5.20987e-06
5.2114e-06
5.21406e-06
5.21698e-06
5.21975e-06
5.22227e-06
5.22458e-06
5.22674e-06
5.22874e-06
5.23061e-06
5.23241e-06
5.23412e-06
5.23573e-06
5.23729e-06
5.23878e-06
5.24017e-06
5.24153e-06
5.24285e-06
5.24406e-06
5.24529e-06
5.24626e-06
5.24745e-06
5.21002e-06
5.21061e-06
5.21183e-06
5.21274e-06
5.21186e-06
5.21018e-06
5.20989e-06
5.21165e-06
5.21438e-06
5.21727e-06
5.21998e-06
5.22244e-06
5.2247e-06
5.2268e-06
5.22878e-06
5.23063e-06
5.23239e-06
5.23408e-06
5.23568e-06
5.23721e-06
5.23869e-06
5.24009e-06
5.24142e-06
5.24273e-06
5.24399e-06
5.24514e-06
5.24634e-06
5.24725e-06
5.24844e-06
5.21004e-06
5.21045e-06
5.21173e-06
5.21249e-06
5.21148e-06
5.20991e-06
5.20995e-06
5.21191e-06
5.21467e-06
5.21751e-06
5.22017e-06
5.22258e-06
5.22479e-06
5.22684e-06
5.22879e-06
5.23063e-06
5.23236e-06
5.23401e-06
5.2356e-06
5.2371e-06
5.23856e-06
5.23997e-06
5.24128e-06
5.24256e-06
5.24383e-06
5.24503e-06
5.24612e-06
5.2473e-06
5.24817e-06
5.24935e-06
5.21003e-06
5.2103e-06
5.21162e-06
5.21223e-06
5.21113e-06
5.20969e-06
5.21004e-06
5.21215e-06
5.21494e-06
5.21773e-06
5.22032e-06
5.22268e-06
5.22486e-06
5.22687e-06
5.22877e-06
5.23058e-06
5.2323e-06
5.23393e-06
5.23549e-06
5.23697e-06
5.2384e-06
5.2398e-06
5.24112e-06
5.24237e-06
5.24362e-06
5.24483e-06
5.24597e-06
5.24703e-06
5.24819e-06
5.24901e-06
5.25018e-06
5.21e-06
5.21017e-06
5.21151e-06
5.21198e-06
5.21081e-06
5.20952e-06
5.21014e-06
5.21238e-06
5.21518e-06
5.21792e-06
5.22045e-06
5.22276e-06
5.22489e-06
5.22688e-06
5.22875e-06
5.23052e-06
5.23222e-06
5.23382e-06
5.23536e-06
5.23683e-06
5.23823e-06
5.2396e-06
5.24093e-06
5.24217e-06
5.24338e-06
5.2446e-06
5.24575e-06
5.24684e-06
5.24788e-06
5.24901e-06
5.24978e-06
5.25095e-06
5.20995e-06
5.21005e-06
5.21139e-06
5.21173e-06
5.21052e-06
5.2094e-06
5.21026e-06
5.2126e-06
5.21539e-06
5.21809e-06
5.22056e-06
5.22282e-06
5.22491e-06
5.22687e-06
5.22871e-06
5.23045e-06
5.23212e-06
5.2337e-06
5.23522e-06
5.23667e-06
5.23805e-06
5.23938e-06
5.2407e-06
5.24196e-06
5.24314e-06
5.24432e-06
5.24549e-06
5.24658e-06
5.24763e-06
5.24866e-06
5.24976e-06
5.25049e-06
5.25166e-06
5.20987e-06
5.20996e-06
5.21126e-06
5.21148e-06
5.21026e-06
5.20931e-06
5.21039e-06
5.21281e-06
5.21557e-06
5.21823e-06
5.22065e-06
5.22286e-06
5.22491e-06
5.22684e-06
5.22866e-06
5.23038e-06
5.23201e-06
5.23357e-06
5.23506e-06
5.23649e-06
5.23786e-06
5.23916e-06
5.24045e-06
5.2417e-06
5.24288e-06
5.24403e-06
5.24519e-06
5.2463e-06
5.24734e-06
5.24838e-06
5.24939e-06
5.25045e-06
5.25115e-06
5.25232e-06
5.20979e-06
5.20988e-06
5.21114e-06
5.21124e-06
5.21002e-06
5.20925e-06
5.21052e-06
5.213e-06
5.21574e-06
5.21834e-06
5.22072e-06
5.22289e-06
5.22491e-06
5.2268e-06
5.2286e-06
5.23029e-06
5.2319e-06
5.23342e-06
5.23489e-06
5.2363e-06
5.23766e-06
5.23894e-06
5.24019e-06
5.24142e-06
5.24261e-06
5.24374e-06
5.24486e-06
5.24598e-06
5.24704e-06
5.24805e-06
5.24908e-06
5.25006e-06
5.25109e-06
5.25176e-06
5.25293e-06
5.2097e-06
5.20981e-06
5.21101e-06
5.21102e-06
5.20981e-06
5.20922e-06
5.21066e-06
5.21317e-06
5.21589e-06
5.21844e-06
5.22077e-06
5.22291e-06
5.2249e-06
5.22676e-06
5.22852e-06
5.23019e-06
5.23178e-06
5.23328e-06
5.23471e-06
5.23609e-06
5.23743e-06
5.23871e-06
5.23993e-06
5.24113e-06
5.24232e-06
5.24344e-06
5.24453e-06
5.24563e-06
5.2467e-06
5.24771e-06
5.24871e-06
5.24973e-06
5.25067e-06
5.25167e-06
5.25232e-06
5.2535e-06
5.20959e-06
5.20973e-06
5.21088e-06
5.21081e-06
5.20962e-06
5.20921e-06
5.21079e-06
5.21334e-06
5.21602e-06
5.21853e-06
5.22081e-06
5.22292e-06
5.22487e-06
5.22671e-06
5.22844e-06
5.23008e-06
5.23164e-06
5.23313e-06
5.23454e-06
5.23589e-06
5.2372e-06
5.23847e-06
5.23968e-06
5.24084e-06
5.242e-06
5.24312e-06
5.2442e-06
5.24527e-06
5.24634e-06
5.24735e-06
5.24834e-06
5.24933e-06
5.25032e-06
5.25122e-06
5.25221e-06
5.25285e-06
5.25402e-06
5.20947e-06
5.20964e-06
5.21074e-06
5.21061e-06
5.20946e-06
5.20923e-06
5.21092e-06
5.21348e-06
5.21613e-06
5.2186e-06
5.22084e-06
5.22291e-06
5.22484e-06
5.22665e-06
5.22836e-06
5.22997e-06
5.2315e-06
5.23297e-06
5.23436e-06
5.23569e-06
5.23696e-06
5.23821e-06
5.23941e-06
5.24056e-06
5.24168e-06
5.24279e-06
5.24387e-06
5.24492e-06
5.24596e-06
5.24697e-06
5.24795e-06
5.24893e-06
5.24991e-06
5.25086e-06
5.25173e-06
5.25272e-06
5.25334e-06
5.25451e-06
5.20935e-06
5.20955e-06
5.21061e-06
5.21042e-06
5.20932e-06
5.20926e-06
5.21105e-06
5.21362e-06
5.21624e-06
5.21866e-06
5.22087e-06
5.2229e-06
5.2248e-06
5.22659e-06
5.22827e-06
5.22986e-06
5.23136e-06
5.2328e-06
5.23417e-06
5.23548e-06
5.23673e-06
5.23795e-06
5.23913e-06
5.24027e-06
5.24138e-06
5.24246e-06
5.24351e-06
5.24455e-06
5.24558e-06
5.24658e-06
5.24755e-06
5.24852e-06
5.24949e-06
5.25044e-06
5.25135e-06
5.25221e-06
5.2532e-06
5.2538e-06
5.25496e-06
5.20923e-06
5.20946e-06
5.21048e-06
5.21024e-06
5.20919e-06
5.2093e-06
5.21117e-06
5.21374e-06
5.21632e-06
5.21871e-06
5.22088e-06
5.22289e-06
5.22476e-06
5.22652e-06
5.22818e-06
5.22974e-06
5.23122e-06
5.23263e-06
5.23398e-06
5.23527e-06
5.23651e-06
5.2377e-06
5.23885e-06
5.23998e-06
5.24107e-06
5.24213e-06
5.24316e-06
5.24418e-06
5.24519e-06
5.24618e-06
5.24714e-06
5.24809e-06
5.24905e-06
5.25e-06
5.25091e-06
5.25181e-06
5.25267e-06
5.25364e-06
5.25422e-06
5.25538e-06
5.20911e-06
5.20937e-06
5.21036e-06
5.21007e-06
5.20908e-06
5.20934e-06
5.21129e-06
5.21385e-06
5.2164e-06
5.21875e-06
5.22089e-06
5.22287e-06
5.22472e-06
5.22645e-06
5.22808e-06
5.22963e-06
5.23109e-06
5.23247e-06
5.23379e-06
5.23506e-06
5.23628e-06
5.23745e-06
5.23858e-06
5.23967e-06
5.24075e-06
5.2418e-06
5.24281e-06
5.2438e-06
5.2448e-06
5.24579e-06
5.24673e-06
5.24766e-06
5.24861e-06
5.24955e-06
5.25046e-06
5.25135e-06
5.25224e-06
5.25309e-06
5.25405e-06
5.25461e-06
5.25577e-06
5.20899e-06
5.20927e-06
5.21024e-06
5.20992e-06
5.20899e-06
5.20939e-06
5.2114e-06
5.21395e-06
5.21647e-06
5.21878e-06
5.22089e-06
5.22284e-06
5.22467e-06
5.22638e-06
5.22798e-06
5.2295e-06
5.23094e-06
5.23231e-06
5.2336e-06
5.23485e-06
5.23605e-06
5.2372e-06
5.23831e-06
5.23938e-06
5.24043e-06
5.24147e-06
5.24248e-06
5.24344e-06
5.2444e-06
5.24538e-06
5.24632e-06
5.24723e-06
5.24815e-06
5.24909e-06
5.25e-06
5.25088e-06
5.25176e-06
5.25265e-06
5.25349e-06
5.25443e-06
5.25497e-06
5.25613e-06
5.20886e-06
5.20918e-06
5.21013e-06
5.20978e-06
5.20891e-06
5.20944e-06
5.2115e-06
5.21404e-06
5.21653e-06
5.2188e-06
5.22089e-06
5.22282e-06
5.22461e-06
5.2263e-06
5.22789e-06
5.22938e-06
5.2308e-06
5.23215e-06
5.23342e-06
5.23464e-06
5.23581e-06
5.23695e-06
5.23805e-06
5.2391e-06
5.24012e-06
5.24113e-06
5.24213e-06
5.24308e-06
5.24402e-06
5.24497e-06
5.24591e-06
5.24681e-06
5.2477e-06
5.24862e-06
5.24953e-06
5.25041e-06
5.25127e-06
5.25214e-06
5.25303e-06
5.25385e-06
5.25478e-06
5.2553e-06
5.25646e-06
5.20874e-06
5.20909e-06
5.21002e-06
5.20965e-06
5.20884e-06
5.2095e-06
5.21159e-06
5.21413e-06
5.21658e-06
5.21882e-06
5.22088e-06
5.22279e-06
5.22456e-06
5.22623e-06
5.22779e-06
5.22927e-06
5.23066e-06
5.23198e-06
5.23324e-06
5.23444e-06
5.23559e-06
5.2367e-06
5.23778e-06
5.23883e-06
5.23982e-06
5.2408e-06
5.24178e-06
5.24273e-06
5.24364e-06
5.24456e-06
5.24549e-06
5.24639e-06
5.24725e-06
5.24814e-06
5.24905e-06
5.24993e-06
5.25078e-06
5.25164e-06
5.25251e-06
5.25338e-06
5.25418e-06
5.2551e-06
5.25562e-06
5.25678e-06
5.20861e-06
5.209e-06
5.20991e-06
5.20952e-06
5.20878e-06
5.20955e-06
5.21168e-06
5.2142e-06
5.21662e-06
5.21884e-06
5.22087e-06
5.22275e-06
5.22451e-06
5.22615e-06
5.2277e-06
5.22915e-06
5.23052e-06
5.23182e-06
5.23306e-06
5.23424e-06
5.23538e-06
5.23646e-06
5.23751e-06
5.23854e-06
5.23954e-06
5.24048e-06
5.24144e-06
5.24238e-06
5.24328e-06
5.24416e-06
5.24507e-06
5.24597e-06
5.24681e-06
5.24767e-06
5.24856e-06
5.24944e-06
5.25029e-06
5.25112e-06
5.25199e-06
5.25285e-06
5.2537e-06
5.25449e-06
5.2554e-06
5.25591e-06
5.25707e-06
5.20849e-06
5.20892e-06
5.20981e-06
5.20941e-06
5.20874e-06
5.2096e-06
5.21177e-06
5.21427e-06
5.21666e-06
5.21885e-06
5.22085e-06
5.22272e-06
5.22445e-06
5.22608e-06
5.2276e-06
5.22903e-06
5.23039e-06
5.23166e-06
5.23288e-06
5.23404e-06
5.23516e-06
5.23623e-06
5.23725e-06
5.23826e-06
5.23925e-06
5.24018e-06
5.2411e-06
5.24202e-06
5.24292e-06
5.24378e-06
5.24465e-06
5.24554e-06
5.24639e-06
5.24721e-06
5.24807e-06
5.24895e-06
5.24979e-06
5.25061e-06
5.25146e-06
5.25232e-06
5.25316e-06
5.25399e-06
5.25477e-06
5.25568e-06
5.25618e-06
5.25735e-06
5.20838e-06
5.20884e-06
5.20972e-06
5.2093e-06
5.2087e-06
5.20966e-06
5.21184e-06
5.21433e-06
5.21669e-06
5.21885e-06
5.22084e-06
5.22268e-06
5.2244e-06
5.226e-06
5.22751e-06
5.22892e-06
5.23025e-06
5.23151e-06
5.23271e-06
5.23385e-06
5.23495e-06
5.236e-06
5.23701e-06
5.23799e-06
5.23895e-06
5.23988e-06
5.24078e-06
5.24167e-06
5.24256e-06
5.2434e-06
5.24425e-06
5.24511e-06
5.24596e-06
5.24676e-06
5.24759e-06
5.24846e-06
5.2493e-06
5.25011e-06
5.25092e-06
5.25177e-06
5.25262e-06
5.25344e-06
5.25427e-06
5.25504e-06
5.25595e-06
5.25644e-06
5.25761e-06
5.20827e-06
5.20876e-06
5.20963e-06
5.20921e-06
5.20867e-06
5.20971e-06
5.21192e-06
5.21438e-06
5.21672e-06
5.21886e-06
5.22082e-06
5.22264e-06
5.22434e-06
5.22593e-06
5.22741e-06
5.22881e-06
5.23012e-06
5.23136e-06
5.23254e-06
5.23366e-06
5.23474e-06
5.23578e-06
5.23677e-06
5.23773e-06
5.23866e-06
5.23958e-06
5.24046e-06
5.24133e-06
5.2422e-06
5.24304e-06
5.24385e-06
5.24469e-06
5.24553e-06
5.24633e-06
5.24712e-06
5.24796e-06
5.24881e-06
5.24961e-06
5.2504e-06
5.25123e-06
5.25207e-06
5.2529e-06
5.2537e-06
5.25452e-06
5.25529e-06
5.2562e-06
5.25668e-06
5.25785e-06
5.20816e-06
5.20869e-06
5.20955e-06
5.20912e-06
5.20865e-06
5.20976e-06
5.21198e-06
5.21443e-06
5.21674e-06
5.21886e-06
5.2208e-06
5.2226e-06
5.22428e-06
5.22585e-06
5.22732e-06
5.2287e-06
5.22999e-06
5.23122e-06
5.23238e-06
5.23348e-06
5.23453e-06
5.23555e-06
5.23654e-06
5.23748e-06
5.23839e-06
5.23929e-06
5.24016e-06
5.241e-06
5.24185e-06
5.24268e-06
5.24347e-06
5.24428e-06
5.24511e-06
5.2459e-06
5.24667e-06
5.24747e-06
5.24831e-06
5.24911e-06
5.24988e-06
5.25068e-06
5.25152e-06
5.25234e-06
5.25315e-06
5.25394e-06
5.25476e-06
5.25552e-06
5.25643e-06
5.2569e-06
5.25808e-06
5.2081e-06
5.20862e-06
5.20947e-06
5.20903e-06
5.20863e-06
5.20981e-06
5.21204e-06
5.21448e-06
5.21676e-06
5.21886e-06
5.22078e-06
5.22257e-06
5.22423e-06
5.22578e-06
5.22723e-06
5.22859e-06
5.22987e-06
5.23107e-06
5.23222e-06
5.23331e-06
5.23434e-06
5.23533e-06
5.2363e-06
5.23723e-06
5.23812e-06
5.239e-06
5.23986e-06
5.24068e-06
5.2415e-06
5.24232e-06
5.2431e-06
5.24388e-06
5.24469e-06
5.24548e-06
5.24623e-06
5.247e-06
5.24781e-06
5.24861e-06
5.24938e-06
5.25015e-06
5.25096e-06
5.25178e-06
5.25259e-06
5.25338e-06
5.25417e-06
5.25498e-06
5.25574e-06
5.25664e-06
5.25711e-06
5.25828e-06
5.20808e-06
5.20859e-06
5.2094e-06
5.20896e-06
5.20861e-06
5.20986e-06
5.2121e-06
5.21452e-06
5.21678e-06
5.21885e-06
5.22076e-06
5.22253e-06
5.22418e-06
5.22571e-06
5.22714e-06
5.22849e-06
5.22975e-06
5.23093e-06
5.23206e-06
5.23313e-06
5.23415e-06
5.23513e-06
5.23607e-06
5.23699e-06
5.23787e-06
5.23872e-06
5.23956e-06
5.24037e-06
5.24117e-06
5.24197e-06
5.24275e-06
5.2435e-06
5.24428e-06
5.24506e-06
5.2458e-06
5.24654e-06
5.24732e-06
5.24812e-06
5.24888e-06
5.24962e-06
5.25041e-06
5.25122e-06
5.25202e-06
5.25281e-06
5.25359e-06
5.25438e-06
5.25519e-06
5.25595e-06
5.25684e-06
5.2573e-06
5.25848e-06
5.20806e-06
5.20858e-06
5.20935e-06
5.20889e-06
5.20861e-06
5.20991e-06
5.21216e-06
5.21455e-06
5.2168e-06
5.21885e-06
5.22074e-06
5.22249e-06
5.22412e-06
5.22564e-06
5.22706e-06
5.22838e-06
5.22963e-06
5.2308e-06
5.23191e-06
5.23296e-06
5.23397e-06
5.23493e-06
5.23585e-06
5.23675e-06
5.23762e-06
5.23845e-06
5.23927e-06
5.24007e-06
5.24085e-06
5.24163e-06
5.2424e-06
5.24313e-06
5.24387e-06
5.24464e-06
5.24539e-06
5.2461e-06
5.24684e-06
5.24762e-06
5.24839e-06
5.24912e-06
5.24986e-06
5.25066e-06
5.25146e-06
5.25223e-06
5.25301e-06
5.25379e-06
5.25459e-06
5.25539e-06
5.25614e-06
5.25703e-06
5.25748e-06
5.25866e-06
5.20804e-06
5.20857e-06
5.20934e-06
5.20885e-06
5.2086e-06
5.20995e-06
5.21221e-06
5.21459e-06
5.21681e-06
5.21884e-06
5.22071e-06
5.22245e-06
5.22407e-06
5.22557e-06
5.22697e-06
5.22828e-06
5.22951e-06
5.23067e-06
5.23176e-06
5.2328e-06
5.23379e-06
5.23474e-06
5.23565e-06
5.23652e-06
5.23737e-06
5.23819e-06
5.239e-06
5.23978e-06
5.24054e-06
5.2413e-06
5.24205e-06
5.24277e-06
5.24349e-06
5.24423e-06
5.24497e-06
5.24567e-06
5.24638e-06
5.24713e-06
5.2479e-06
5.24862e-06
5.24934e-06
5.2501e-06
5.25089e-06
5.25167e-06
5.25243e-06
5.2532e-06
5.25399e-06
5.25478e-06
5.25558e-06
5.25632e-06
5.2572e-06
5.25764e-06
5.25883e-06
5.20802e-06
5.20856e-06
5.20933e-06
5.20884e-06
5.2086e-06
5.21e-06
5.21225e-06
5.21462e-06
5.21682e-06
5.21883e-06
5.22069e-06
5.22241e-06
5.22401e-06
5.2255e-06
5.22689e-06
5.22819e-06
5.2294e-06
5.23055e-06
5.23162e-06
5.23264e-06
5.23362e-06
5.23455e-06
5.23544e-06
5.2363e-06
5.23713e-06
5.23794e-06
5.23873e-06
5.2395e-06
5.24024e-06
5.24097e-06
5.24171e-06
5.24243e-06
5.24312e-06
5.24383e-06
5.24457e-06
5.24526e-06
5.24593e-06
5.24666e-06
5.24741e-06
5.24813e-06
5.24883e-06
5.24956e-06
5.25033e-06
5.2511e-06
5.25185e-06
5.25261e-06
5.25338e-06
5.25417e-06
5.25495e-06
5.25575e-06
5.25648e-06
5.25736e-06
5.2578e-06
5.25899e-06
5.208e-06
5.20855e-06
5.20931e-06
5.20883e-06
5.2086e-06
5.21002e-06
5.21229e-06
5.21464e-06
5.21682e-06
5.21882e-06
5.22067e-06
5.22238e-06
5.22396e-06
5.22544e-06
5.22681e-06
5.2281e-06
5.2293e-06
5.23042e-06
5.23149e-06
5.23249e-06
5.23345e-06
5.23436e-06
5.23524e-06
5.23609e-06
5.23691e-06
5.23769e-06
5.23846e-06
5.23922e-06
5.23995e-06
5.24066e-06
5.24138e-06
5.24209e-06
5.24277e-06
5.24344e-06
5.24416e-06
5.24486e-06
5.24551e-06
5.24619e-06
5.24693e-06
5.24765e-06
5.24833e-06
5.24903e-06
5.24978e-06
5.25054e-06
5.25128e-06
5.25203e-06
5.25278e-06
5.25355e-06
5.25434e-06
5.25512e-06
5.2559e-06
5.25663e-06
5.25751e-06
5.25794e-06
5.25914e-06
5.20798e-06
5.20854e-06
5.20929e-06
5.20882e-06
5.2086e-06
5.21003e-06
5.21232e-06
5.21467e-06
5.21683e-06
5.21881e-06
5.22064e-06
5.22234e-06
5.22391e-06
5.22538e-06
5.22674e-06
5.22801e-06
5.22919e-06
5.2303e-06
5.23136e-06
5.23235e-06
5.23329e-06
5.23419e-06
5.23505e-06
5.23588e-06
5.23668e-06
5.23746e-06
5.23821e-06
5.23895e-06
5.23967e-06
5.24037e-06
5.24106e-06
5.24176e-06
5.24243e-06
5.24308e-06
5.24376e-06
5.24446e-06
5.24511e-06
5.24575e-06
5.24645e-06
5.24717e-06
5.24785e-06
5.24852e-06
5.24924e-06
5.24998e-06
5.25072e-06
5.25145e-06
5.25219e-06
5.25295e-06
5.25372e-06
5.2545e-06
5.25527e-06
5.25605e-06
5.25677e-06
5.25765e-06
5.25808e-06
5.25929e-06
5.20796e-06
5.20853e-06
5.20928e-06
5.20881e-06
5.2086e-06
5.21003e-06
5.21232e-06
5.21468e-06
5.21683e-06
5.2188e-06
5.22062e-06
5.2223e-06
5.22386e-06
5.22531e-06
5.22666e-06
5.22792e-06
5.22909e-06
5.23019e-06
5.23123e-06
5.23221e-06
5.23314e-06
5.23402e-06
5.23487e-06
5.23568e-06
5.23647e-06
5.23723e-06
5.23796e-06
5.23869e-06
5.2394e-06
5.24008e-06
5.24075e-06
5.24143e-06
5.2421e-06
5.24273e-06
5.24338e-06
5.24406e-06
5.24472e-06
5.24533e-06
5.246e-06
5.2467e-06
5.24738e-06
5.24803e-06
5.24871e-06
5.24944e-06
5.25017e-06
5.25088e-06
5.25161e-06
5.25235e-06
5.2531e-06
5.25387e-06
5.25464e-06
5.25541e-06
5.25618e-06
5.2569e-06
5.25778e-06
5.2582e-06
5.25942e-06
5.20794e-06
5.20852e-06
5.20926e-06
5.2088e-06
5.2086e-06
5.21004e-06
5.21233e-06
5.21468e-06
5.21684e-06
5.21879e-06
5.2206e-06
5.22227e-06
5.22382e-06
5.22526e-06
5.22659e-06
5.22784e-06
5.229e-06
5.23008e-06
5.2311e-06
5.23207e-06
5.23299e-06
5.23386e-06
5.23469e-06
5.23549e-06
5.23626e-06
5.23701e-06
5.23773e-06
5.23843e-06
5.23913e-06
5.2398e-06
5.24046e-06
5.24111e-06
5.24178e-06
5.2424e-06
5.24302e-06
5.24367e-06
5.24433e-06
5.24494e-06
5.24556e-06
5.24624e-06
5.24692e-06
5.24755e-06
5.2482e-06
5.2489e-06
5.24962e-06
5.25033e-06
5.25103e-06
5.25175e-06
5.25249e-06
5.25325e-06
5.25401e-06
5.25478e-06
5.25554e-06
5.25631e-06
5.25703e-06
5.2579e-06
5.25833e-06
5.25955e-06
5.20792e-06
5.20852e-06
5.20925e-06
5.20879e-06
5.2086e-06
5.21005e-06
5.21233e-06
5.21468e-06
5.21683e-06
5.21879e-06
5.22057e-06
5.22223e-06
5.22377e-06
5.2252e-06
5.22652e-06
5.22775e-06
5.2289e-06
5.22998e-06
5.23099e-06
5.23194e-06
5.23284e-06
5.2337e-06
5.23452e-06
5.23531e-06
5.23606e-06
5.23679e-06
5.23751e-06
5.23819e-06
5.23887e-06
5.23954e-06
5.24017e-06
5.24081e-06
5.24145e-06
5.24208e-06
5.24267e-06
5.2433e-06
5.24395e-06
5.24455e-06
5.24514e-06
5.24579e-06
5.24646e-06
5.2471e-06
5.24772e-06
5.24838e-06
5.24908e-06
5.24978e-06
5.25047e-06
5.25117e-06
5.2519e-06
5.25263e-06
5.25338e-06
5.25414e-06
5.2549e-06
5.25565e-06
5.25642e-06
5.25714e-06
5.25802e-06
5.25844e-06
5.25967e-06
5.2079e-06
5.20851e-06
5.20923e-06
5.20878e-06
5.2086e-06
5.21005e-06
5.21233e-06
5.21468e-06
5.21683e-06
5.21878e-06
5.22056e-06
5.2222e-06
5.22373e-06
5.22514e-06
5.22646e-06
5.22768e-06
5.22881e-06
5.22988e-06
5.23088e-06
5.23182e-06
5.2327e-06
5.23355e-06
5.23436e-06
5.23513e-06
5.23587e-06
5.23659e-06
5.23729e-06
5.23796e-06
5.23862e-06
5.23927e-06
5.2399e-06
5.24052e-06
5.24114e-06
5.24176e-06
5.24235e-06
5.24294e-06
5.24357e-06
5.24418e-06
5.24475e-06
5.24535e-06
5.24601e-06
5.24665e-06
5.24725e-06
5.24788e-06
5.24856e-06
5.24925e-06
5.24992e-06
5.2506e-06
5.25131e-06
5.25203e-06
5.25276e-06
5.25351e-06
5.25426e-06
5.25502e-06
5.25576e-06
5.25654e-06
5.25726e-06
5.25813e-06
5.25855e-06
5.25977e-06
5.20788e-06
5.2085e-06
5.20922e-06
5.20877e-06
5.2086e-06
5.21006e-06
5.21234e-06
5.21468e-06
5.21683e-06
5.21878e-06
5.22055e-06
5.22218e-06
5.22368e-06
5.22509e-06
5.22639e-06
5.2276e-06
5.22873e-06
5.22978e-06
5.23077e-06
5.2317e-06
5.23257e-06
5.23341e-06
5.2342e-06
5.23496e-06
5.23569e-06
5.23639e-06
5.23707e-06
5.23774e-06
5.23838e-06
5.23902e-06
5.23964e-06
5.24024e-06
5.24084e-06
5.24145e-06
5.24203e-06
5.2426e-06
5.2432e-06
5.24381e-06
5.24438e-06
5.24494e-06
5.24557e-06
5.24621e-06
5.2468e-06
5.2474e-06
5.24805e-06
5.24872e-06
5.24939e-06
5.25005e-06
5.25073e-06
5.25144e-06
5.25215e-06
5.25288e-06
5.25363e-06
5.25437e-06
5.25512e-06
5.25587e-06
5.25664e-06
5.25736e-06
5.25824e-06
5.25864e-06
5.25988e-06
5.20785e-06
5.20849e-06
5.2092e-06
5.20876e-06
5.2086e-06
5.21006e-06
5.21234e-06
5.21469e-06
5.21683e-06
5.21877e-06
5.22054e-06
5.22217e-06
5.22366e-06
5.22504e-06
5.22633e-06
5.22753e-06
5.22864e-06
5.22969e-06
5.23066e-06
5.23158e-06
5.23245e-06
5.23327e-06
5.23405e-06
5.23479e-06
5.23551e-06
5.2362e-06
5.23687e-06
5.23752e-06
5.23815e-06
5.23877e-06
5.23938e-06
5.23997e-06
5.24056e-06
5.24115e-06
5.24173e-06
5.24228e-06
5.24285e-06
5.24345e-06
5.24402e-06
5.24456e-06
5.24514e-06
5.24577e-06
5.24637e-06
5.24694e-06
5.24755e-06
5.24821e-06
5.24887e-06
5.24951e-06
5.25017e-06
5.25085e-06
5.25156e-06
5.25227e-06
5.253e-06
5.25373e-06
5.25447e-06
5.25522e-06
5.25597e-06
5.25674e-06
5.25746e-06
5.25833e-06
5.25873e-06
5.25997e-06
5.20783e-06
5.20848e-06
5.20918e-06
5.20874e-06
5.2086e-06
5.21007e-06
5.21235e-06
5.21469e-06
5.21682e-06
5.21876e-06
5.22054e-06
5.22216e-06
5.22364e-06
5.225e-06
5.22627e-06
5.22746e-06
5.22856e-06
5.2296e-06
5.23056e-06
5.23147e-06
5.23233e-06
5.23313e-06
5.2339e-06
5.23463e-06
5.23534e-06
5.23602e-06
5.23667e-06
5.23731e-06
5.23793e-06
5.23853e-06
5.23913e-06
5.23972e-06
5.24028e-06
5.24086e-06
5.24143e-06
5.24197e-06
5.24251e-06
5.24309e-06
5.24366e-06
5.24419e-06
5.24474e-06
5.24534e-06
5.24594e-06
5.2465e-06
5.24708e-06
5.24771e-06
5.24836e-06
5.24899e-06
5.24962e-06
5.25029e-06
5.25097e-06
5.25167e-06
5.25238e-06
5.2531e-06
5.25383e-06
5.25456e-06
5.25531e-06
5.25606e-06
5.25684e-06
5.25755e-06
5.25842e-06
5.25881e-06
5.26006e-06
5.20781e-06
5.20847e-06
5.20917e-06
5.20873e-06
5.2086e-06
5.21008e-06
5.21235e-06
5.21469e-06
5.21682e-06
5.21876e-06
5.22053e-06
5.22215e-06
5.22363e-06
5.22499e-06
5.22623e-06
5.22739e-06
5.22849e-06
5.22951e-06
5.23047e-06
5.23136e-06
5.23221e-06
5.23301e-06
5.23376e-06
5.23448e-06
5.23518e-06
5.23584e-06
5.23648e-06
5.23711e-06
5.23772e-06
5.2383e-06
5.23889e-06
5.23947e-06
5.24002e-06
5.24057e-06
5.24114e-06
5.24168e-06
5.2422e-06
5.24275e-06
5.24331e-06
5.24384e-06
5.24436e-06
5.24493e-06
5.24552e-06
5.24608e-06
5.24663e-06
5.24722e-06
5.24785e-06
5.24848e-06
5.2491e-06
5.24973e-06
5.2504e-06
5.25108e-06
5.25177e-06
5.25248e-06
5.2532e-06
5.25392e-06
5.25465e-06
5.2554e-06
5.25615e-06
5.25692e-06
5.25763e-06
5.2585e-06
5.25889e-06
5.26015e-06
5.20778e-06
5.20846e-06
5.20915e-06
5.20872e-06
5.2086e-06
5.21008e-06
5.21236e-06
5.21469e-06
5.21682e-06
5.21875e-06
5.22052e-06
5.22214e-06
5.22362e-06
5.22498e-06
5.22622e-06
5.22735e-06
5.22841e-06
5.22943e-06
5.23037e-06
5.23126e-06
5.2321e-06
5.23288e-06
5.23363e-06
5.23434e-06
5.23502e-06
5.23567e-06
5.2363e-06
5.23691e-06
5.23751e-06
5.23809e-06
5.23866e-06
5.23922e-06
5.23977e-06
5.2403e-06
5.24086e-06
5.24139e-06
5.2419e-06
5.24242e-06
5.24297e-06
5.2435e-06
5.244e-06
5.24453e-06
5.24511e-06
5.24567e-06
5.2462e-06
5.24676e-06
5.24736e-06
5.24798e-06
5.24859e-06
5.2492e-06
5.24984e-06
5.2505e-06
5.25118e-06
5.25187e-06
5.25257e-06
5.25328e-06
5.254e-06
5.25473e-06
5.25549e-06
5.25624e-06
5.257e-06
5.25771e-06
5.25857e-06
5.25897e-06
5.26023e-06
5.20776e-06
5.20845e-06
5.20913e-06
5.20871e-06
5.2086e-06
5.21009e-06
5.21236e-06
5.21469e-06
5.21682e-06
5.21875e-06
5.22051e-06
5.22213e-06
5.22361e-06
5.22497e-06
5.2262e-06
5.22733e-06
5.22837e-06
5.22935e-06
5.23029e-06
5.23116e-06
5.23199e-06
5.23277e-06
5.2335e-06
5.2342e-06
5.23487e-06
5.23551e-06
5.23613e-06
5.23672e-06
5.23731e-06
5.23788e-06
5.23843e-06
5.23899e-06
5.23953e-06
5.24005e-06
5.24058e-06
5.24111e-06
5.24161e-06
5.24211e-06
5.24264e-06
5.24317e-06
5.24366e-06
5.24415e-06
5.2447e-06
5.24526e-06
5.24579e-06
5.24631e-06
5.24689e-06
5.24749e-06
5.24809e-06
5.24868e-06
5.2493e-06
5.24994e-06
5.2506e-06
5.25127e-06
5.25196e-06
5.25266e-06
5.25336e-06
5.25408e-06
5.25482e-06
5.25557e-06
5.25632e-06
5.25708e-06
5.25778e-06
5.25864e-06
5.25904e-06
5.26031e-06
5.20773e-06
5.20844e-06
5.20912e-06
5.2087e-06
5.2086e-06
5.2101e-06
5.21237e-06
5.21469e-06
5.21681e-06
5.21874e-06
5.22051e-06
5.22212e-06
5.2236e-06
5.22495e-06
5.22619e-06
5.22732e-06
5.22835e-06
5.2293e-06
5.2302e-06
5.23107e-06
5.23189e-06
5.23265e-06
5.23338e-06
5.23407e-06
5.23472e-06
5.23535e-06
5.23596e-06
5.23655e-06
5.23712e-06
5.23768e-06
5.23822e-06
5.23876e-06
5.23929e-06
5.2398e-06
5.24031e-06
5.24084e-06
5.24134e-06
5.24181e-06
5.24232e-06
5.24284e-06
5.24333e-06
5.2438e-06
5.24432e-06
5.24487e-06
5.24539e-06
5.24589e-06
5.24644e-06
5.24702e-06
5.24761e-06
5.24818e-06
5.24878e-06
5.2494e-06
5.25004e-06
5.25069e-06
5.25136e-06
5.25204e-06
5.25273e-06
5.25343e-06
5.25416e-06
5.25489e-06
5.25564e-06
5.25639e-06
5.25714e-06
5.25785e-06
5.25871e-06
5.2591e-06
5.26038e-06
5.20771e-06
5.20844e-06
5.2091e-06
5.20869e-06
5.2086e-06
5.2101e-06
5.21238e-06
5.21469e-06
5.21681e-06
5.21874e-06
5.2205e-06
5.22211e-06
5.22359e-06
5.22494e-06
5.22618e-06
5.2273e-06
5.22834e-06
5.22928e-06
5.23015e-06
5.23098e-06
5.23179e-06
5.23255e-06
5.23326e-06
5.23394e-06
5.23459e-06
5.23521e-06
5.2358e-06
5.23638e-06
5.23693e-06
5.23748e-06
5.23802e-06
5.23854e-06
5.23906e-06
5.23957e-06
5.24006e-06
5.24057e-06
5.24107e-06
5.24153e-06
5.24201e-06
5.24252e-06
5.24301e-06
5.24347e-06
5.24395e-06
5.24448e-06
5.245e-06
5.24549e-06
5.246e-06
5.24656e-06
5.24714e-06
5.2477e-06
5.24827e-06
5.24887e-06
5.24949e-06
5.25012e-06
5.25077e-06
5.25144e-06
5.25212e-06
5.2528e-06
5.25351e-06
5.25423e-06
5.25497e-06
5.25571e-06
5.25645e-06
5.25721e-06
5.25791e-06
5.25878e-06
5.25916e-06
5.26044e-06
5.20768e-06
5.20843e-06
5.20908e-06
5.20868e-06
5.2086e-06
5.21011e-06
5.21238e-06
5.21469e-06
5.21681e-06
5.21873e-06
5.22049e-06
5.2221e-06
5.22358e-06
5.22493e-06
5.22616e-06
5.22729e-06
5.22832e-06
5.22926e-06
5.23013e-06
5.23093e-06
5.23169e-06
5.23244e-06
5.23315e-06
5.23382e-06
5.23446e-06
5.23506e-06
5.23565e-06
5.23621e-06
5.23676e-06
5.23729e-06
5.23782e-06
5.23833e-06
5.23884e-06
5.23934e-06
5.23982e-06
5.24031e-06
5.2408e-06
5.24127e-06
5.24172e-06
5.24221e-06
5.2427e-06
5.24315e-06
5.24361e-06
5.24411e-06
5.24463e-06
5.24511e-06
5.24559e-06
5.24612e-06
5.24668e-06
5.24723e-06
5.24778e-06
5.24836e-06
5.24896e-06
5.24957e-06
5.2502e-06
5.25085e-06
5.25151e-06
5.25218e-06
5.25287e-06
5.25357e-06
5.2543e-06
5.25503e-06
5.25577e-06
5.25651e-06
5.25727e-06
5.25797e-06
5.25884e-06
5.25922e-06
5.2605e-06
5.20765e-06
5.20842e-06
5.20906e-06
5.20867e-06
5.2086e-06
5.21012e-06
5.21239e-06
5.21469e-06
5.21681e-06
5.21873e-06
5.22048e-06
5.22209e-06
5.22357e-06
5.22491e-06
5.22615e-06
5.22727e-06
5.2283e-06
5.22925e-06
5.23011e-06
5.2309e-06
5.23164e-06
5.23234e-06
5.23304e-06
5.2337e-06
5.23433e-06
5.23493e-06
5.2355e-06
5.23606e-06
5.23659e-06
5.23711e-06
5.23763e-06
5.23813e-06
5.23862e-06
5.23912e-06
5.23959e-06
5.24006e-06
5.24054e-06
5.24102e-06
5.24145e-06
5.24191e-06
5.24239e-06
5.24285e-06
5.24328e-06
5.24375e-06
5.24426e-06
5.24474e-06
5.24521e-06
5.2457e-06
5.24624e-06
5.24678e-06
5.24732e-06
5.24787e-06
5.24844e-06