/*--------------------------------*- C++ -*----------------------------------*\
  =========                 |
  \\      /  F ield         | OpenFOAM: The Open Source CFD Toolbox
   \\    /   O peration     | Website:  https://openfoam.org
    \\  /    A nd           | Version:  7
     \\/     M anipulation  |
\*---------------------------------------------------------------------------*/
FoamFile
{
    version     2.0;
    format      ascii;
    class       volScalarField;
    location    "2000";
    object      p;
}
// * * * * * * * * * * * * * * * * * * * * * * * * * * * * * * * * * * * * * //

dimensions      [0 2 -2 0 0 0 0];

internalField   nonuniform List<scalar> 
40920
(
2.87013
8.08549
0.744078
12.2801
2.75069
0.888184
15.4328
5.45574
2.87404
1.07312
18.0378
7.70009
5.38472
3.16524
0.987485
20.2497
9.66823
7.57427
5.77948
2.81326
0.987063
22.1845
11.3398
9.62387
8.00348
5.36363
2.73793
0.989048
23.9034
12.7883
11.4742
10.0834
7.5456
5.25255
2.73653
0.966941
25.4478
14.0503
13.1662
11.9655
9.62279
7.42045
5.23025
2.70888
0.951249
26.8456
15.1601
14.7151
13.6916
11.5232
9.51572
7.39125
5.18018
2.68792
0.947795
28.1167
16.1413
16.1426
15.2718
13.2894
11.4542
9.49565
7.3374
5.14347
2.66629
0.95386
29.2771
17.012
17.4639
16.7244
14.9267
13.2766
11.4572
9.45126
7.29815
5.11344
2.63673
0.966088
30.3394
17.7862
18.6914
18.0626
16.4501
14.984
13.3154
11.4361
9.42039
7.264
5.07823
2.60317
0.979507
31.3141
18.4756
19.8342
19.298
17.8705
16.5874
15.0704
13.3292
11.4266
9.39105
7.22194
5.03727
2.56835
0.990483
32.2096
19.09
20.9001
20.4387
19.1987
18.0937
16.7324
15.1299
13.3522
11.4126
9.35123
7.16984
4.99106
2.53229
0.99822
33.0335
19.6376
21.8961
21.4912
20.4424
19.5108
18.3056
16.8484
15.195
13.3649
11.3829
9.29829
7.10736
4.93927
2.49444
1.00349
33.7923
20.1249
22.8282
22.4615
21.6071
20.8455
19.7953
18.4882
16.9645
15.2441
13.356
11.3353
9.23066
7.0346
4.88165
2.45454
1.00717
34.4918
20.5576
23.7012
23.3558
22.6969
22.1026
21.2068
20.0529
18.6651
17.059
15.2664
13.3234
11.2682
9.14796
6.95203
4.81839
2.41261
1.00972
35.1374
20.9409
24.5189
24.1796
23.7158
23.2849
22.5446
21.5449
20.2994
18.8138
17.1216
15.2587
13.2653
11.1809
9.05088
6.86025
4.75027
2.36873
1.01149
35.7342
21.2798
25.2844
24.9374
24.6684
24.3945
23.8116
22.9674
21.8687
20.5118
18.9254
17.1486
15.219
13.1812
11.0746
8.94032
6.76033
4.67825
2.32292
1.01298
36.2863
21.5786
26.001
25.633
25.5586
25.4337
25.0093
24.3231
23.3739
22.1536
20.6817
18.9959
17.1371
15.1468
13.0725
10.9503
8.81752
6.65381
4.60308
2.27531
1.0148
36.7976
21.8412
26.6715
26.2699
26.3896
26.4056
26.1386
25.6129
24.8164
23.7388
22.3912
20.8046
19.0218
17.0864
15.0433
12.941
10.8096
8.68439
6.54223
4.5252
2.22632
1.01743
37.2722
22.0714
27.2988
26.8517
27.1639
27.3127
27.2009
26.837
26.1972
25.2673
24.053
22.5763
20.8768
19.0019
16.9973
14.9109
12.7886
10.6545
8.5432
6.42673
4.44515
2.17657
1.02106
37.7132
22.2723
27.8854
27.3819
27.8839
28.1575
28.1979
27.9952
27.5159
26.7391
25.6657
24.3099
22.7044
20.8968
18.9368
16.8723
14.7524
12.6177
10.4872
8.39613
6.30812
4.36369
2.12665
1.02567
38.124
22.4473
28.4336
27.8642
28.5522
28.942
29.1318
29.0876
28.7714
28.1535
27.2279
26.0031
24.5041
22.7737
20.8649
18.8284
16.7146
14.5708
12.4306
10.3108
8.24488
6.18712
4.28184
2.07698
1.03116
38.5075
22.5991
28.9455
28.3019
29.1713
29.6682
30.0041
30.1152
29.9626
29.5085
28.7383
27.6537
26.2733
24.6329
22.7841
20.7825
18.68
16.528
14.3689
12.2303
10.1278
8.09072
6.06465
4.20061
2.02769
1.03749
38.8662
22.7304
29.4231
28.6982
29.744
30.3386
30.8166
31.0791
31.0891
30.8023
30.1946
29.2594
28.0087
26.4721
24.6955
22.7369
20.6526
18.4957
16.3164
14.1497
12.0199
9.94053
7.93468
5.94178
4.12082
1.97876
1.04476
39.2028
22.8437
29.8681
29.0562
30.2726
30.9555
31.5709
31.9803
32.1511
32.033
31.5938
30.8173
29.7075
28.2877
26.5979
24.6932
22.6348
20.4792
18.2801
16.0832
13.9164
11.8026
9.75061
7.77784
5.81964
4.04303
1.93009
1.0531
39.5193
22.9411
30.2825
29.3788
30.7596
31.5216
32.2689
32.8199
33.1488
33.1995
32.9331
32.3239
31.3662
30.0761
28.4877
26.6511
24.6283
22.4815
20.2671
18.0378
15.8318
13.6725
11.5811
9.55939
7.62136
5.69922
3.96751
1.88166
1.06269
39.8178
23.0249
30.6678
29.6688
31.2072
32.0397
32.9129
33.5992
34.0827
34.3011
34.21
33.775
32.9806
31.8332
30.3606
28.6077
26.6337
24.5045
22.2816
20.0217
17.7728
15.5659
13.4216
11.3575
9.36806
7.46647
5.58126
3.89439
1.83352
1.07365
40.1003
23.0968
31.0257
29.929
31.6179
32.5124
33.5051
34.3199
34.9535
35.3374
35.4226
35.1671
34.5458
33.5544
32.2123
30.5589
28.6491
26.5491
24.326
22.0406
19.7481
17.4892
15.2892
13.1665
11.1333
9.1778
7.31431
5.46619
3.82373
1.7858
1.08602
40.3686
23.1584
31.3576
30.1622
31.9936
32.9424
34.0483
34.9841
35.7623
36.3083
36.5696
36.4971
36.0569
35.2342
34.0378
32.5
30.6709
28.6147
26.4017
24.0983
21.7645
19.451
17.1908
15.0054
12.9099
10.91
8.98984
7.16583
5.35423
3.75563
1.73868
1.09976
40.624
23.2114
31.6648
30.3708
32.3367
33.3326
34.5448
35.5939
36.5106
37.214
37.6498
37.7624
37.5095
36.8665
35.831
34.4256
32.6946
30.6986
28.5088
26.1967
23.8275
21.459
19.1349
16.8816
14.7177
12.6536
10.6888
8.80537
7.02165
5.24549
3.69023
1.69234
1.11471
40.8682
23.257
31.9485
30.5572
32.6492
33.6853
34.9974
36.152
37.2002
38.0555
38.6625
38.9607
38.8999
38.4458
37.5852
36.3293
34.7145
32.7968
30.6457
28.3364
25.9401
23.5198
21.1293
18.804
16.5653
14.429
12.399
10.4708
8.62542
6.88215
5.14
3.62769
1.64689
1.13069
41.1022
23.2966
32.2098
30.7235
32.9332
34.0034
35.4086
36.6609
37.8334
38.8341
39.6079
40.0903
40.2246
39.967
39.2934
38.204
36.7242
34.9038
32.8093
30.517
28.1036
25.6383
23.1816
20.7803
18.4624
16.2456
14.1415
12.1476
10.2574
8.45073
6.74746
5.03789
3.56817
1.60241
1.14747
41.3271
23.331
32.45
30.8716
33.1905
34.2895
35.7809
37.1233
38.4125
39.5513
40.4865
41.1501
41.4805
41.4253
40.9496
40.0417
38.7162
37.0133
34.9948
32.7363
30.3184
27.8169
25.2983
22.8187
20.4166
18.1141
15.9255
13.8567
11.9005
10.0495
8.28172
6.61767
4.93932
3.51174
1.55893
1.16484
41.544
23.3613
32.67
31.0036
33.4231
34.546
36.1169
37.5418
38.9402
40.2093
41.2993
42.1399
42.6655
42.8164
42.5475
41.8352
40.6821
39.1176
37.1962
34.9908
32.5836
30.0566
27.4834
24.9267
22.4362
20.0426
17.7628
15.6071
13.5761
11.659
9.84804
8.11861
6.49286
4.84443
3.45838
1.51648
1.18261
41.7537
23.3883
32.871
31.1212
33.6327
34.7753
36.4194
37.9192
39.419
40.8104
42.0479
43.0599
43.7779
44.1366
44.0815
43.5771
42.6133
41.208
39.406
37.275
34.8967
32.3575
29.7388
27.1102
24.5297
22.0392
19.6623
17.4116
15.2925
13.3011
11.424
9.65338
7.96151
6.37313
4.75337
3.40799
1.4751
1.2006
41.9571
23.4126
33.0537
31.2261
33.8208
34.9797
36.6906
38.2584
39.8519
41.3574
42.7342
43.9109
44.8173
45.3832
45.5465
45.2603
44.5016
43.2754
41.6155
39.5819
37.2535
34.7187
32.0656
29.3724
26.7044
24.1131
21.6324
19.2796
17.0629
14.9832
13.0327
11.1963
9.46583
7.81048
6.25857
4.66616
3.36041
1.43488
1.21863
42.155
23.4348
33.2191
31.3198
33.9891
35.1614
36.933
38.5621
40.2416
41.8528
43.3607
44.6943
45.7834
46.5541
46.9379
46.8781
46.3384
45.3103
43.8151
41.903
39.6478
37.1372
34.464
31.7155
28.9652
26.2725
23.6821
21.2199
18.8974
16.7189
14.6807
12.7721
10.9765
9.28552
7.66561
6.14923
4.58278
3.3155
1.39591
1.23652
42.3484
23.4554
33.3679
31.4035
34.1392
35.3222
37.1489
38.833
40.5912
42.2997
43.93
45.412
46.6768
47.6483
48.2526
48.4244
48.1156
47.3031
45.9947
44.2288
42.0714
39.608
36.9329
34.1407
31.3153
28.5243
25.8209
23.2419
20.8055
18.5186
16.3812
14.386
12.5197
10.7648
9.11256
7.52696
6.04506
4.50313
3.2731
1.35829
1.25408
42.5369
23.4746
33.501
31.4786
34.2725
35.4643
37.3405
39.0735
40.9033
42.701
44.4449
46.0665
47.4989
48.6654
49.4881
49.8944
49.8255
49.2443
48.1437
46.5489
44.5154
42.1238
39.4686
36.6484
33.7572
30.8729
28.0568
25.3552
22.7966
20.3925
18.1452
16.0514
14.1001
12.2762
10.5614
8.94701
7.39451
5.94597
4.42714
3.23309
1.32209
1.27115
42.7188
23.4932
33.6193
31.5459
34.3902
35.5893
37.5098
39.2863
41.1808
43.0598
44.9085
46.6604
48.2515
49.6057
50.6427
51.2841
51.4614
51.1247
50.2515
48.8519
46.9693
44.6763
42.0652
39.237
36.2926
33.322
30.396
27.5694
24.8807
22.3502
19.9835
17.7793
15.7308
13.8236
12.0419
10.3664
8.78886
7.2682
5.8518
4.35472
3.19536
1.28738
1.28758
42.8959
23.5126
33.7234
31.6066
34.4936
35.699
37.6587
39.4737
41.4265
43.379
45.3237
47.1966
48.937
50.4703
51.7157
52.5903
53.0175
52.9356
52.307
51.1261
49.4216
47.2553
44.715
41.902
38.9217
35.8744
32.8433
29.892
27.0681
24.4019
21.9058
19.5809
17.4225
15.42
13.5569
11.8169
10.1799
8.63803
7.1479
5.76238
4.28582
3.15977
1.25418
1.30326
43.0772
23.5322
33.8135
31.6617
34.5839
35.7947
37.7892
39.638
41.643
43.6617
45.694
47.6783
49.5582
51.2612
52.7073
53.8111
54.4891
54.6694
54.3002
53.3594
51.8597
49.8496
47.4087
44.637
41.6423
38.5323
35.4029
32.3292
29.3678
26.5585
23.9227
21.4663
19.1867
17.0758
15.1197
13.3004
11.6014
10.0019
8.49438
7.03343
5.67757
4.22034
3.12619
1.22253
1.31808
43.2659
23.547
33.8906
31.7122
34.6623
35.878
37.9029
39.7812
41.8327
43.9108
46.0224
48.1088
50.1181
51.9808
53.6186
54.9452
55.8726
56.3195
56.2213
55.5398
54.2706
52.4465
50.1357
47.4336
44.4494
41.2953
38.0782
34.8866
31.7875
28.83
26.0452
23.4463
21.0342
18.8027
16.7402
14.8304
13.0543
11.3955
9.83215
8.35771
6.92467
5.59721
4.1582
3.09447
1.19244
1.33198
43.4326
23.5557
33.958
31.7586
34.7295
35.95
38.0013
39.9053
41.998
44.1289
46.312
48.4914
50.6199
52.6319
54.4514
55.9929
57.1654
57.8804
58.0618
57.6559
56.6408
55.0321
52.8835
50.282
47.3359
44.1608
40.8712
37.5689
34.334
31.2256
28.2843
25.5322
22.9757
20.6115
18.43
16.4162
14.5522
12.8187
11.1991
9.67053
8.22783
6.82142
5.52111
4.09928
3.06449
1.16391
1.3449
43.5413
23.5765
34.0173
31.8003
34.7868
36.0121
38.0861
40.0122
42.1411
44.3189
46.566
48.8294
51.0672
53.2175
55.2082
56.9549
58.3661
59.3478
59.8141
59.6969
58.957
57.5918
55.6381
53.1707
50.2932
47.1234
43.7813
40.38
37.0136
33.7534
30.6502
27.7355
25.023
22.5136
20.2001
18.0694
16.1042
14.2854
12.5937
11.012
9.5168
8.10454
6.72351
5.4491
4.04348
3.03613
1.13694
1.35683
43.6685
23.6315
34.0598
31.8376
34.8353
36.0652
38.1585
40.1035
42.2641
44.4831
46.7873
49.1264
51.4635
53.7412
55.8917
57.8332
59.4745
60.7187
61.4719
61.6532
61.2066
60.1108
58.3841
56.0858
53.3107
50.1756
46.8053
43.3214
39.8316
36.4211
33.1525
30.0673
27.1877
24.5205
22.062
19.8011
17.7215
15.8044
14.0302
12.3791
10.8339
9.37073
7.98762
6.63077
5.38099
3.99066
3.00928
1.1115
1.36774
43.8766
23.6718
34.0743
31.8754
34.8761
36.11
38.2199
40.181
42.369
44.624
46.9788
49.3855
51.8124
54.2067
56.5052
58.6301
60.4915
61.9914
63.0302
63.5162
63.3777
62.5745
61.1054
59.012
56.3756
53.3084
49.9377
46.3923
42.7917
39.2356
35.8002
32.5383
29.4817
26.6445
24.0276
21.6228
19.4152
17.3867
15.5171
13.7866
12.1747
10.6646
9.23209
7.87685
6.54298
5.31661
3.94073
2.98385
1.08758
1.37765
43.9433
23.6103
34.0864
31.9192
34.9085
36.1474
38.2711
40.2461
42.4578
44.7439
47.143
49.6099
52.1175
54.6177
57.0525
59.3485
61.4188
63.1655
64.4855
65.2786
65.4594
64.9689
63.7859
61.9321
59.4727
56.5103
53.1711
49.5895
45.8956
42.2027
38.6017
35.1589
31.9169
28.8979
26.1092
23.5465
21.197
19.0432
17.0653
15.2424
13.5543
11.9803
10.5037
9.10063
7.772
6.45993
5.25575
3.89355
2.95975
1.06513
1.38658
44.012
23.5897
34.1344
31.9572
34.9311
36.1795
38.3134
40.2996
42.5319
44.8449
47.2826
49.8025
52.3822
54.9781
57.5375
59.992
62.2587
64.2415
65.8357
66.935
67.4419
67.2807
66.4095
64.8288
62.585
59.7669
56.4953
52.9076
49.1423
45.3262
41.5647
37.9388
34.5044
31.2933
28.3197
25.5846
23.0787
20.7854
18.6854
16.7574
14.9802
13.3332
11.7955
10.3512
8.97611
7.67281
6.38141
5.19824
3.84901
2.93689
1.04409
1.39455
44.0809
23.5684
34.149
31.9572
34.9483
36.208
38.3483
40.343
42.5925
44.9288
47.4002
49.9664
52.6099
55.2917
57.9643
60.5645
63.0145
65.2212
67.0802
68.4811
69.3172
69.4976
68.9605
67.6842
65.694
63.0616
59.8978
56.3384
52.5287
48.6076
44.6952
40.8877
37.2555
33.8429
30.6722
27.7505
25.0729
22.6254
20.3888
18.342
16.4632
14.7303
13.1229
11.62
10.2066
8.85825
7.57902
6.30721
5.14393
3.807
2.9152
1.02443
1.40161
44.1505
23.5475
34.1639
31.9565
34.9633
36.2298
38.3766
40.3785
42.6413
44.9971
47.4978
50.1044
52.804
55.5623
58.3369
61.0703
63.6899
66.1071
68.2194
69.9145
71.0789
71.6089
71.4241
70.4808
68.7808
66.3758
63.3626
59.8711
56.0493
52.0464
47.9972
44.0135
40.1812
36.5591
33.1799
30.0577
27.1931
24.5757
22.1875
20.0075
18.0133
16.1824
14.4925
12.9231
11.4536
10.0696
8.74676
7.49039
6.23712
5.09264
3.76739
2.8946
1.00608
1.4078
44.2216
23.5269
34.1782
31.9559
34.9671
36.2344
38.3974
40.4079
42.6807
45.0514
47.5769
50.2189
52.9678
55.7935
58.6594
61.5136
64.2892
66.9027
69.255
71.2342
72.7222
73.6054
73.7867
73.2008
71.8256
69.6896
66.8717
63.4916
59.6953
55.6394
51.4727
47.3228
43.2917
39.454
35.856
32.5201
29.4532
26.6498
24.0942
21.7657
19.6418
17.6993
15.9149
14.2663
12.7334
11.2959
9.94006
8.64136
7.40666
6.17095
5.04422
3.73008
2.87504
0.988984
1.41318
44.2931
23.5068
34.1919
31.9554
34.9708
36.2347
38.4052
40.4284
42.7128
45.095
47.6396
50.3116
53.1038
55.989
58.936
61.8988
64.8166
67.6118
70.1897
72.4405
74.2444
75.4799
76.0361
75.8278
74.8087
72.9821
70.405
67.1825
63.4547
59.3808
55.1212
50.82
46.5958
42.5398
38.7138
35.1518
31.8678
28.8618
26.1221
23.6291
21.3603
19.2919
17.3997
15.6603
14.0514
12.5535
11.1466
9.81752
8.54176
7.32759
6.10851
4.99852
3.69494
2.85647
0.973073
1.41781
44.3639
23.487
34.2048
31.955
34.9742
36.235
38.4064
40.4321
42.7343
45.1304
47.6897
50.385
53.2142
56.152
59.1707
62.2304
65.277
68.2389
71.0271
73.5354
75.644
77.2271
78.1624
78.3467
77.7107
76.2313
73.9406
70.9243
67.3119
63.261
58.9397
54.5074
50.1006
45.8274
41.7669
37.9672
34.4517
31.2267
28.2856
25.6113
23.1813
20.9718
18.9577
17.1143
15.4182
13.8476
12.3832
11.0053
9.70169
8.44769
7.25294
6.04961
4.9554
3.66187
2.83881
0.958285
1.42172
44.4352
23.4675
34.217
31.955
34.9774
36.2353
38.4075
40.4319
42.7378
45.1533
47.7302
50.4436
53.3017
56.2847
59.3672
62.5131
65.6751
68.7887
71.7713
74.5214
76.9216
78.8435
80.1573
80.7442
80.5133
79.4155
77.4552
74.695
71.2485
67.2667
62.9217
58.3851
53.811
49.3266
45.0282
40.9809
37.2201
33.7601
30.5999
27.7263
25.1181
22.7512
20.6001
18.6389
16.8427
15.1884
13.6543
12.2219
10.8717
9.59225
8.35887
7.18251
5.99408
4.91472
3.63075
2.82204
0.944556
1.42499
44.507
23.4487
34.229
31.9552
34.9805
36.2354
38.4085
40.4314
42.7374
45.1551
47.7557
50.4909
53.3717
56.3902
59.5278
62.7508
66.0161
69.2666
72.4271
75.4023
78.0786
80.3279
82.0148
83.0089
83.1998
82.5132
80.9249
78.4704
75.2427
71.3814
67.0566
62.4495
57.7302
53.045
48.5098
44.2075
40.1887
36.4779
33.0808
29.9894
27.185
24.6434
22.3391
20.2452
18.3353
16.5846
14.9703
13.4713
12.0693
10.7455
9.4889
8.27504
7.11606
5.94173
4.87635
3.60149
2.8061
0.931821
1.42767
44.5792
23.4301
34.2404
31.9556
34.9833
36.2356
38.4092
40.4309
42.7366
45.1538
47.757
50.5205
53.4282
56.475
59.6564
62.9462
66.3042
69.678
73
76.1828
79.1181
81.6802
83.7312
85.1318
85.7553
85.504
84.3254
82.2249
79.2704
75.5846
71.3305
66.6935
61.8579
56.9888
52.2224
47.6613
43.3735
39.3967
35.7452
32.4169
29.397
26.6626
24.1877
21.9449
19.9067
18.0465
16.3395
14.7636
13.2981
11.925
10.6262
9.39133
8.19596
7.0534
5.8924
4.84017
3.57398
2.79096
0.920017
1.42981
44.6518
23.4121
34.2511
31.9564
34.9859
36.2358
38.4098
40.4301
42.7355
45.1521
47.7552
50.5213
53.4638
56.5437
59.7602
63.1037
66.5426
70.0275
73.4958
76.8682
80.0441
82.9021
85.3045
87.1063
88.1673
88.3695
87.6329
85.932
83.305
79.8525
75.7249
71.106
66.1905
61.1611
56.1747
51.3554
46.7905
42.5336
38.6104
35.0259
31.7706
28.8239
26.16
23.7511
21.5686
19.5844
17.772
16.1071
14.5679
13.1342
11.7887
10.5136
9.29926
8.12137
6.99433
5.84592
4.80605
3.54812
2.77656
0.909083
1.43148
44.7249
23.3946
34.2612
31.9574
34.9882
36.2359
38.4104
40.4292
42.7343
45.1501
47.7528
50.5188
53.465
56.5875
59.8448
63.2317
66.7362
70.3186
73.9195
77.4646
80.8619
83.9969
86.7347
88.9277
90.4259
91.0932
90.8251
89.5648
87.3182
84.1584
80.2174
75.6716
70.7204
65.5619
60.3735
55.3016
50.4553
45.9063
41.6944
37.8346
34.3232
31.1436
28.2711
25.6775
23.3337
21.2099
19.2778
17.5114
15.8868
14.3827
12.9792
11.6599
10.4073
9.21241
8.05104
6.93865
5.80215
4.77388
3.52382
2.76289
0.898961
1.43272
44.7984
23.3777
34.2706
31.9588
34.9902
36.236
38.4107
40.4282
42.7329
45.1478
47.7501
50.5157
53.4621
56.5899
59.8997
63.3366
66.8948
70.5569
74.2748
77.9774
81.5775
84.9693
88.0238
90.5938
92.5233
93.6616
93.8813
93.097
91.2805
88.4728
84.782
80.3699
75.4354
70.1874
64.8225
59.5099
54.3822
49.5322
45.0163
40.8618
37.0734
33.6393
30.5372
27.7393
25.2155
22.9352
20.8683
18.9865
17.2643
15.6783
14.2075
12.8328
11.5383
10.3069
9.13049
7.98475
6.88618
5.76093
4.74355
3.50099
2.74991
0.889597
1.43358
44.8724
23.3612
34.2793
31.9604
34.992
36.2358
38.411
40.427
42.7312
45.1453
47.747
50.5122
53.4584
56.5867
59.9045
63.4063
67.0255
70.7534
74.568
78.4104
82.1965
85.8252
89.1756
92.1049
94.4545
96.063
96.7838
96.5039
95.1623
92.7644
89.3887
85.1766
80.3183
75.0293
69.522
63.9878
58.5845
53.4283
48.5953
44.1277
40.0409
36.3299
32.976
29.9525
27.2291
24.7739
22.5554
20.5434
18.71
17.0302
15.4809
14.0419
12.6945
11.4235
10.2123
9.05326
7.92229
6.83674
5.72213
4.71496
3.47953
2.73758
0.880935
1.43411
44.9468
23.3445
34.2872
31.9623
34.9936
36.2357
38.4109
40.4256
42.7294
45.1426
47.7437
50.5083
53.4543
56.5826
59.9014
63.4151
67.1143
70.9165
74.8116
78.7704
82.7228
86.5701
90.1956
93.4633
96.217
98.2891
99.5169
99.7631
98.9346
97.0007
94.0049
90.0623
85.3472
80.0739
74.4677
68.7398
63.0732
57.6106
52.4505
47.6528
43.2465
39.2356
35.6065
32.3348
29.3902
26.7405
24.3524
22.1938
20.2347
18.4479
16.8085
15.2943
13.8854
12.5639
11.3152
10.1231
8.98046
7.86343
6.79017
5.68559
4.68801
3.45939
2.72587
0.872927
1.43433
45.0212
23.3285
34.294
31.9646
34.9949
36.2357
38.4107
40.4241
42.7273
45.1396
47.7402
50.5042
53.4498
56.578
59.8971
63.4122
67.1289
71.03
75.015
79.0718
83.1638
87.2078
91.0886
94.6736
97.8115
100.334
102.068
102.854
102.57
101.149
98.5961
94.9941
90.4946
85.3026
79.65
73.7662
67.8572
62.0938
56.6005
51.4583
46.7121
42.3778
38.4491
34.905
31.7166
28.8509
26.2735
23.9506
21.8499
19.9419
18.1996
16.5988
15.1178
13.7376
12.4407
11.2131
10.039
8.91187
7.808
6.7463
5.6512
4.66262
3.44047
2.71476
0.865523
1.43431
45.0964
23.3134
34.3
31.9672
34.9958
36.2354
38.4104
40.4224
42.7251
45.1364
47.7363
50.4997
53.4448
56.5729
59.8922
63.4081
67.1268
71.053
75.1598
79.3251
83.5357
87.7462
91.8585
95.74
99.2412
102.197
104.428
105.76
106.044
105.177
103.126
99.9356
95.728
90.6907
85.0544
79.0618
72.9413
66.8905
61.0633
55.5653
50.4606
45.7796
41.526
37.684
34.227
31.1223
28.3345
25.8279
23.5682
21.5233
19.6642
17.9644
16.4004
14.9511
13.598
12.3244
11.1167
9.95968
8.84724
7.75579
6.70499
5.61884
4.6387
3.4227
2.70423
0.858677
1.43406
45.1731
23.2992
34.3055
31.9703
34.9964
36.2351
38.4098
40.4205
42.7225
45.1329
47.7321
50.4948
53.4394
56.5672
59.8867
63.4032
67.1231
71.0521
75.194
79.5091
83.85
88.2034
92.5135
96.6657
100.509
103.877
106.591
108.467
109.333
109.055
107.559
104.848
101.011
96.2077
90.6596
84.6164
78.3254
72.0104
65.8553
59.9945
54.5152
49.4652
44.8607
40.6942
36.9423
33.5737
30.5523
27.841
25.4032
23.2045
21.2134
19.4011
17.742
16.2129
14.7936
13.4664
12.2148
11.026
9.88498
8.78636
7.70663
6.66609
5.58839
4.61616
3.40602
2.69423
0.852348
1.43362
45.2505
23.2859
34.31
31.9739
34.9967
36.2348
38.4091
40.4185
42.7198
45.1292
47.7276
50.4895
53.4337
56.5611
59.8806
63.3976
67.1188
71.0496
75.1952
79.5582
84.0828
88.5923
93.0734
97.459
101.617
105.377
108.556
110.966
112.42
112.755
111.859
109.693
106.302
101.817
96.4382
90.4134
84.0044
77.4586
70.9906
64.766
58.8994
53.4596
48.4786
43.9596
39.8851
36.2256
32.9457
30.0067
27.3701
24.999
22.8592
20.9196
19.1521
17.5316
16.0358
14.645
13.3421
12.1114
10.9404
9.8146
8.72903
7.66034
6.62946
5.55973
4.59492
3.39035
2.68476
0.846495
1.43303
45.3274
23.2732
34.3136
31.9776
34.9969
36.2343
38.4083
40.4162
42.7168
45.1252
47.7227
50.4838
53.4275
56.5546
59.874
63.3914
67.1135
71.0462
75.1944
79.5625
84.1515
88.8852
93.5523
98.1417
102.574
106.697
110.322
113.251
115.289
116.252
115.993
114.428
111.56
107.478
102.356
96.4289
89.9662
83.2354
76.4795
69.898
63.6363
57.7886
52.4064
47.5065
43.0799
39.1009
35.5351
32.3434
29.4853
26.9213
24.6147
22.5316
20.6413
18.9165
17.3328
15.8685
14.5048
13.225
12.0139
10.8598
9.74831
8.67503
7.61676
6.59498
5.53277
4.57492
3.37565
2.67578
0.841083
1.4323
45.4044
23.2605
34.3161
31.9817
34.9965
36.234
38.4071
40.4138
42.7137
45.1209
47.7176
50.4779
53.4208
56.5474
59.8668
63.3845
67.1075
71.0417
75.1926
79.5644
84.1598
88.9787
93.9189
98.729
103.402
107.845
111.887
115.319
117.932
119.526
119.929
119.015
116.739
113.146
108.372
102.632
96.1919
89.3344
82.3281
75.4058
68.748
62.4784
56.6718
51.3627
46.5534
42.2243
38.3433
34.8714
31.7669
28.9878
26.4943
24.2498
22.221
20.3778
18.6937
17.1449
15.7106
14.3724
13.1145
11.9221
10.7838
9.68588
8.62419
7.57575
6.56252
5.50741
4.55609
3.36184
2.66727
0.836079
1.43146
45.4809
23.2493
34.3177
31.9862
34.9958
36.2334
38.4058
40.4112
42.7101
45.1163
47.712
50.4714
53.4136
56.5398
59.8589
63.3769
67.1006
71.0364
75.1897
79.5649
84.1655
88.9925
94.044
99.1851
104.119
108.846
113.257
117.164
120.339
122.563
123.642
123.417
121.795
118.773
114.441
108.984
102.655
95.7419
88.5361
81.3013
74.2548
67.5548
61.3038
55.5578
50.3344
45.6228
41.3951
37.6134
34.2351
31.2161
28.5137
26.0883
23.9036
21.9268
20.1286
18.4832
16.9675
15.5616
14.2477
13.0103
11.8355
10.7123
9.62709
8.57633
7.53714
6.53197
5.48356
4.53835
3.34888
2.65921
0.83145
1.43054
45.5577
23.2381
34.3185
31.9913
34.9948
36.2329
38.4042
40.4084
42.7064
45.1115
47.7062
50.4646
53.406
56.5316
59.8505
63.3686
67.093
71.0301
75.1856
79.5644
84.1697
89.0034
94.0651
99.3496
104.683
109.716
114.46
118.792
122.503
125.35
127.112
127.601
126.685
124.308
120.512
115.44
109.319
102.436
95.0959
87.5905
80.1739
73.0423
66.3314
60.123
54.4538
49.326
44.7179
40.594
36.912
33.626
30.6905
28.0626
25.7029
23.5755
21.6483
19.8929
18.2843
16.8001
15.4211
14.13
12.9122
11.754
10.6449
9.57173
8.53127
7.50081
6.50322
5.46113
4.52165
3.33671
2.65159
0.827167
1.42954
45.6362
23.2269
34.3179
31.9968
34.9933
36.2323
38.4026
40.4054
42.7025
45.1063
47.7
50.4574
53.3979
56.5228
59.8414
63.3595
67.0845
71.023
75.1805
79.5625
84.1725
89.0126
94.0828
99.3801
104.897
110.41
115.512
120.229
124.425
127.873
130.318
131.539
131.368
129.702
126.531
121.946
116.141
109.386
101.992
94.2727
86.5178
78.9635
71.7833
65.0902
58.9448
53.3658
48.3416
43.8409
39.8224
36.2395
33.044
30.1898
27.6339
25.3373
23.2647
21.3849
19.6702
18.0965
16.6421
15.2885
14.0191
12.8197
11.6772
10.5814
9.51963
8.48887
7.46663
6.47617
5.44002
4.50592
3.32528
2.64437
0.823203
1.42849
45.7152
23.2172
34.3159
32.0027
34.9917
36.2314
38.4007
40.4022
42.6982
45.1009
47.6934
50.4497
53.3894
56.5135
59.8316
63.3497
67.0752
71.0146
75.1744
79.5594
84.1739
89.02
94.0985
99.4067
104.939
110.684
116.361
121.494
126.134
130.131
133.242
135.206
135.809
134.908
132.442
128.447
123.07
116.551
109.198
101.339
93.2927
85.3371
77.6869
70.4918
63.8419
57.7769
52.2989
47.3842
42.9937
39.0809
35.5958
32.4887
29.7133
27.2268
24.9907
22.9705
21.1358
19.4598
17.9192
16.4931
15.1635
13.9146
12.7326
11.6049
10.5217
9.47058
8.44896
7.43446
6.45071
5.42018
4.49111
3.31455
2.63754
0.819533
1.42741
45.7945
23.2081
34.313
32.0092
34.9895
36.2307
38.3984
40.3988
42.6937
45.0951
47.6865
50.4416
53.3803
56.5037
59.8212
63.3391
67.0649
71.0054
75.167
79.5549
84.1737
89.0259
94.1122
99.4309
104.977
110.741
116.707
122.526
127.646
132.151
135.879
138.575
139.975
139.884
138.191
134.881
130.045
123.882
116.679
108.769
100.497
92.1765
84.0671
76.3602
69.1808
62.596
56.6257
51.2572
46.4564
42.1777
38.3699
34.9807
31.9598
29.2605
26.8407
24.6625
22.6922
20.9004
19.2612
17.7519
16.3525
15.0457
13.8161
12.6506
11.5368
10.4655
9.42442
8.4114
7.4042
6.42675
5.40152
4.47717
3.30448
2.63108
0.816134
1.42629
45.8745
23.2004
34.3086
32.0161
34.9868
36.2299
38.3961
40.3952
42.6889
45.089
47.6792
50.4331
53.3707
56.4931
59.81
63.3277
67.0537
70.9951
75.1584
79.5492
84.172
89.0299
94.1241
99.4529
105.012
110.793
116.782
122.96
128.895
133.95
138.254
141.635
143.833
144.588
143.729
141.189
137.003
131.318
124.387
116.535
108.119
99.4879
90.9442
82.7257
74.9981
67.8617
61.3606
55.4966
50.244
45.5601
41.3935
37.6894
34.394
31.4565
28.8306
26.4748
24.3518
22.4291
20.6781
19.0737
17.5941
16.22
14.9347
13.7234
12.5733
11.4727
10.4125
9.38098
8.37606
7.37573
6.40422
5.38397
4.46405
3.29503
2.62497
0.812985
1.42516
45.9552
23.1932
34.3033
32.0237
34.9838
36.2288
38.3934
40.3913
42.6838
45.0826
47.6715
50.4242
53.3606
56.482
59.7982
63.3155
67.0417
70.9838
75.1486
79.542
84.1687
89.0323
94.134
99.4728
105.045
110.842
116.852
123.058
129.434
135.451
140.382
144.411
147.363
148.976
149.005
147.311
143.876
138.793
132.265
124.593
116.137
107.268
98.3324
89.6154
81.3296
73.6144
66.5445
60.1424
54.3939
49.2621
44.6967
40.6415
37.0392
33.835
30.9782
28.4229
26.1281
24.0579
22.1804
20.4681
18.8968
17.4453
16.0951
14.8301
13.636
12.5006
11.4123
10.3627
9.3401
8.34281
7.34895
6.38302
5.36747
4.4517
3.28615
2.61919
0.810066
1.42403
46.0361
23.1863
34.2965
32.0317
34.9805
36.2279
38.3905
40.3873
42.6784
45.0759
47.6633
50.4147
53.3499
56.4703
59.7856
63.3024
67.0286
70.9713
75.1377
79.5335
84.164
89.0328
94.1419
99.4906
105.075
110.888
116.919
123.15
129.559
136.115
142.175
146.914
150.587
153.023
153.964
153.189
150.6
146.234
140.243
132.888
124.513
115.503
106.237
97.0517
88.209
79.8948
72.2211
65.2376
58.9472
53.3214
48.3135
43.867
39.9218
36.4189
33.3032
30.5241
28.0364
25.8001
23.78
21.9456
20.27
18.7299
17.305
15.9775
14.7316
13.5537
12.4321
11.3555
10.3158
9.30164
8.31153
7.32376
6.36307
5.35195
4.44008
3.27781
2.61374
0.807361
1.42289
46.1164
23.1808
34.2877
32.04
34.9766
36.2269
38.3874
40.383
42.6727
45.0688
47.6548
50.4048
53.3387
56.4579
59.7723
63.2885
67.0146
70.9577
75.1254
79.5234
84.1575
89.0314
94.1476
99.5058
105.103
110.932
116.982
123.238
129.678
136.273
142.987
149.045
153.514
156.745
158.573
158.757
157.105
153.57
148.248
141.353
133.197
124.163
114.653
105.049
95.6662
86.7428
78.4356
70.8287
63.9484
57.7796
52.2817
47.3996
43.0713
39.2341
35.828
32.7978
30.0934
27.6703
25.4897
23.5175
21.7239
20.083
18.5726
17.1728
15.8666
14.6388
13.4762
12.3676
11.302
10.2717
9.26545
8.28211
7.30007
6.34431
5.33736
4.42914
3.26999
2.60858
0.804851
1.42177
46.1972
23.1762
34.278
32.0491
34.9721
36.2256
38.3842
40.3784
42.6667
45.0614
47.646
50.3944
53.3269
56.4449
59.7582
63.2737
66.9995
70.9431
75.1116
79.5118
84.1492
89.0282
94.1512
99.5186
105.128
110.972
117.042
123.322
129.792
136.424
143.184
150.028
156.03
160.146
162.842
163.972
163.317
160.723
156.201
149.91
142.124
133.204
123.561
113.611
103.724
94.1958
85.2335
76.9647
69.4464
62.6829
56.6437
51.2772
46.5211
42.3096
38.578
35.2659
32.318
29.6851
27.3239
25.1964
23.2695
21.5146
19.9067
18.4242
17.0482
15.7621
14.5514
13.4033
12.3069
11.2517
10.2302
9.23141
8.25443
7.27779
6.32667
5.32365
4.41885
3.26264
2.60372
0.802522
1.42066
46.2799
23.1718
34.267
32.059
34.9673
36.2243
38.3805
40.3737
42.6605
45.0536
47.6366
50.3836
53.3145
56.4312
59.7434
63.258
66.9834
70.9271
75.0966
79.4986
84.1392
89.0229
94.1526
99.5289
105.15
111.01
117.099
123.403
129.902
136.57
143.373
150.271
157.213
163.099
166.772
168.838
169.179
167.607
164.015
158.476
151.216
142.564
132.923
122.729
112.399
102.286
92.6595
83.6964
75.4934
68.0818
61.4462
55.5423
50.3092
45.6786
41.5818
37.953
34.7316
31.8629
29.2985
26.9962
24.9191
23.0353
21.3171
19.7404
18.2844
16.9309
15.6637
14.4691
13.3346
12.2498
11.2044
10.1911
9.19939
8.22839
7.25683
6.31007
5.31075
4.40916
3.25574
2.59912
0.80036
1.41956
46.3622
23.169
34.2539
32.0696
34.9621
36.223
38.3766
40.3687
42.6538
45.0454
47.6268
50.3722
53.3017
56.4168
59.7278
63.2415
66.9663
70.91
75.0802
79.484
84.1275
89.0156
94.1517
99.5366
105.169
111.044
117.152
123.48
130.008
136.711
143.557
150.506
157.51
164.511
170.216
173.348
174.688
174.152
171.593
166.958
160.387
152.168
142.685
132.375
121.689
111.039
100.755
91.075
82.145
74.0315
66.7416
60.2425
54.4779
49.3786
44.872
40.8875
37.3584
34.2244
31.4315
28.9326
26.6864
24.6573
22.8143
21.1309
19.5837
18.1526
16.8203
15.5711
14.3916
13.27
12.196
11.1598
10.1544
9.16926
8.2039
7.23712
6.29446
5.29863
4.40005
3.24925
2.59478
0.798353
1.4185
46.4449
23.167
34.2393
32.0806
34.9564
36.2216
38.3725
40.3634
42.6469
45.037
47.6167
50.3603
53.2881
56.4018
59.7115
63.2239
66.9481
70.8916
75.0624
79.4678
84.1139
89.0062
94.1483
99.5418
105.185
111.075
117.202
123.553
130.11
136.848
143.735
150.734
157.798
164.871
171.89
177.341
179.833
180.349
178.854
175.248
169.537
161.928
152.774
142.502
131.581
120.466
109.554
99.1498
89.4583
80.5912
72.5871
65.4312
59.0752
53.4519
48.4859
44.1013
40.226
36.7932
33.7432
31.023
28.5865
26.3937
24.4101
22.6058
20.9552
19.4359
18.0285
16.7161
15.4838
14.3187
13.2092
12.1454
11.1179
10.1198
9.14093
8.18087
7.21859
6.27978
5.28723
4.39147
3.24317
2.59069
0.796488
1.41745
46.5276
23.1658
34.2235
32.0924
34.95
36.2201
38.3681
40.358
42.6397
45.0281
47.606
50.348
53.274
56.386
59.6942
63.2055
66.9288
70.872
75.0432
79.4497
84.0984
88.9947
94.1426
99.5441
105.199
111.102
117.247
123.621
130.207
136.979
143.909
150.958
158.08
165.222
172.322
179.31
184.431
186.178
185.777
183.25
178.548
171.74
163.102
153.044
142.035
130.563
119.082
107.966
97.4904
87.8238
79.0456
71.1675
64.1552
57.9465
52.4653
47.6312
43.3659
39.5965
36.2567
33.2872
30.6364
28.2592
26.1172
24.1767
22.4092
20.7897
19.2967
17.9116
16.618
15.4017
14.25
13.1519
12.0978
11.0785
10.0873
9.11429
8.15921
7.20117
6.26598
5.27651
4.38341
3.23745
2.58682
0.794754
1.41644
46.6091
23.1661
34.2053
32.1047
34.9432
36.2184
38.3634
40.3522
42.6321
45.0189
47.595
50.335
53.2593
56.3695
59.6761
63.1861
66.9084
70.851
75.0225
79.43
84.0809
88.9809
94.1342
99.5436
105.209
111.126
117.289
123.686
130.299
137.107
144.078
151.176
158.356
165.566
172.744
179.824
186.73
191.44
192.339
190.935
187.31
181.475
173.562
163.914
152.993
141.305
129.346
117.561
106.297
95.7935
86.1844
77.517
69.7786