/*--------------------------------*- C++ -*----------------------------------*\
  =========                 |
  \\      /  F ield         | OpenFOAM: The Open Source CFD Toolbox
   \\    /   O peration     | Website:  https://openfoam.org
    \\  /    A nd           | Version:  7
     \\/     M anipulation  |
\*---------------------------------------------------------------------------*/
FoamFile
{
    version     2.0;
    format      ascii;
    class       surfaceScalarField;
    location    "2000";
    object      phi;
}
// * * * * * * * * * * * * * * * * * * * * * * * * * * * * * * * * * * * * * //

dimensions      [0 3 -1 0 0 0 0];

internalField   nonuniform List<scalar> 
81435
(
-0.449659
0.10191
-0.449235
0.0970186
-0.423686
0.101583
-0.449
0.0923629
-0.423371
0.0967034
-0.398825
0.101258
-0.448846
0.0878875
-0.423077
0.0920693
-0.39851
0.0963889
-0.375173
0.100874
-0.448733
0.083649
-0.422826
0.0876369
-0.398208
0.0917666
-0.374815
0.0960307
-0.352733
0.100502
-0.448642
0.0796216
-0.422607
0.0834294
-0.397925
0.0873544
-0.374483
0.091434
-0.352381
0.0956787
-0.33164
0.100156
-0.448564
0.0758283
-0.422408
0.0794226
-0.397661
0.0831657
-0.374172
0.0870441
-0.352053
0.0911061
-0.331321
0.0953601
-0.311787
0.0998468
-0.448494
0.0722129
-0.422222
0.0756427
-0.397414
0.0791755
-0.373883
0.0828764
-0.35175
0.0867409
-0.331027
0.0908123
-0.311511
0.0950837
-0.293183
0.0995774
-0.448427
0.0687842
-0.422045
0.0720362
-0.397181
0.0754093
-0.373614
0.0789063
-0.351471
0.0825977
-0.330758
0.0864713
-0.311255
0.0905566
-0.292943
0.0948435
-0.275719
0.099336
-0.448363
0.0655244
-0.421875
0.0686141
-0.39696
0.0718151
-0.373363
0.0751583
-0.351216
0.078651
-0.330511
0.082351
-0.31102
0.0862357
-0.292715
0.090329
-0.2755
0.0946245
-0.259285
0.0991105
-0.448299
0.0624331
-0.42171
0.0653593
-0.39675
0.0684046
-0.373129
0.0715808
-0.350982
0.0749246
-0.330285
0.0784248
-0.310801
0.0821328
-0.292501
0.0860216
-0.275288
0.0901173
-0.259075
0.0944146
-0.243823
0.0988946
-0.448235
0.0594911
-0.421549
0.0622722
-0.396552
0.0651615
-0.37291
0.0681862
-0.350767
0.0713662
-0.330077
0.0747167
-0.310598
0.078221
-0.292298
0.08193
-0.275084
0.085818
-0.258871
0.0899131
-0.243618
0.0942094
-0.229251
0.0986868
-0.44817
0.056694
-0.421392
0.059334
-0.396366
0.0620858
-0.372708
0.0649588
-0.35057
0.0679883
-0.329885
0.0711742
-0.310406
0.0745248
-0.292104
0.0780272
-0.274887
0.0817329
-0.258673
0.0856197
-0.243419
0.0897139
-0.229052
0.0940104
-0.215537
0.0984877
-0.448104
0.0540323
-0.421239
0.0565408
-0.396191
0.0591584
-0.37252
0.0618984
-0.350387
0.0647759
-0.329706
0.0678095
-0.310224
0.0709925
-0.291918
0.074338
-0.274696
0.0778361
-0.258479
0.0815389
-0.243225
0.0854266
-0.228859
0.0895213
-0.215346
0.0938202
-0.202638
0.0982982
-0.448038
0.0515008
-0.42109
0.0538836
-0.396026
0.0563758
-0.372347
0.0589856
-0.350218
0.0617295
-0.329538
0.0646077
-0.310051
0.0676364
-0.291737
0.0708116
-0.27451
0.0741518
-0.25829
0.0776468
-0.243036
0.0813499
-0.228673
0.0852403
-0.215163
0.0893375
-0.202459
0.0936406
-0.190492
0.0981194
-0.44797
0.0490905
-0.420947
0.0513573
-0.395871
0.0537292
-0.372188
0.0562161
-0.350062
0.0588297
-0.329379
0.0615703
-0.309885
0.0644415
-0.291561
0.0674608
-0.274328
0.0706294
-0.258105
0.0739668
-0.242852
0.077462
-0.228491
0.0811682
-0.214985
0.0850629
-0.202285
0.0891643
-0.190324
0.0934721
-0.179086
0.0979517
-0.447902
0.0467941
-0.420809
0.0489526
-0.395728
0.0512136
-0.37204
0.0535815
-0.349917
0.0560719
-0.329228
0.0586787
-0.309724
0.0614096
-0.291391
0.0642709
-0.274149
0.0672824
-0.257923
0.0704481
-0.242671
0.073786
-0.228314
0.0772843
-0.214812
0.0809955
-0.202118
0.0848957
-0.190161
0.089002
-0.178929
0.0933148
-0.168347
0.0977952
-0.447832
0.0446083
-0.420677
0.0466621
-0.395595
0.0488197
-0.371903
0.0510771
-0.349783
0.0534473
-0.329085
0.0559286
-0.309568
0.058523
-0.291224
0.0612433
-0.273975
0.0640965
-0.257746
0.0671045
-0.242494
0.070271
-0.22814
0.073612
-0.214643
0.0771153
-0.201955
0.0808326
-0.190004
0.0847389
-0.178777
0.0888501
-0.168201
0.0931683
-0.158256
0.0976494
-0.447761
0.0425261
-0.420551
0.0444826
-0.395472
0.0465397
-0.371778
0.0486938
-0.349658
0.0509515
-0.328948
0.053311
-0.309418
0.0557779
-0.291062
0.0583606
-0.273804
0.061073
-0.257571
0.063922
-0.24232
0.0669304
-0.227969
0.0701004
-0.214478
0.0734462
-0.201796
0.0769556
-0.189852
0.0806799
-0.17863
0.0845922
-0.168059
0.0887085
-0.15812
0.0930322
-0.148772
0.0975135
-0.44769
0.0405419
-0.420432
0.0424072
-0.39536
0.04437
-0.371662
0.0464239
-0.34954
0.0485761
-0.328818
0.0508214
-0.309272
0.0531655
-0.290904
0.0556195
-0.273638
0.0581942
-0.2574
0.0609022
-0.242148
0.0637508
-0.227801
0.0667624
-0.214315
0.0699374
-0.201638
0.0732891
-0.189702
0.0768056
-0.178488
0.080537
-0.167922
0.0844553
-0.157988
0.0885769
-0.148646
0.0929059
-0.139846
0.0973869
-0.447618
0.03865
-0.420321
0.0404301
-0.395256
0.0423039
-0.371555
0.0442636
-0.34943
0.0463136
-0.328694
0.0484515
-0.309132
0.0506812
-0.29075
0.0530116
-0.273475
0.0554569
-0.257233
0.0580271
-0.24198
0.060734
-0.227635
0.0635848
-0.214154
0.0666014
-0.201484
0.0697824
-0.189553
0.0731409
-0.178347
0.0766651
-0.167789
0.0804035
-0.15786
0.0843276
-0.148523
0.0884547
-0.139729
0.0927886
-0.131464
0.0972691
-0.447546
0.0368503
-0.420216
0.0385456
-0.395162
0.0403355
-0.371457
0.0422059
-0.349326
0.0441603
-0.328574
0.0461943
-0.308997
0.0483164
-0.290601
0.0505323
-0.273317
0.0528531
-0.25707
0.0552935
-0.241815
0.057862
-0.227471
0.06057
-0.213994
0.0634252
-0.20133
0.066448
-0.189407
0.0696357
-0.178208
0.0730017
-0.167658
0.0765339
-0.157736
0.0802789
-0.148405
0.0842092
-0.139616
0.0883415
-0.131355
0.0926797
-0.12358
0.0971598
-0.447473
0.0351307
-0.420119
0.0367533
-0.395075
0.0384592
-0.371367
0.0402452
-0.34923
0.0421091
-0.32846
0.0440464
-0.308867
0.0460643
-0.290457
0.0481728
-0.273163
0.0503784
-0.25691
0.0526933
-0.241653
0.0551313
-0.227309
0.0577003
-0.213836
0.0604115
-0.201178
0.0632726
-0.189261
0.0663024
-0.17807
0.0694974
-0.167528
0.0728716
-0.157613
0.0764116
-0.148289
0.0801629
-0.139506
0.0840994
-0.13125
0.0882365
-0.123479
0.0925788
-0.116169
0.0970584
-0.4474
0.0334951
-0.42003
0.0350412
-0.394996
0.0366744
-0.371284
0.0383759
-0.349139
0.0401543
-0.328352
0.0420007
-0.308742
0.0439217
-0.290319
0.045926
-0.273014
0.0480239
-0.256754
0.0502225
-0.241494
0.0525341
-0.22715
0.0549719
-0.213678
0.0575431
-0.201025
0.0602592
-0.189116
0.0631274
-0.177932
0.0661646
-0.167398
0.0693677
-0.157492
0.0727503
-0.148175
0.0762976
-0.139399
0.0800554
-0.131149
0.083998
-0.123382
0.0881392
-0.116076
0.0924854
-0.109202
0.0969644
-0.447327
0.0319343
-0.419947
0.033413
-0.394924
0.0349693
-0.371207
0.0365976
-0.349053
0.0382905
-0.328249
0.0400513
-0.308623
0.0418814
-0.290186
0.0437888
-0.272871
0.0457824
-0.256603
0.0478724
-0.241338
0.0500664
-0.226993
0.0523769
-0.213523
0.0548162
-0.200873
0.0573912
-0.18897
0.0601138
-0.177794
0.0629897
-0.167268
0.066035
-0.157371
0.0692466
-0.148062
0.0726374
-0.139293
0.0761916
-0.131049
0.0799559
-0.123288
0.0839042
-0.115986
0.0880491
-0.109115
0.092399
-0.102652
0.0968772
-0.447254
0.0304469
-0.419873
0.0318596
-0.394859
0.0333474
-0.371136
0.0348986
-0.348973
0.0365175
-0.328151
0.0381929
-0.308509
0.0399378
-0.290059
0.0417541
-0.272732
0.0436505
-0.256456
0.0456356
-0.241185
0.0477199
-0.226838
0.0499114
-0.213368
0.0522226
-0.200722
0.0546649
-0.188825
0.0572454
-0.177656
0.0599756
-0.167138
0.0628597
-0.157249
0.0659134
-0.147949
0.0691338
-0.139188
0.0725324
-0.130951
0.0760934
-0.123196
0.0798641
-0.115899
0.0838175
-0.109032
0.0879656
-0.102572
0.0923194
-0.0964951
0.0967964
-0.447181
0.029029
-0.419805
0.0303794
-0.394799
0.0317997
-0.371071
0.0332824
-0.348898
0.0348234
-0.328059
0.0364251
-0.308402
0.0380852
-0.289937
0.0398163
-0.272599
0.0416213
-0.256314
0.0435086
-0.241037
0.045487
-0.226685
0.0475675
-0.213216
0.0497586
-0.200572
0.0520721
-0.188679
0.0545189
-0.177517
0.0571062
-0.167007
0.0598447
-0.157127
0.0627374
-0.147836
0.0658
-0.139083
0.069029
-0.130854
0.0724349
-0.123105
0.0760027
-0.115814
0.0797793
-0.108952
0.0837374
-0.102495
0.0878883
-0.0964217
0.0922459
-0.0907061
0.0967214
-0.447109
0.0276754
-0.419745
0.0289685
-0.394744
0.0303246
-0.371011
0.0317399
-0.348828
0.033212
-0.327972
0.0347362
-0.3083
0.0363233
-0.289822
0.0379698
-0.272472
0.0396892
-0.256177
0.0414845
-0.240892
0.0433642
-0.226536
0.0453377
-0.213064
0.0474163
-0.200422
0.0496088
-0.188533
0.0519261
-0.177377
0.0543789
-0.166875
0.0569742
-0.157004
0.0597214
-0.147721
0.0626229
-0.138977
0.0656946
-0.130756
0.0689317
-0.123015
0.0723446
-0.115731
0.075919
-0.108873
0.0797011
-0.102421
0.0836633
-0.0963503
0.087817
-0.0906384
0.0921782
-0.0852698
0.0966518
-0.447036
0.0263859
-0.419691
0.0276215
-0.394694
0.0289182
-0.370956
0.0302696
-0.348762
0.0316739
-0.327889
0.0331299
-0.308204
0.0346402
-0.289712
0.0362139
-0.272351
0.0378485
-0.256045
0.0395576
-0.240752
0.0413446
-0.22639
0.0432184
-0.212915
0.0451887
-0.200273
0.0472673
-0.188387
0.0494628
-0.177236
0.0517853
-0.166742
0.0542454
-0.156879
0.0568493
-0.147606
0.0596055
-0.138871
0.0625162
-0.130658
0.0655967
-0.122925
0.0688415
-0.115647
0.0722612
-0.108796
0.075842
-0.102349
0.0796289
-0.0962819
0.0835948
-0.0905725
0.0877512
-0.0852073
0.0921157
-0.080156
0.0965872
-0.446964
0.0251568
-0.419643
0.0263385
-0.394648
0.0275752
-0.370906
0.0288676
-0.3487
0.0302079
-0.327812
0.0315969
-0.308113
0.0330395
-0.289609
0.0345369
-0.272236
0.0360987
-0.255919
0.0377225
-0.240617
0.0394225
-0.226248
0.0412025
-0.212769
0.043072
-0.200125
0.0450409
-0.188241
0.0471214
-0.177095
0.0493213
-0.166607
0.0516504
-0.156752
0.0541187
-0.147488
0.0567317
-0.138762
0.059497
-0.130559
0.0624171
-0.122834
0.0655061
-0.115564
0.068758
-0.10872
0.0721844
-0.102278
0.075771
-0.0962151
0.0795621
-0.0905094
0.0835317
-0.0851466
0.0876904
-0.0800983
0.092058
-0.0753445
0.0965272
-0.446892
0.0239842
-0.419602
0.0251155
-0.394605
0.0262958
-0.370859
0.0275288
-0.348643
0.02881
-0.32774
0.0301358
-0.308029
0.0315121
-0.289512
0.0329421
-0.272127
0.0344277
-0.255799
0.0359784
-0.240487
0.0375924
-0.22611
0.0392846
-0.212626
0.0410592
-0.199979
0.0429261
-0.188095
0.0448954
-0.176953
0.0469794
-0.166471
0.0491851
-0.156624
0.0515218
-0.147368
0.0539991
-0.138652
0.0566213
-0.130458
0.059396
-0.122742
0.0623253
-0.11548
0.0654221
-0.108642
0.0686809
-0.102207
0.0721138
-0.0961497
0.0757056
-0.0904478
0.0795005
-0.0850884
0.0834735
-0.0800422
0.0876343
-0.0752913
0.0920048
-0.0708303
0.0964714
-0.446821
0.0228656
-0.419567
0.0239488
-0.394565
0.025076
-0.370817
0.0262533
-0.348589
0.027475
-0.327673
0.0287426
-0.307949
0.0300564
-0.28942
0.0314206
-0.272023
0.032839
-0.255685
0.0343133
-0.240362
0.0358536
-0.225977
0.0374589
-0.212486
0.0391446
-0.199835
0.0409155
-0.187951
0.0427815
-0.17681
0.044753
-0.166333
0.0468419
-0.156493
0.0490546
-0.147246
0.0513999
-0.138539
0.0538865
-0.130355
0.0565181
-0.122649
0.0593023
-0.115395
0.0622403
-0.108565
0.0653444
-0.102136
0.06861
-0.0960848
0.0720488
-0.0903874
0.0756453
-0.0850315
0.0794436
-0.0799887
0.08342
-0.0752394
0.0875824
-0.0707811
0.0919556
-0.0665781
0.0964197
-0.446751
0.0218011
-0.419537
0.0228356
-0.394529
0.023912
-0.370778
0.0250371
-0.348539
0.0262031
-0.32761
0.0274123
-0.307875
0.0286686
-0.289335
0.0299707
-0.271926
0.0313234
-0.255576
0.0327305
-0.240243
0.0341941
-0.225848
0.035725
-0.21235
0.0373228
-0.199694
0.0390036
-0.187808
0.0407723
-0.176668
0.0426391
-0.166195
0.0446145
-0.156361
0.0467096
-0.147122
0.0489303
-0.138424
0.0512849
-0.13025
0.0537809
-0.122553
0.0564221
-0.115308
0.0592156
-0.108486
0.0621617
-0.102065
0.0652728
-0.0960197
0.0685448
-0.0903277
0.0719891
-0.0849759
0.0755896
-0.0799363
0.0793912
-0.0751901
0.0833707
-0.0707331
0.0875344
-0.0665327
0.0919102
-0.0625878
0.0963718
-0.446681
0.0207827
-0.419512
0.0217762
-0.394494
0.0228013
-0.370742
0.0238766
-0.348492
0.0249905
-0.327552
0.0261449
-0.307806
0.0273434
-0.289254
0.0285885
-0.271835
0.0298794
-0.255474
0.0312208
-0.24013
0.032617
-0.225725
0.0340706
-0.212218
0.0355931
-0.199556
0.0371848
-0.187666
0.0388622
-0.176526
0.0406305
-0.166055
0.0424998
-0.156227
0.0444805
-0.146996
0.0465829
-0.138306
0.0488126
-0.130141
0.0511767
-0.122454
0.0536823
-0.115219
0.056333
-0.108406
0.0591355
-0.101992
0.0620891
-0.0959538
0.0652069
-0.0902679
0.068485
-0.0849208
0.071934
-0.079885
0.0755383
-0.0751419
0.079343
-0.0706877
0.0833253
-0.0664882
0.0874899
-0.0625459
0.0918683
-0.0588394
0.0963272
-0.446612
0.0198145
-0.419492
0.0207626
-0.394462
0.021744
-0.37071
0.022769
-0.348449
0.0238332
-0.327498
0.0249365
-0.307742
0.0260809
-0.28918
0.0272687
-0.27175
0.028503
-0.255377
0.0297827
-0.240022
0.0311131
-0.225606
0.0324989
-0.21209
0.0339433
-0.199422
0.0354586
-0.187527
0.0370457
-0.176385
0.0387213
-0.165916
0.0404909
-0.156091
0.0423644
-0.146867
0.0443515
-0.138186
0.0464623
-0.13003
0.0487015
-0.122353
0.0510753
-0.115127
0.0535905
-0.108324
0.0562507
-0.101918
0.0590615
-0.0958869
0.0620222
-0.0902074
0.0651464
-0.0848658
0.06843
-0.0798342
0.0718832
-0.0750947
0.0754911
-0.0706433
0.0792986
-0.0664463
0.0832834
-0.0625047
0.0874487
-0.0588007
0.0918296
-0.0553025
0.0962859
-0.446543
0.0188886
-0.419476
0.0197988
-0.394432
0.0207323
-0.370681
0.0217145
-0.348408
0.0227287
-0.327448
0.0237832
-0.307683
0.0248771
-0.28911
0.0260114
-0.27167
0.0271889
-0.255286
0.0284122
-0.23992
0.0296809
-0.225494
0.0310006
-0.211968
0.0323765
-0.199291
0.0338128
-0.187391
0.0353223
-0.176246
0.0369063
-0.165776
0.0385819
-0.155955
0.0403543
-0.146736
0.0422333
-0.138063
0.0442281
-0.129916
0.0463482
-0.122248
0.0485972
-0.115033
0.0509807
-0.108239
0.0535055
-0.101842
0.0561747
-0.0958187
0.0589932
-0.090146
0.0619607
-0.0848104
0.065091
-0.0797837
0.0683795
-0.075048
0.0718365
-0.0705999
0.0754477
-0.0664054
0.0792577
-0.062466
0.0832446
-0.0587625
0.0874105
-0.0552668
0.0917939
-0.0519922
0.0962475
-0.446475
0.0180078
-0.419465
0.0188771
-0.394403
0.0197702
-0.370654
0.0207055
-0.348371
0.0216771
-0.327402
0.0226825
-0.307628
0.0237282
-0.289046
0.0248126
-0.271595
0.025937
-0.255201
0.0271038
-0.239824
0.0283162
-0.225387
0.029574
-0.211851
0.0308834
-0.199165
0.0322505
-0.187258
0.0336798
-0.176108
0.0351848
-0.165637
0.0367675
-0.155818
0.0384447
-0.146603
0.0402215
-0.137937
0.0421073
-0.129799
0.0441108
-0.122141
0.0462405
-0.114935
0.0484995
-0.108151
0.0508928
-0.101763
0.053427
-0.0957486
0.0561046
-0.0900832
0.0589305
-0.084754
0.0619043
-0.0797328
0.0650401
-0.0750015
0.068333
-0.0705569
0.0717936
-0.0663655
0.0754078
-0.0624282
0.0792199
-0.0587267
0.0832088
-0.0552315
0.0873752
-0.0519592
0.0917609
-0.0488733
0.0962119
-0.446407
0.0171682
-0.419457
0.0180001
-0.394376
0.01885
-0.37063
0.019746
-0.348336
0.0206709
-0.327359
0.0216346
-0.307577
0.0226317
-0.288986
0.0236685
-0.271526
0.0247435
-0.255122
0.0258576
-0.239734
0.0270137
-0.225286
0.0282151
-0.211739
0.0294623
-0.199044
0.0307622
-0.187129
0.0321213
-0.175974
0.033545
-0.1655
0.0350471
-0.15568
0.0366301
-0.146469
0.0383105
-0.137808
0.0400931
-0.129678
0.0419869
-0.12203
0.0439997
-0.114834
0.0461395
-0.10806
0.0484084
-0.101682
0.0508113
-0.0956761
0.0533545
-0.0900187
0.0560401
-0.0846964
0.0588728
-0.0796811
0.0618526
-0.0749547
0.0649933
-0.0705142
0.0682902
-0.066326
0.0717541
-0.0623915
0.0753711
-0.0586918
0.079185
-0.0551984
0.0831758
-0.0519265
0.0873425
-0.0488428
0.0917304
-0.0459407
0.0961788
-0.446341
0.0163647
-0.419453
0.0171639
-0.394351
0.0179744
-0.370608
0.0188282
-0.348304
0.0197139
-0.32732
0.0206317
-0.30753
0.0215877
-0.288931
0.0225765
-0.271462
0.0236044
-0.255048
0.0246695
-0.239649
0.0257731
-0.225191
0.0269184
-0.211633
0.028109
-0.198928
0.0293461
-0.187004
0.0306372
-0.175842
0.0319895
-0.165364
0.033409
-0.155543
0.03491
-0.146333
0.0364949
-0.137678
0.03818
-0.129555
0.0399697
-0.121915
0.0418723
-0.114729
0.043895
-0.107965
0.046045
-0.101597
0.0483239
-0.0956009
0.0507361
-0.089952
0.0532878
-0.0846372
0.0559809
-0.0796282
0.05882
-0.0749073
0.0618052
-0.0704713
0.0649504
-0.0662868
0.068251
-0.0623552
0.0717179
-0.058658
0.0753373
-0.0551661
0.0791527
-0.051896
0.0831453
-0.0488125
0.0873122
-0.0459124
0.0917021
-0.0431895
0.0961481
-0.446275
0.0156012
-0.419452
0.0163636
-0.394326
0.0171396
-0.370588
0.0179548
-0.348274
0.0187985
-0.327284
0.0196779
-0.307487
0.0205885
-0.28888
0.0215368
-0.271403
0.0225172
-0.254979
0.0235356
-0.239571
0.0245906
-0.225101
0.0256836
-0.211533
0.026818
-0.198817
0.0279981
-0.186883
0.0292257
-0.175714
0.030509
-0.16523
0.0318559
-0.155407
0.0332727
-0.146198
0.0347742
-0.137545
0.0363626
-0.129429
0.0380539
-0.121797
0.0398517
-0.114621
0.0417638
-0.107867
0.0437968
-0.101509
0.0459571
-0.0955226
0.0482455
-0.0898826
0.0506667
-0.0845759
0.0532265
-0.0795739
0.0559266
-0.0748588
0.0587716
-0.0704278
0.0617617
-0.0662474
0.064911
-0.0623192
0.068215
-0.0586246
0.0716845
-0.0551349
0.0753061
-0.0518662
0.0791229
-0.0487843
0.0831171
-0.0458844
0.0872842
-0.0431632
0.0916758
-0.0405993
0.0961197
-0.44621
0.0148725
-0.419453
0.015603
-0.394303
0.0163404
-0.370571
0.017122
-0.348247
0.0179273
-0.327251
0.0187654
-0.307447
0.0196381
-0.288833
0.0205416
-0.271348
0.021482
-0.254915
0.0224535
-0.239497
0.0234622
-0.225017
0.0245068
-0.211438
0.025589
-0.198712
0.0267127
-0.186768
0.0278827
-0.17559
0.0291016
-0.165099
0.0303783
-0.155272
0.0317211
-0.146062
0.033137
-0.137412
0.0346407
-0.1293
0.0362341
-0.121676
0.0379327
-0.114509
0.0397396
-0.107765
0.0416616
-0.101418
0.0437051
-0.0954409
0.0458754
-0.0898102
0.0481732
-0.0845121
0.0506029
-0.0795178
0.0531703
-0.0748091
0.0558769
-0.0703834
0.0587272
-0.0662076
0.0617219
-0.0622832
0.0648749
-0.0585916
0.068182
-0.0551042
0.0716538
-0.0518374
0.0752773
-0.0487568
0.0790954
-0.0458583
0.083091
-0.0431372
0.0872581
-0.040575
0.0916515
-0.0381602
0.0960933
-0.446146
0.0141774
-0.419458
0.014877
-0.394281
0.0155809
-0.370555
0.0163246
-0.348221
0.0170966
-0.327221
0.017897
-0.307411
0.0187289
-0.28879
0.019595
-0.271297
0.0204911
-0.254856
0.021423
-0.239429
0.0223853
-0.224939
0.023384
-0.211349
0.0244179
-0.198612
0.0254893
-0.186658
0.0266025
-0.17547
0.027763
-0.164972
0.0289743
-0.155139
0.0302456
-0.145927
0.031586
-0.137278
0.0330027
-0.12917
0.03451
-0.121552
0.0361098
-0.114393
0.0378169
-0.107659
0.0396334
-0.101322
0.0415659
-0.0953556
0.0436198
-0.0897347
0.0457998
-0.0844454
0.0481065
-0.0794593
0.0505444
-0.0747577
0.0531189
-0.0703378
0.0558313
-0.0661669
0.0586865
-0.0622467
0.0616854
-0.0585585
0.0648419
-0.0550738
0.0681516
-0.0518091
0.0716254
-0.0487302
0.0752507
-0.0458329
0.07907
-0.0431131
0.0830669
-0.0405508
0.087234
-0.0381376
0.0916288
-0.0358771
0.0960689
-0.446083
0.0135146
-0.419465
0.0141842
-0.39426
0.0148558
-0.370541
0.0155668
-0.348198
0.0163012
-0.327193
0.0170689
-0.307377
0.0178635
-0.28875
0.0186893
-0.271251
0.0195485
-0.254802
0.0204367
-0.239366
0.0213599
-0.224866
0.0223125
-0.211266
0.0233008
-0.198518
0.0243239
-0.186553
0.0253846
-0.175355
0.0264877
-0.164849
0.0276396
-0.15501
0.0288443
-0.145793
0.0301118
-0.137143
0.0314515
-0.129037
0.0328705
-0.121425
0.0343831
-0.114274
0.0359906
-0.107549
0.0377068
-0.101222
0.0395334
-0.0952663
0.0414765
-0.0896555
0.0435407
-0.0843756
0.04573
-0.079398
0.0480452
-0.0747041
0.0504908
-0.0702907
0.0530718
-0.0661252
0.0557895
-0.0622095
0.0586493
-0.0585251
0.061652
-0.0550434
0.0648115
-0.0517811
0.0681236
-0.0487041
0.0715993
-0.0458084
0.0752262
-0.0430895
0.0790465
-0.0405284
0.0830445
-0.0381152
0.0872116
-0.0358561
0.0916078
-0.0337249
0.0960463
-0.446021
0.0128828
-0.419474
0.0135235
-0.39424
0.0141641
-0.370528
0.0148433
-0.348176
0.0155452
-0.327168
0.0162759
-0.307346
0.0170381
-0.288714
0.0178271
-0.271208
0.0186465
-0.254752
0.0194984
-0.239308
0.0203784
-0.224799
0.0212923
-0.211189
0.0222349
-0.19843
0.0232124
-0.186454
0.0242247
-0.175245
0.0252749
-0.16473
0.0263686
-0.154883
0.0275129
-0.145661
0.0287124
-0.137009
0.0299777
-0.128904
0.0313183
-0.121295
0.0327412
-0.114151
0.0342604
-0.107435
0.0358766
-0.101118
0.0376026
-0.0951726
0.0394397
-0.0895725
0.0413934
-0.0843023
0.0434674
-0.0793337
0.0456657
-0.074648
0.0479891
-0.0702417
0.0504418
-0.066082
0.0530287
-0.0621713
0.0557513
-0.0584912
0.0586153
-0.0550129
0.0616215
-0.0517532
0.0647836
-0.0486784
0.0680978
-0.0457844
0.0715753
-0.0430669
0.0752036
-0.0405067
0.0790247
-0.0380944
0.0830237
-0.0358353
0.0871909
-0.0337053
0.0915882
-0.0317041
0.0960253
-0.445959
0.0122808
-0.419484
0.0128936
-0.394221
0.0135043
-0.370517
0.0141529
-0.348156
0.0148233
-0.327145
0.015522
-0.307318
0.0162477
-0.288681
0.0170048
-0.271169
0.0177879
-0.254706
0.0186005
-0.239254
0.0194446
-0.224736
0.0203158
-0.211116
0.0212201
-0.198347
0.0221522
-0.18636
0.0231189
-0.175141
0.0241205
-0.164615
0.0251606
-0.15476
0.0262457
-0.145532
0.0273835
-0.136876
0.0285793
-0.128771
0.029844
-0.121164
0.0311871
-0.114025
0.0326155
-0.107317
0.0341427
-0.101009
0.0357683
-0.0950745
0.0375045
-0.0894851
0.0393524
-0.0842253
0.0413164
-0.0792661
0.0433998
-0.074589
0.0456067
-0.0701904
0.0479378
-0.0660372
0.050397
-0.0621318
0.0529892
-0.0584563
0.0557164
-0.0549819
0.0585843
-0.0517251
0.0615935
-0.0486527
0.0647579
-0.0457607
0.0680742
-0.0430448
0.0715532
-0.0404858
0.0751828
-0.0380743
0.0790046
-0.0358161
0.0830045
-0.0336861
0.0871716
-0.0316858
0.0915699
-0.0298025
0.096006
-0.445899
0.011706
-0.419497
0.0122933
-0.394202
0.0128753
-0.370507
0.0134944
-0.348138
0.0141346
-0.327124
0.0148022
-0.307292
0.0154962
-0.28865
0.0162172
-0.271133
0.0169688
-0.254664
0.0177456
-0.239204
0.018551
-0.224678
0.0193869
-0.211049
0.0202489
-0.19827
0.0211431
-0.186272
0.0220644
-0.175043
0.0230202
-0.164506
0.0240113
-0.154641
0.0250419
-0.145405
0.0261194
-0.136744
0.0272521
-0.128637
0.0284459
-0.121032
0.0297117
-0.113897
0.0310588
-0.107196
0.0324941
-0.100897
0.0340302
-0.094972
0.0356658
-0.0893933
0.0374126
-0.0841442
0.0392712
-0.0791949
0.0412452
-0.0745269
0.0433376
-0.0701364
0.0455528
-0.0659903
0.047891
-0.0620908
0.050356
-0.0584202
0.0529532
-0.0549501
0.0556846
-0.0516967
0.0585559
-0.048627
0.0615677
-0.0457372
0.0647344
-0.0430231
0.0680524
-0.0404654
0.0715327
-0.038055
0.0751634
-0.0357974
0.0789859
-0.0336682
0.0829866
-0.031668
0.0871538
-0.0297855
0.0915529
-0.0280162
0.0959881
-0.445839
0.0111584
-0.419511
0.0117199
-0.394185
0.0122758
-0.370498
0.0128666
-0.348121
0.0134775
-0.327104
0.0141153
-0.307269
0.0147786
-0.288622
0.0154683
-0.2711
0.0161843
-0.254625
0.0169301
-0.239159
0.0177002
-0.224625
0.0184978
-0.210988
0.019325
-0.198198
0.0201773
-0.18619
0.0210609
-0.174949
0.0219714
-0.164402
0.0229164
-0.154527
0.0238973
-0.145283
0.0249194
-0.136615
0.0259904
-0.128505
0.0271195
-0.120899
0.0283129
-0.113767
0.0295814
-0.107071
0.0309342
-0.100781
0.0323776
-0.0948651
0.0339234
-0.0892968
0.0355693
-0.0840586
0.037327
-0.0791197
0.039196
-0.0744612
0.0411795
-0.0700794
0.0432806
-0.065941
0.0455034
-0.062048
0.0478481
-0.0583828
0.0503185
-0.0549172
0.0529203
-0.0516677
0.0556556
-0.048601
0.0585299
-0.0457135
0.0615441
-0.0430014
0.0647127
-0.0404453
0.0680324
-0.0380361
0.0715139
-0.0357795
0.0751455
-0.0336509
0.0789685
-0.0316514
0.08297
-0.0297689
0.0871372
-0.0280002
0.0915369
-0.0263365
0.0959716
-0.445781
0.0106353
-0.419526
0.0111736
-0.394168
0.0117034
-0.370491
0.0122681
-0.348106
0.0128511
-0.327087
0.01346
-0.307247
0.0140936
-0.288597
0.0147531
-0.27107
0.0154382
-0.25459
0.0161488
-0.239117
0.0168885
-0.224576
0.0176514
-0.21093
0.0184407
-0.198132
0.0192586
-0.186114
0.0201007
-0.174862
0.0209736
-0.164304
0.021873
-0.154418
0.0228074
-0.145164
0.0237789
-0.136489
0.0247933
-0.128373
0.0258593
-0.120766
0.0269865
-0.113635
0.0281811
-0.106944
0.0294539
-0.10066
0.0308139
-0.0947539
0.0322664
-0.0891958
0.0338223
-0.0839683
0.035479
-0.0790402
0.0372475
-0.0743917
0.0391265
-0.0700191
0.0411192
-0.0658889
0.0432285
-0.0620029
0.0454584
-0.0583436
0.0478089
-0.0548831
0.0502843
-0.0516378
0.0528904
-0.0485744
0.0556291
-0.0456896
0.058506
-0.0429797
0.0615224
-0.0404255
0.0646929
-0.0380176
0.0680139
-0.035762
0.0714964
-0.0336343
0.075129
-0.0316353
0.0789525
-0.0297535
0.0829545
-0.0279849
0.0871218
-0.0263216
0.091522
-0.0247579
0.0959563
-0.445723
0.0101383
-0.419543
0.0106518
-0.394153
0.0111579
-0.370484
0.0116965
-0.348092
0.0122539
-0.327071
0.0128351
-0.307227
0.0134402
-0.288574
0.0140704
-0.271042
0.0147256
-0.254557
0.0154058
-0.239079
0.0161107
-0.224532
0.0168437
-0.210878
0.0175988
-0.198071
0.0183794
-0.186043
0.0191875
-0.17478
0.0200191
-0.164211
0.0208809
-0.154315
0.0217694
-0.145051
0.0226937
-0.136367
0.0236565
-0.128245
0.0246645
-0.120634
0.025727
-0.113502
0.0268539
-0.106814
0.0280514
-0.100536
0.0293301
-0.0946383
0.0306983
-0.08909
0.0321607
-0.0838732
0.0337272
-0.078956
0.0353949
-0.074318
0.0371738
-0.069955
0.0390624
-0.0658336
0.0410639
-0.0619553
0.0431809
-0.0583024
0.0454172
-0.0548474
0.0477732
-0.0516067
0.0502533
-0.0485472
0.0528631
-0.0456654
0.0556048
-0.0429579
0.0584841
-0.0404056
0.0615025
-0.0379994
0.0646746
-0.035745
0.0679969
-0.0336182
0.0714803
-0.03162
0.0751136
-0.0297386
0.0789376
-0.0279705
0.0829402
-0.0263073
0.0871075
-0.024744
0.0915081
-0.0232734
0.0959421
-0.445656
0.00171314
-0.41956
0.0101558
-0.394138
0.0106368
-0.370478
0.0111519
-0.348078
0.0116835
-0.327056
0.0122393
-0.307209
0.012817
-0.288552
0.013419
-0.271017
0.0140453
-0.254528
0.0146961
-0.239044
0.015371
-0.224491
0.0160698
-0.21083
0.0167955
-0.198014
0.0175424
-0.185977
0.0183137
-0.174704
0.0191115
-0.164124
0.0199321
-0.154217
0.0207828
-0.144942
0.0216607
-0.136249
0.0225754
-0.128119
0.0235306
-0.120503
0.0245336
-0.11337
0.0255943
-0.106683
0.0267226
-0.100409
0.0279246
-0.0945188
0.0292105
-0.0889797
0.030588
-0.0837733
0.0320607
-0.0788671
0.0336382
-0.0742398
0.0353167
-0.0698869
0.0371057
-0.0657748
0.0390036
-0.0619048
0.0410134
-0.0582589
0.0431374
-0.0548098
0.0453796
-0.0515742
0.0477406
-0.0485189
0.050225
-0.0456404
0.0528382
-0.0429356
0.0555825
-0.0403856
0.0584641
-0.0379812
0.0614843
-0.0357282
0.0646578
-0.0336025
0.0679812
-0.031605
0.0714654
-0.0297243
0.0750994
-0.0279567
0.0789238
-0.0262939
0.0829268
-0.0247307
0.0870943
-0.0232604
0.091495
-0.0218785
0.0959291
-0.445589
0.00173364
-0.419517
0.00167035
-0.394123
0.0101415
-0.370472
0.0106316
-0.348067
0.0111399
-0.327043
0.0116702
-0.307193
0.0122228
-0.288533
0.0127976
-0.270994
0.0133961
-0.254501
0.0140184
-0.239013
0.0146643
-0.224453
0.0153336
-0.210786
0.0160257
-0.197962
0.0167436
-0.185916
0.0174817
-0.174634
0.0182431
-0.164043
0.0190302
-0.154124
0.0198397
-0.144838
0.0206793
-0.136135
0.021547
-0.127996
0.022453
-0.120374
0.0234018
-0.113237
0.0244014
-0.10655
0.0254619
-0.10028
0.0265932
-0.0943955
0.0278013
-0.0888649
0.0290957
-0.0836684
0.0304831
-0.0787731
0.0319667
-0.0741569
0.0335553
-0.0698145
0.0352443
-0.0657122
0.037043
-0.061851
0.0389498
-0.0582128
0.0409673
-0.0547701
0.0430977
-0.05154
0.0453454
-0.0484893
0.0477111
-0.0456147
0.0501992
-0.0429128
0.0528154
-0.0403652
0.0555622
-0.0379629
0.0584458
-0.0357115
0.0614676
-0.033587
0.0646423
-0.0315905
0.0679666
-0.0297105
0.0714516
-0.0279435
0.0750862
-0.0262811
0.078911
-0.0247183
0.0829143
-0.0232481
0.087082
-0.0218662
0.0914828
-0.0205675
0.095917
-0.445521
0.00175454
-0.419475
0.00169108
-0.394069
0.00161573
-0.370468
0.010137
-0.348056
0.0106206
-0.327031
0.0111278
-0.307177
0.0116551
-0.288515
0.0122052
-0.270973
0.0127768
-0.254476
0.0133716
-0.238984
0.0139895
-0.224419
0.0146302
-0.210745
0.0152933
-0.197915
0.0159782
-0.18586
0.0166878
-0.174569
0.0174164
-0.163967
0.0181674
-0.154038
0.0189435
-0.144741
0.0197418
-0.136026
0.0205706
-0.127878
0.0214287
-0.120248
0.0223271
-0.113107
0.0232709
-0.106417
0.0242687
-0.100149
0.0253307
-0.094269
0.0264667
-0.0887458
0.0276823
-0.0835588
0.028986
-0.0786741
0.030384
-0.074069
0.0318789
-0.0697375
0.0334783
-0.0656453
0.0351774
-0.0617936
0.0369856
-0.0581636
0.0389007
-0.0547279
0.0409251
-0.0515038
0.0430615
-0.0484583
0.0453143
-0.0455878
0.0476842
-0.0428893
0.0501757
-0.0403444
0.0527946
-0.0379443
0.0555436
-0.0356947
0.058429
-0.0335716
0.0614523
-0.0315762
0.064628
-0.0296971
0.0679532
-0.0279307
0.0714388
-0.0262689
0.075074
-0.0247063
0.0788991
-0.0232364
0.0829027
-0.0218548
0.0870706
-0.020556
0.0914713
-0.019334
0.0959059
-0.445454
0.00177582
-0.419432
0.00171193
-0.394014
0.00163657
-0.370418
0.00156594
-0.348046
0.0101269
-0.32702
0.0106096
-0.307164
0.0111141
-0.288499
0.0116391
-0.270954
0.0121862
-0.254454
0.0127545
-0.238957
0.0133453
-0.224388
0.0139584
-0.210709
0.0145935
-0.197871
0.0152499
-0.185809
0.0159269
-0.174508
0.0166276
-0.163897
0.0173462
-0.153957
0.0180865
-0.144648
0.0188513
-0.135923
0.0196384
-0.127764
0.0204569
-0.120126
0.0213062
-0.112978
0.0221982
-0.106285
0.0231386
-0.100017
0.0241363
-0.0941398
0.0252015
-0.0886229
0.0263438
-0.0834444
0.0275679
-0.0785699
0.0288818
-0.0739759
0.030291
-0.0696556
0.0317969
-0.065574
0.0334069
-0.0617321
0.035116
-0.0581111
0.036933
-0.0546831
0.0388558
-0.0514654
0.0408867
-0.0484254
0.0430286
-0.0455596
0.0452861
-0.0428648
0.0476598
-0.0403229
0.0501542
-0.0379253
0.0527755
-0.0356777
0.0555266
-0.0335562
0.0584136
-0.031562
0.0614381
-0.0296839
0.0646148
-0.0279183
0.0679408
-0.0262571
0.071427
-0.024695
0.0750626
-0.0232254
0.078888
-0.021844
0.0828919
-0.0205454
0.08706
-0.0193232
0.0914605
-0.0181755
0.0958956
-0.445386
0.00179698
-0.41939
0.00173331
-0.39396
0.00165741
-0.370368
0.00158665
-0.348043
0.00156362
-0.32701
0.0101169
-0.307151
0.010597
-0.288485
0.0110995
-0.270937
0.0116218
-0.254434
0.012166
-0.238934
0.0127306
-0.22436
0.0133171
-0.210675
0.013925
-0.197832
0.0145539
-0.185762
0.0152031
-0.174453
0.0158717
-0.163832
0.0165628
-0.153881
0.017271
-0.144562
0.0180001
-0.135825
0.0187535
-0.127656
0.0195297
-0.120007
0.0203385
-0.112852
0.0211801
-0.106154
0.0220671
-0.0998837
0.0230057
-0.0940086
0.0240051
-0.0884966
0.0250752
-0.0833257
0.0262251
-0.0784606
0.0274587
-0.0738776