/*--------------------------------*- C++ -*----------------------------------*\
  =========                 |
  \\      /  F ield         | OpenFOAM: The Open Source CFD Toolbox
   \\    /   O peration     | Website:  https://openfoam.org
    \\  /    A nd           | Version:  7
     \\/     M anipulation  |
\*---------------------------------------------------------------------------*/
FoamFile
{
    version     2.0;
    format      ascii;
    class       volVectorField;
    location    "2000";
    object      U;
}
// * * * * * * * * * * * * * * * * * * * * * * * * * * * * * * * * * * * * * //

dimensions      [0 1 -1 0 0 0 0];

internalField   nonuniform List<vector> 
40920
(
(50.0332 13.1096 0)
(49.9676 13.0375 0)
(50.1456 13.1045 0)
(49.9402 12.9944 0)
(50.0904 13.098 0)
(50.2085 13.0684 0)
(49.918 12.954 0)
(50.0624 13.0834 0)
(50.1534 13.0569 0)
(50.2539 13.0124 0)
(49.904 12.9208 0)
(50.0285 13.0671 0)
(50.1221 13.0425 0)
(50.1858 12.9937 0)
(50.2658 12.9655 0)
(49.8928 12.893 0)
(50.0018 13.0528 0)
(50.083 13.0272 0)
(50.1488 12.9772 0)
(50.1917 12.9499 0)
(50.2658 12.9191 0)
(49.8836 12.8698 0)
(49.977 13.0408 0)
(50.0495 13.0116 0)
(50.1033 12.9612 0)
(50.1538 12.935 0)
(50.1927 12.9046 0)
(50.2693 12.8759 0)
(49.8754 12.8506 0)
(49.9545 13.0314 0)
(50.0172 12.9968 0)
(50.0639 12.9461 0)
(50.1059 12.9207 0)
(50.157 12.8912 0)
(50.2008 12.8633 0)
(50.2805 12.8388 0)
(49.8678 12.8348 0)
(49.9331 13.0244 0)
(49.9871 12.9831 0)
(50.0263 12.9322 0)
(50.0655 12.9074 0)
(50.1113 12.8783 0)
(50.1684 12.8512 0)
(50.2171 12.8289 0)
(50.2977 12.8064 0)
(49.8605 12.822 0)
(49.9126 13.0195 0)
(49.9585 12.9709 0)
(49.9915 12.9199 0)
(50.0271 12.8955 0)
(50.0733 12.8666 0)
(50.1258 12.8399 0)
(50.1869 12.8175 0)
(50.2367 12.7984 0)
(50.3162 12.7767 0)
(49.8534 12.8118 0)
(49.8928 13.0163 0)
(49.9314 12.9601 0)
(49.9591 12.9094 0)
(49.9924 12.885 0)
(50.0372 12.8563 0)
(50.0904 12.8297 0)
(50.1462 12.8072 0)
(50.207 12.7868 0)
(50.2547 12.7697 0)
(50.3319 12.7485 0)
(49.8463 12.8038 0)
(49.8735 13.0148 0)
(49.9058 12.9508 0)
(49.9289 12.901 0)
(49.9605 12.8761 0)
(50.0044 12.8472 0)
(50.0562 12.8206 0)
(50.1116 12.7976 0)
(50.1664 12.7765 0)
(50.2238 12.7575 0)
(50.2682 12.7417 0)
(50.3429 12.7212 0)
(49.8391 12.7977 0)
(49.8547 13.0145 0)
(49.8816 12.9428 0)
(49.9007 12.8946 0)
(49.9312 12.8691 0)
(49.9741 12.8394 0)
(50.0244 12.8125 0)
(50.0774 12.7887 0)
(50.1309 12.7667 0)
(50.1822 12.7466 0)
(50.2359 12.7289 0)
(50.277 12.7144 0)
(50.3496 12.6949 0)
(49.8319 12.7934 0)
(49.8363 13.0155 0)
(49.8588 12.936 0)
(49.8745 12.8899 0)
(49.9042 12.8641 0)
(49.9462 12.8332 0)
(49.9943 12.8056 0)
(50.0449 12.7806 0)
(50.0952 12.7574 0)
(50.1452 12.7361 0)
(50.1928 12.7174 0)
(50.2438 12.7011 0)
(50.2821 12.688 0)
(50.3532 12.6698 0)
(49.8245 12.7906 0)
(49.8185 13.0175 0)
(49.8374 12.9305 0)
(49.8504 12.8868 0)
(49.8791 12.8607 0)
(49.92 12.8287 0)
(49.9657 12.7999 0)
(50.0134 12.7735 0)
(50.0609 12.7487 0)
(50.1077 12.7261 0)
(50.1544 12.706 0)
(50.1993 12.6891 0)
(50.2486 12.6743 0)
(50.2847 12.6629 0)
(50.3548 12.646 0)
(49.8171 12.789 0)
(49.8011 13.0203 0)
(49.8173 12.9263 0)
(49.8281 12.8852 0)
(49.856 12.8586 0)
(49.8953 12.8259 0)
(49.9385 12.7956 0)
(49.9828 12.7675 0)
(50.0273 12.7408 0)
(50.0715 12.7166 0)
(50.1155 12.6953 0)
(50.1601 12.677 0)
(50.2033 12.662 0)
(50.2514 12.649 0)
(50.2858 12.6393 0)
(50.3552 12.6237 0)
(49.8095 12.7886 0)
(49.7845 13.0238 0)
(49.7985 12.9233 0)
(49.8076 12.8852 0)
(49.8346 12.8578 0)
(49.8718 12.8244 0)
(49.9122 12.7926 0)
(49.9531 12.7626 0)
(49.9945 12.7339 0)
(50.036 12.7078 0)
(50.0779 12.6851 0)
(50.1203 12.6656 0)
(50.1636 12.6493 0)
(50.2059 12.6363 0)
(50.2529 12.6252 0)
(50.2862 12.6173 0)
(50.3548 12.6028 0)
(49.8018 12.7891 0)
(49.7685 13.0279 0)
(49.7811 12.9212 0)
(49.7886 12.8866 0)
(49.8148 12.8581 0)
(49.8495 12.824 0)
(49.8868 12.791 0)
(49.9243 12.7589 0)
(49.9622 12.7282 0)
(50.0012 12.7 0)
(50.0409 12.6754 0)
(50.0818 12.6545 0)
(50.1235 12.6371 0)
(50.1661 12.6231 0)
(50.2074 12.6122 0)
(50.2536 12.6029 0)
(50.2859 12.5968 0)
(50.3536 12.5833 0)
(49.794 12.7905 0)
(49.7532 13.0324 0)
(49.765 12.92 0)
(49.7711 12.8893 0)
(49.7964 12.8596 0)
(49.8283 12.8247 0)
(49.862 12.7905 0)
(49.8962 12.7564 0)
(49.9308 12.7237 0)
(49.967 12.6934 0)
(50.0048 12.6666 0)
(50.044 12.6439 0)
(50.0845 12.6253 0)
(50.1258 12.6102 0)
(50.1677 12.5984 0)
(50.2083 12.5897 0)
(50.2539 12.5821 0)
(50.2851 12.5776 0)
(50.352 12.5651 0)
(49.7861 12.7925 0)
(49.7388 13.0373 0)
(49.7502 12.9197 0)
(49.7549 12.893 0)
(49.7791 12.8622 0)
(49.8081 12.8264 0)
(49.8381 12.7911 0)
(49.8687 12.7552 0)
(49.9001 12.7203 0)
(49.9334 12.688 0)
(49.9692 12.659 0)
(50.0069 12.6342 0)
(50.0461 12.6138 0)
(50.0866 12.5975 0)
(50.1275 12.5848 0)
(50.1688 12.5754 0)
(50.2088 12.5686 0)
(50.2536 12.5627 0)
(50.2839 12.5599 0)
(50.3501 12.5482 0)
(49.7782 12.7952 0)
(49.7251 13.0426 0)
(49.7367 12.9201 0)
(49.74 12.8976 0)
(49.7628 12.8658 0)
(49.7889 12.8292 0)
(49.8151 12.7926 0)
(49.8419 12.7551 0)
(49.8701 12.7181 0)
(49.9006 12.6837 0)
(49.9341 12.6526 0)
(49.9703 12.6255 0)
(50.0083 12.603 0)
(50.0478 12.5852 0)
(50.0883 12.5713 0)
(50.1288 12.561 0)
(50.1696 12.5538 0)
(50.209 12.5489 0)
(50.2529 12.5447 0)
(50.2823 12.5434 0)
(50.3478 12.5325 0)
(49.7702 12.7983 0)
(49.7123 13.0481 0)
(49.7242 12.9213 0)
(49.7263 12.9028 0)
(49.7476 12.8699 0)
(49.7704 12.833 0)
(49.7929 12.7951 0)
(49.8159 12.7561 0)
(49.8409 12.7173 0)
(49.8686 12.6806 0)
(49.8997 12.6474 0)
(49.9341 12.618 0)
(49.971 12.5931 0)
(50.0095 12.5733 0)
(50.0493 12.558 0)
(50.0897 12.5466 0)
(50.1297 12.5387 0)
(50.1701 12.5337 0)
(50.2088 12.5306 0)
(50.2519 12.528 0)
(50.2805 12.5282 0)
(50.3454 12.5179 0)
(49.7621 12.8018 0)
(49.7004 13.0537 0)
(49.7128 12.9231 0)
(49.7137 12.9088 0)
(49.7334 12.8747 0)
(49.7527 12.8376 0)
(49.7715 12.7986 0)
(49.7908 12.7581 0)
(49.8123 12.7177 0)
(49.8373 12.6789 0)
(49.8659 12.6433 0)
(49.8983 12.6117 0)
(49.9339 12.5844 0)
(49.9716 12.5621 0)
(50.0107 12.545 0)
(50.0507 12.5323 0)
(50.0909 12.5234 0)
(50.1305 12.518 0)
(50.1704 12.5149 0)
(50.2084 12.5136 0)
(50.2506 12.5125 0)
(50.2785 12.514 0)
(50.3427 12.5044 0)
(49.754 12.8056 0)
(49.6893 13.0594 0)
(49.7024 12.9254 0)
(49.7021 12.9153 0)
(49.72 12.8799 0)
(49.7359 12.8429 0)
(49.751 12.803 0)
(49.7666 12.7612 0)
(49.7847 12.7193 0)
(49.8067 12.6785 0)
(49.8328 12.6405 0)
(49.863 12.6064 0)
(49.897 12.5768 0)
(49.9338 12.552 0)
(49.9723 12.5325 0)
(50.0119 12.5182 0)
(50.0521 12.5081 0)
(50.092 12.5018 0)
(50.1312 12.4986 0)
(50.1706 12.4975 0)
(50.2077 12.4979 0)
(50.2492 12.4982 0)
(50.2765 12.5009 0)
(50.3399 12.4918 0)
(49.7459 12.8096 0)
(49.6792 13.0652 0)
(49.693 12.9281 0)
(49.6914 12.9222 0)
(49.7075 12.8855 0)
(49.7199 12.8487 0)
(49.7314 12.8081 0)
(49.7434 12.7653 0)
(49.758 12.7219 0)
(49.7768 12.6794 0)
(49.8003 12.6391 0)
(49.8283 12.6024 0)
(49.8604 12.5703 0)
(49.896 12.543 0)
(49.934 12.521 0)
(49.9733 12.5045 0)
(50.0134 12.4929 0)
(50.0535 12.4855 0)
(50.093 12.4817 0)
(50.1318 12.4807 0)
(50.1706 12.4813 0)
(50.2068 12.4833 0)
(50.2478 12.4849 0)
(50.2744 12.4888 0)
(50.337 12.4801 0)
(49.7377 12.8139 0)
(49.6699 13.071 0)
(49.6843 12.9313 0)
(49.6816 12.9293 0)
(49.6957 12.8915 0)
(49.7046 12.855 0)
(49.7126 12.8139 0)
(49.7211 12.7703 0)
(49.7323 12.7257 0)
(49.7478 12.6816 0)
(49.7684 12.6392 0)
(49.794 12.5998 0)
(49.8242 12.5649 0)
(49.8583 12.5351 0)
(49.8955 12.5104 0)
(49.9346 12.4914 0)
(49.9745 12.4779 0)
(50.015 12.4691 0)
(50.0549 12.4644 0)
(50.094 12.463 0)
(50.1324 12.464 0)
(50.1704 12.4664 0)
(50.2059 12.4699 0)
(50.2463 12.4727 0)
(50.2721 12.4776 0)
(50.334 12.4693 0)
(49.7296 12.8182 0)
(49.6615 13.0767 0)
(49.6764 12.9348 0)
(49.6725 12.9367 0)
(49.6847 12.8978 0)
(49.6903 12.8617 0)
(49.6948 12.8203 0)
(49.6997 12.7761 0)
(49.7076 12.7305 0)
(49.7198 12.6848 0)
(49.7373 12.6405 0)
(49.7603 12.5988 0)
(49.7884 12.561 0)
(49.8208 12.5282 0)
(49.857 12.501 0)
(49.8956 12.4793 0)
(49.9356 12.4634 0)
(49.9762 12.4529 0)
(50.0167 12.4469 0)
(50.0563 12.4448 0)
(50.0951 12.4456 0)
(50.1329 12.4485 0)
(50.1702 12.4526 0)
(50.2049 12.4575 0)
(50.2448 12.4613 0)
(50.2699 12.4672 0)
(50.3311 12.4593 0)
(49.7215 12.8227 0)
(49.6539 13.0824 0)
(49.6692 12.9386 0)
(49.6641 12.9442 0)
(49.6743 12.9043 0)
(49.6766 12.8688 0)
(49.6779 12.8271 0)
(49.6794 12.7827 0)
(49.6839 12.7362 0)
(49.6928 12.6892 0)
(49.7071 12.6431 0)
(49.7271 12.5991 0)
(49.7529 12.5586 0)
(49.7835 12.5227 0)
(49.8184 12.4926 0)
(49.8564 12.4682 0)
(49.8964 12.4496 0)
(49.9372 12.4369 0)
(49.9782 12.4294 0)
(50.0186 12.4262 0)
(50.0579 12.4266 0)
(50.0963 12.4295 0)
(50.1334 12.4342 0)
(50.1699 12.4399 0)
(50.204 12.4461 0)
(50.2432 12.4508 0)
(50.2675 12.4577 0)
(50.3282 12.4499 0)
(49.7135 12.8272 0)
(49.6471 13.0879 0)
(49.6626 12.9427 0)
(49.6565 12.9517 0)
(49.6646 12.9109 0)
(49.6638 12.8762 0)
(49.6619 12.8344 0)
(49.6601 12.7898 0)
(49.6612 12.7428 0)
(49.6667 12.6947 0)
(49.6777 12.6469 0)
(49.6947 12.6008 0)
(49.7178 12.5577 0)
(49.7464 12.5188 0)
(49.7798 12.4854 0)
(49.8169 12.4581 0)
(49.8567 12.4368 0)
(49.8978 12.4216 0)
(49.9393 12.412 0)
(49.9805 12.4074 0)
(50.0206 12.4069 0)
(50.0595 12.4097 0)
(50.0975 12.4146 0)
(50.1338 12.421 0)
(50.1695 12.4281 0)
(50.203 12.4355 0)
(50.2416 12.441 0)
(50.2652 12.4489 0)
(50.3253 12.4413 0)
(49.7054 12.8317 0)
(49.6411 13.0933 0)
(49.6566 12.9468 0)
(49.6494 12.9592 0)
(49.6555 12.9175 0)
(49.6518 12.8838 0)
(49.6469 12.8421 0)
(49.6419 12.7976 0)
(49.6396 12.7502 0)
(49.6417 12.7012 0)
(49.6493 12.6519 0)
(49.6631 12.6038 0)
(49.6833 12.5583 0)
(49.7096 12.5165 0)
(49.7412 12.4797 0)
(49.7773 12.4491 0)
(49.8166 12.4249 0)
(49.8578 12.4069 0)
(49.8998 12.3951 0)
(49.9418 12.3887 0)
(49.983 12.387 0)
(50.0228 12.3891 0)
(50.0613 12.3941 0)
(50.0986 12.4008 0)
(50.1341 12.4089 0)
(50.1692 12.4173 0)
(50.2021 12.4257 0)
(50.24 12.432 0)
(50.2629 12.4408 0)
(50.3225 12.4333 0)
(49.6974 12.8362 0)
(49.6359 13.0984 0)
(49.651 12.9512 0)
(49.6429 12.9666 0)
(49.647 12.9242 0)
(49.6405 12.8915 0)
(49.6328 12.8501 0)
(49.6247 12.8057 0)
(49.6192 12.7582 0)
(49.6178 12.7086 0)
(49.6219 12.6581 0)
(49.6324 12.6082 0)
(49.6494 12.5602 0)
(49.6731 12.5156 0)
(49.7028 12.4757 0)
(49.7374 12.4416 0)
(49.776 12.4141 0)
(49.8172 12.3932 0)
(49.8597 12.3787 0)
(49.9025 12.3702 0)
(49.9448 12.3669 0)
(49.9857 12.368 0)
(50.0251 12.3726 0)
(50.0632 12.3796 0)
(50.0997 12.3882 0)
(50.1344 12.3977 0)
(50.1689 12.4073 0)
(50.2011 12.4167 0)
(50.2384 12.4238 0)
(50.2607 12.4333 0)
(50.3198 12.4258 0)
(49.6895 12.8406 0)
(49.6313 13.1034 0)
(49.6458 12.9556 0)
(49.637 12.9739 0)
(49.6391 12.9309 0)
(49.6299 12.8993 0)
(49.6196 12.8582 0)
(49.6085 12.8143 0)
(49.5998 12.7668 0)
(49.595 12.7168 0)
(49.5956 12.6654 0)
(49.6026 12.6138 0)
(49.6163 12.5636 0)
(49.6371 12.5163 0)
(49.6644 12.4733 0)
(49.6975 12.4357 0)
(49.7351 12.4046 0)
(49.776 12.3804 0)
(49.8189 12.363 0)
(49.8624 12.3521 0)
(49.9057 12.3469 0)
(49.948 12.3466 0)
(49.9885 12.3505 0)
(50.0276 12.3574 0)
(50.065 12.3663 0)
(50.1007 12.3765 0)
(50.1347 12.3875 0)
(50.1687 12.3981 0)
(50.2002 12.4084 0)
(50.2368 12.4161 0)
(50.2585 12.4264 0)
(50.3171 12.4189 0)
(49.6816 12.8451 0)
(49.6275 13.1082 0)
(49.641 12.96 0)
(49.6315 12.981 0)
(49.6317 12.9375 0)
(49.6201 12.9072 0)
(49.6072 12.8665 0)
(49.5933 12.8231 0)
(49.5815 12.7758 0)
(49.5734 12.7257 0)
(49.5705 12.6736 0)
(49.5738 12.6207 0)
(49.5841 12.5685 0)
(49.6017 12.5185 0)
(49.6263 12.4725 0)
(49.6574 12.4315 0)
(49.6938 12.3967 0)
(49.7343 12.3689 0)
(49.7773 12.3482 0)
(49.8215 12.3345 0)
(49.8658 12.3271 0)
(49.9095 12.3251 0)
(49.9515 12.3278 0)
(49.9916 12.3343 0)
(50.0302 12.3433 0)
(50.0668 12.354 0)
(50.1016 12.3658 0)
(50.135 12.378 0)
(50.1685 12.3896 0)
(50.1991 12.4008 0)
(50.2352 12.409 0)
(50.2564 12.42 0)
(50.3145 12.4125 0)
(49.6738 12.8495 0)
(49.6242 13.1128 0)
(49.6366 12.9645 0)
(49.6265 12.9879 0)
(49.6248 12.9441 0)
(49.6109 12.915 0)
(49.5957 12.8749 0)
(49.5791 12.8322 0)
(49.5643 12.7853 0)
(49.5529 12.7352 0)
(49.5464 12.6826 0)
(49.5461 12.6287 0)
(49.5528 12.5747 0)
(49.567 12.5223 0)
(49.5887 12.4732 0)
(49.6175 12.4289 0)
(49.6523 12.3904 0)
(49.6919 12.3588 0)
(49.7349 12.3346 0)
(49.7796 12.3177 0)
(49.8249 12.3077 0)
(49.8699 12.3037 0)
(49.9135 12.3049 0)
(49.9551 12.3104 0)
(49.9948 12.3193 0)
(50.0328 12.3303 0)
(50.0685 12.3427 0)
(50.1026 12.3559 0)
(50.1354 12.3693 0)
(50.1682 12.3817 0)
(50.198 12.3937 0)
(50.2337 12.4025 0)
(50.2544 12.4141 0)
(50.312 12.4066 0)
(49.6661 12.8537 0)
(49.6216 13.1171 0)
(49.6324 12.9691 0)
(49.622 12.9946 0)
(49.6184 12.9506 0)
(49.6024 12.9228 0)
(49.585 12.8833 0)
(49.5658 12.8415 0)
(49.5482 12.795 0)
(49.5336 12.7452 0)
(49.5236 12.6924 0)
(49.5195 12.6376 0)
(49.5225 12.5823 0)
(49.5331 12.5277 0)
(49.5516 12.4757 0)
(49.5777 12.428 0)
(49.6106 12.3858 0)
(49.649 12.3503 0)
(49.6916 12.3222 0)
(49.7368 12.3018 0)
(49.783 12.2888 0)
(49.8292 12.2825 0)
(49.8744 12.2819 0)
(49.9178 12.2861 0)
(49.959 12.2944 0)
(49.9982 12.3055 0)
(50.0353 12.3184 0)
(50.0702 12.3324 0)
(50.1037 12.3469 0)
(50.1358 12.3612 0)
(50.1678 12.3745 0)
(50.197 12.3872 0)
(50.2323 12.3964 0)
(50.2524 12.4087 0)
(50.3096 12.401 0)
(49.6584 12.8579 0)
(49.6195 13.1212 0)
(49.6285 12.9737 0)
(49.6179 13.001 0)
(49.6124 12.957 0)
(49.5945 12.9305 0)
(49.575 12.8917 0)
(49.5535 12.8508 0)
(49.5331 12.8051 0)
(49.5154 12.7556 0)
(49.502 12.7028 0)
(49.4942 12.6475 0)
(49.4933 12.591 0)
(49.5002 12.5346 0)
(49.5152 12.4799 0)
(49.5383 12.4288 0)
(49.5688 12.383 0)
(49.6058 12.3436 0)
(49.6477 12.3115 0)
(49.6929 12.2872 0)
(49.7399 12.2707 0)
(49.7873 12.2616 0)
(49.8341 12.2589 0)
(49.8794 12.2616 0)
(49.9223 12.2689 0)
(49.963 12.2796 0)
(50.0016 12.2928 0)
(50.0378 12.3074 0)
(50.0719 12.3229 0)
(50.1047 12.3385 0)
(50.1361 12.3538 0)
(50.1674 12.3678 0)
(50.196 12.3812 0)
(50.2309 12.3908 0)
(50.2505 12.4036 0)
(50.3072 12.3959 0)
(49.6508 12.8619 0)
(49.6179 13.1249 0)
(49.6248 12.9782 0)
(49.6141 13.0072 0)
(49.6069 12.9632 0)
(49.5873 12.9381 0)
(49.5658 12.9001 0)
(49.542 12.8602 0)
(49.5191 12.8152 0)
(49.4984 12.7664 0)
(49.4816 12.7138 0)
(49.4701 12.6582 0)
(49.4654 12.6008 0)
(49.4683 12.5428 0)
(49.4796 12.4858 0)
(49.4994 12.4316 0)
(49.5272 12.382 0)
(49.5622 12.3386 0)
(49.603 12.3024 0)
(49.6481 12.274 0)
(49.6957 12.2537 0)
(49.7442 12.2414 0)
(49.7925 12.2362 0)
(49.8396 12.237 0)
(49.8846 12.2429 0)
(49.927 12.2529 0)
(49.9672 12.266 0)
(50.0049 12.2811 0)
(50.0402 12.2973 0)
(50.0736 12.3142 0)
(50.1057 12.3308 0)
(50.1364 12.347 0)
(50.167 12.3617 0)
(50.1951 12.3757 0)
(50.2296 12.3856 0)
(50.2486 12.399 0)
(50.305 12.3911 0)
(49.6433 12.8659 0)
(49.6167 13.1284 0)
(49.6213 12.9827 0)
(49.6107 13.0132 0)
(49.6018 12.9694 0)
(49.5805 12.9455 0)
(49.5573 12.9084 0)
(49.5314 12.8696 0)
(49.506 12.8255 0)
(49.4824 12.7774 0)
(49.4623 12.7252 0)
(49.4473 12.6696 0)
(49.4386 12.6116 0)
(49.4376 12.5522 0)
(49.4449 12.4932 0)
(49.4611 12.4362 0)
(49.4859 12.383 0)
(49.5185 12.3355 0)
(49.5578 12.295 0)
(49.6023 12.2624 0)
(49.6502 12.2381 0)
(49.6998 12.222 0)
(49.7495 12.2137 0)
(49.7984 12.2124 0)
(49.8454 12.2166 0)
(49.89 12.2256 0)
(49.9319 12.2382 0)
(49.9713 12.2535 0)
(50.0081 12.2704 0)
(50.0426 12.2881 0)
(50.0753 12.3061 0)
(50.1067 12.3238 0)
(50.1365 12.3407 0)
(50.1666 12.356 0)
(50.1942 12.3706 0)
(50.2284 12.3808 0)
(50.2468 12.3947 0)
(50.3028 12.3867 0)
(49.6358 12.8698 0)
(49.616 13.1316 0)
(49.6179 12.9871 0)
(49.6076 13.0189 0)
(49.597 12.9754 0)
(49.5744 12.9527 0)
(49.5494 12.9165 0)
(49.5215 12.8789 0)
(49.4938 12.8358 0)
(49.4675 12.7886 0)
(49.4443 12.737 0)
(49.4257 12.6816 0)
(49.4132 12.6232 0)
(49.4081 12.5629 0)
(49.4113 12.5021 0)
(49.4236 12.4425 0)
(49.4449 12.386 0)
(49.4748 12.3345 0)
(49.5122 12.2896 0)
(49.5557 12.2526 0)
(49.6035 12.2239 0)
(49.6538 12.2038 0)
(49.705 12.192 0)
(49.7557 12.1879 0)
(49.8048 12.1902 0)
(49.8516 12.1978 0)
(49.8957 12.2097 0)
(49.9369 12.2247 0)
(49.9753 12.242 0)
(50.0112 12.2605 0)
(50.045 12.2796 0)
(50.0769 12.2987 0)
(50.1075 12.3173 0)
(50.1367 12.3349 0)
(50.1663 12.3508 0)
(50.1934 12.3659 0)
(50.2271 12.3763 0)
(50.2451 12.3907 0)
(50.3007 12.3826 0)
(49.6285 12.8735 0)
(49.6157 13.1346 0)
(49.6148 12.9914 0)
(49.6048 13.0243 0)
(49.5926 12.9812 0)
(49.5687 12.9598 0)
(49.5422 12.9245 0)
(49.5124 12.8881 0)
(49.4826 12.8461 0)
(49.4537 12.7999 0)
(49.4275 12.7491 0)
(49.4054 12.6941 0)
(49.3891 12.6357 0)
(49.3798 12.5746 0)
(49.3789 12.5123 0)
(49.387 12.4505 0)
(49.4046 12.391 0)
(49.4313 12.3356 0)
(49.4664 12.2863 0)
(49.5084 12.2446 0)
(49.5557 12.2114 0)
(49.6065 12.187 0)
(49.6589 12.1713 0)
(49.7114 12.1639 0)
(49.7626 12.1637 0)
(49.8116 12.1697 0)
(49.858 12.1804 0)
(49.9014 12.195 0)
(49.9418 12.2124 0)
(49.9793 12.2315 0)
(50.0144 12.2515 0)
(50.0474 12.2719 0)
(50.0784 12.292 0)
(50.1083 12.3113 0)
(50.1369 12.3296 0)
(50.1661 12.346 0)
(50.1925 12.3615 0)
(50.2259 12.3722 0)
(50.2434 12.387 0)
(50.2988 12.3788 0)
(49.6212 12.8772 0)
(49.6158 13.1373 0)
(49.6118 12.9958 0)
(49.6023 13.0294 0)
(49.5885 12.9869 0)
(49.5635 12.9667 0)
(49.5355 12.9323 0)
(49.5041 12.8971 0)
(49.4722 12.8562 0)
(49.4409 12.8111 0)
(49.4118 12.7613 0)
(49.3864 12.707 0)
(49.3663 12.6488 0)
(49.353 12.5873 0)
(49.3477 12.5239 0)
(49.3515 12.4601 0)
(49.365 12.3977 0)
(49.3882 12.3388 0)
(49.4204 12.2852 0)
(49.4605 12.2387 0)
(49.507 12.2007 0)
(49.5578 12.1717 0)
(49.6112 12.1518 0)
(49.6653 12.1406 0)
(49.7186 12.1375 0)
(49.77 12.1413 0)
(49.8188 12.1507 0)
(49.8647 12.1644 0)
(49.9072 12.1815 0)
(49.9466 12.201 0)
(49.9833 12.2218 0)
(50.0175 12.2433 0)
(50.0496 12.2647 0)
(50.0798 12.2858 0)
(50.109 12.3058 0)
(50.1371 12.3247 0)
(50.1658 12.3415 0)
(50.1917 12.3575 0)
(50.2247 12.3683 0)
(50.2419 12.3836 0)
(50.2969 12.3753 0)
(49.614 12.8807 0)
(49.6162 13.1397 0)
(49.609 13 0)
(49.6001 13.0342 0)
(49.5848 12.9924 0)
(49.5587 12.9734 0)
(49.5293 12.94 0)
(49.4964 12.906 0)
(49.4626 12.8663 0)
(49.429 12.8224 0)
(49.3972 12.7736 0)
(49.3686 12.7202 0)
(49.3449 12.6624 0)
(49.3275 12.6009 0)
(49.3179 12.5367 0)
(49.3172 12.4712 0)
(49.3264 12.4063 0)
(49.3456 12.3441 0)
(49.3746 12.2864 0)
(49.4123 12.2352 0)
(49.4573 12.1921 0)
(49.5079 12.1581 0)
(49.5618 12.1337 0)
(49.6173 12.1184 0)
(49.6727 12.1118 0)
(49.7265 12.1129 0)
(49.7778 12.1205 0)
(49.8263 12.1332 0)
(49.8714 12.1497 0)
(49.9129 12.1692 0)
(49.9514 12.1906 0)
(49.9872 12.213 0)
(50.0205 12.2357 0)
(50.0517 12.2582 0)
(50.0812 12.2801 0)
(50.1098 12.3007 0)
(50.1373 12.3202 0)
(50.1655 12.3374 0)
(50.1908 12.3537 0)
(50.2236 12.3648 0)
(50.2404 12.3804 0)
(50.2951 12.372 0)
(49.607 12.884 0)
(49.6168 13.1418 0)
(49.6062 13.0042 0)
(49.5981 13.0388 0)
(49.5813 12.9977 0)
(49.5543 12.9798 0)
(49.5237 12.9474 0)
(49.4893 12.9147 0)
(49.4537 12.8762 0)
(49.418 12.8336 0)
(49.3836 12.786 0)
(49.352 12.7335 0)
(49.3248 12.6764 0)
(49.3034 12.6151 0)
(49.2895 12.5505 0)
(49.2843 12.4838 0)
(49.2889 12.4167 0)
(49.3038 12.3513 0)
(49.329 12.2897 0)
(49.3639 12.234 0)
(49.407 12.1858 0)
(49.4567 12.1466 0)
(49.5109 12.1171 0)
(49.5675 12.0974 0)
(49.6248 12.0869 0)
(49.6811 12.0848 0)
(49.735 12.0901 0)
(49.7861 12.1013 0)
(49.8339 12.117 0)
(49.878 12.1362 0)
(49.9185 12.1579 0)
(49.9561 12.1811 0)
(49.991 12.2049 0)
(50.0234 12.2288 0)
(50.0537 12.2522 0)
(50.0825 12.2748 0)
(50.1106 12.2961 0)
(50.1374 12.316 0)
(50.1651 12.3336 0)
(50.19 12.3503 0)
(50.2226 12.3615 0)
(50.239 12.3775 0)
(50.2934 12.369 0)
(49.6 12.8873 0)
(49.6177 13.1437 0)
(49.6036 13.0084 0)
(49.5963 13.0431 0)
(49.5781 13.0029 0)
(49.5503 12.986 0)
(49.5185 12.9547 0)
(49.4828 12.9232 0)
(49.4456 12.8859 0)
(49.4079 12.8446 0)
(49.3711 12.7983 0)
(49.3366 12.747 0)
(49.306 12.6908 0)
(49.2808 12.6299 0)
(49.2625 12.5652 0)
(49.2527 12.4976 0)
(49.2526 12.4288 0)
(49.2629 12.3606 0)
(49.284 12.2953 0)
(49.3155 12.2351 0)
(49.3562 12.1819 0)
(49.4045 12.1373 0)
(49.4585 12.1025 0)
(49.5159 12.0779 0)
(49.5748 12.0631 0)
(49.6334 12.0573 0)
(49.6901 12.0597 0)
(49.7439 12.0689 0)
(49.7946 12.0836 0)
(49.8415 12.1022 0)
(49.8845 12.1239 0)
(49.9241 12.1476 0)
(49.9608 12.1724 0)
(49.9947 12.1975 0)
(50.026 12.2224 0)
(50.0556 12.2467 0)
(50.0838 12.27 0)
(50.1113 12.2918 0)
(50.1375 12.3121 0)
(50.1648 12.33 0)
(50.1893 12.3471 0)
(50.2216 12.3584 0)
(50.2376 12.3748 0)
(50.2918 12.3662 0)
(49.5931 12.8904 0)
(49.6189 13.1453 0)
(49.6012 13.0124 0)
(49.5947 13.0472 0)
(49.5751 13.0079 0)
(49.5466 12.992 0)
(49.5138 12.9617 0)
(49.4768 12.9314 0)
(49.4381 12.8955 0)
(49.3985 12.8555 0)
(49.3595 12.8105 0)
(49.3224 12.7605 0)
(49.2885 12.7053 0)
(49.2595 12.6452 0)
(49.2371 12.5806 0)
(49.2226 12.5126 0)
(49.2177 12.4424 0)
(49.2232 12.3719 0)
(49.2398 12.3032 0)
(49.2673 12.2387 0)
(49.305 12.1805 0)
(49.3514 12.1305 0)
(49.4047 12.0901 0)
(49.4625 12.06 0)
(49.5227 12.0404 0)
(49.5835 12.0306 0)
(49.643 12.0296 0)
(49.6997 12.0364 0)
(49.7532 12.0494 0)
(49.8032 12.0672 0)
(49.849 12.0887 0)
(49.891 12.1127 0)
(49.9297 12.1382 0)
(49.9654 12.1644 0)
(49.9981 12.1907 0)
(50.0286 12.2166 0)
(50.0575 12.2417 0)
(50.0851 12.2655 0)
(50.1119 12.2878 0)
(50.1376 12.3086 0)
(50.1645 12.3268 0)
(50.1886 12.3441 0)
(50.2207 12.3556 0)
(50.2363 12.3722 0)
(50.2903 12.3636 0)
(49.5861 12.8935 0)
(49.6203 13.1466 0)
(49.5988 13.0164 0)
(49.5933 13.0511 0)
(49.5724 13.0127 0)
(49.5433 12.9978 0)
(49.5094 12.9685 0)
(49.4713 12.9394 0)
(49.4313 12.9048 0)
(49.39 12.8662 0)
(49.3489 12.8226 0)
(49.3092 12.7739 0)
(49.2723 12.7199 0)
(49.2397 12.6608 0)
(49.2131 12.5967 0)
(49.1941 12.5285 0)
(49.1842 12.4573 0)
(49.1847 12.3849 0)
(49.1965 12.3132 0)
(49.2197 12.2447 0)
(49.2538 12.1817 0)
(49.2977 12.1262 0)
(49.3497 12.0801 0)
(49.4075 12.0443 0)
(49.4686 12.0194 0)
(49.5312 12.005 0)
(49.5933 12.0002 0)
(49.6531 12.0039 0)
(49.7098 12.0148 0)
(49.7628 12.0314 0)
(49.8118 12.0523 0)
(49.8565 12.0763 0)
(49.8974 12.1024 0)
(49.9351 12.1296 0)
(49.9697 12.1571 0)
(50.0014 12.1845 0)
(50.0311 12.2113 0)
(50.0594 12.237 0)
(50.0863 12.2614 0)
(50.1124 12.2841 0)
(50.1377 12.3053 0)
(50.1642 12.3237 0)
(50.188 12.3413 0)
(50.2198 12.353 0)
(50.2351 12.3698 0)
(50.2888 12.3612 0)
(49.5795 12.8964 0)
(49.622 13.1478 0)
(49.5966 13.0203 0)
(49.5921 13.0547 0)
(49.5699 13.0174 0)
(49.5402 13.0034 0)
(49.5054 12.975 0)
(49.4663 12.9472 0)
(49.425 12.9138 0)
(49.3821 12.8766 0)
(49.3391 12.8344 0)
(49.297 12.7872 0)
(49.2572 12.7346 0)
(49.2212 12.6766 0)
(49.1906 12.6133 0)
(49.1671 12.5452 0)
(49.1523 12.4735 0)
(49.1477 12.3996 0)
(49.1544 12.3254 0)
(49.1728 12.2532 0)
(49.2029 12.1855 0)
(49.2437 12.1246 0)
(49.2937 12.0727 0)
(49.3508 12.0309 0)
(49.4126 12.0002 0)
(49.4767 11.9806 0)
(49.5412 11.9715 0)
(49.6041 11.9717 0)
(49.6639 11.98 0)
(49.7202 11.9949 0)
(49.7725 12.0149 0)
(49.8203 12.0386 0)
(49.8638 12.065 0)
(49.9038 12.093 0)
(49.9404 12.1217 0)
(49.9737 12.1505 0)
(50.0045 12.1789 0)
(50.0336 12.2064 0)
(50.0611 12.2327 0)
(50.0873 12.2577 0)
(50.1129 12.2808 0)
(50.1377 12.3022 0)
(50.164 12.3209 0)
(50.1873 12.3388 0)
(50.2189 12.3505 0)
(50.2339 12.3676 0)
(50.2874 12.359 0)
(49.5737 12.8992 0)
(49.6237 13.1486 0)
(49.5944 13.0241 0)
(49.591 13.0581 0)
(49.5676 13.0219 0)
(49.5374 13.0087 0)
(49.5018 12.9814 0)
(49.4618 12.9547 0)
(49.4193 12.9225 0)
(49.375 12.8868 0)
(49.3301 12.8461 0)
(49.2858 12.8004 0)
(49.2433 12.7493 0)
(49.2041 12.6925 0)
(49.1697 12.6302 0)
(49.1418 12.5627 0)
(49.1221 12.4908 0)
(49.1122 12.4158 0)
(49.1135 12.3395 0)
(49.1269 12.264 0)
(49.1524 12.192 0)
(49.1895 12.1259 0)
(49.2368 12.068 0)
(49.2927 12.0201 0)
(49.3545 11.9833 0)
(49.4198 11.958 0)
(49.4864 11.9439 0)
(49.5522 11.9401 0)
(49.6155 11.9452 0)
(49.6752 11.9579 0)
(49.7309 11.9765 0)
(49.782 11.9997 0)
(49.8286 12.0262 0)
(49.8711 12.0547 0)
(49.91 12.0844 0)
(49.9453 12.1145 0)
(49.9776 12.1444 0)
(50.0076 12.1737 0)
(50.036 12.2019 0)
(50.0627 12.2288 0)
(50.0883 12.2542 0)
(50.1134 12.2777 0)
(50.1378 12.2994 0)
(50.1637 12.3183 0)
(50.1867 12.3364 0)
(50.2181 12.3483 0)
(50.2328 12.3655 0)
(50.2861 12.3569 0)
(49.5675 12.9019 0)
(49.6251 13.1493 0)
(49.5924 13.0279 0)
(49.59 13.0613 0)
(49.5655 13.0262 0)
(49.5349 13.0139 0)
(49.4985 12.9875 0)
(49.4576 12.962 0)
(49.414 12.931 0)
(49.3684 12.8967 0)
(49.3219 12.8575 0)
(49.2755 12.8134 0)
(49.2306 12.7638 0)
(49.1883 12.7085 0)
(49.1502 12.6474 0)
(49.118 12.5807 0)
(49.0935 12.509 0)
(49.0784 12.4333 0)
(49.0742 12.3553 0)
(49.0821 12.2771 0)
(49.1026 12.2011 0)
(49.1354 12.13 0)
(49.1795 12.0662 0)
(49.2334 12.0121 0)
(49.2947 11.9688 0)
(49.3607 11.9374 0)
(49.4291 11.9178 0)
(49.4976 11.9093 0)
(49.5642 11.9107 0)
(49.6275 11.9207 0)
(49.6868 11.9375 0)
(49.7416 11.9597 0)
(49.7915 11.9859 0)
(49.8369 12.0148 0)
(49.8783 12.0453 0)
(49.9159 12.0765 0)
(49.95 12.1079 0)
(49.9813 12.1389 0)
(50.0107 12.169 0)
(50.0382 12.1978 0)
(50.0642 12.2252 0)
(50.0892 12.251 0)
(50.1139 12.2748 0)
(50.1379 12.2968 0)
(50.1635 12.3159 0)
(50.1861 12.3342 0)
(50.2174 12.3462 0)
(50.2317 12.3636 0)
(50.2848 12.355 0)
(49.5624 12.9035 -1.0027e-20)
(49.6269 13.1498 0)
(49.5907 13.0316 0)
(49.5892 13.0643 0)
(49.5636 13.0304 0)
(49.5326 13.0188 0)
(49.4954 12.9933 0)
(49.4538 12.969 0)
(49.4092 12.9393 0)
(49.3624 12.9063 0)
(49.3144 12.8686 0)
(49.2661 12.8261 0)
(49.2188 12.7782 0)
(49.1736 12.7244 0)
(49.1321 12.6647 0)
(49.0958 12.5991 0)
(49.0666 12.5279 0)
(49.0463 12.452 0)
(49.0366 12.3728 0)
(49.0387 12.2923 0)
(49.0537 12.2128 0)
(49.0817 12.137 0)
(49.122 12.0676 0)
(49.1732 12.007 0)
(49.2332 11.9572 0)
(49.2994 11.9192 0)
(49.3692 11.8935 0)
(49.4401 11.8797 0)
(49.51 11.8768 0)
(49.5769 11.8834 0)
(49.64 11.8979 0)
(49.6986 11.9187 0)
(49.7522 11.9443 0)
(49.8008 11.9733 0)
(49.8451 12.0044 0)
(49.8853 12.0367 0)
(49.9215 12.0694 0)
(49.9545 12.102 0)
(49.985 12.1338 0)
(50.0136 12.1646 0)
(50.0402 12.194 0)
(50.0656 12.2219 0)
(50.09 12.2481 0)
(50.1144 12.2721 0)
(50.138 12.2944 0)
(50.1632 12.3137 0)
(50.1855 12.3321 0)
(50.2166 12.3442 0)
(50.2307 12.3617 0)
(50.2836 12.3533 0)
(49.5605 12.904 1.90448e-20)
(49.629 13.15 -2.16764e-21)
(49.5889 13.0352 0)
(49.5883 13.0671 0)
(49.5618 13.0344 0)
(49.5305 13.0235 0)
(49.4926 12.999 0)
(49.4503 12.9757 0)
(49.4049 12.9472 0)
(49.3569 12.9156 0)
(49.3075 12.8794 0)
(49.2575 12.8385 0)
(49.208 12.7923 0)
(49.1602 12.7403 0)
(49.1154 12.6821 0)
(49.0752 12.6178 0)
(49.0415 12.5475 0)
(49.016 12.4717 0)
(49.0006 12.3918 0)
(48.997 12.3095 0)
(49.0062 12.227 0)
(49.0288 12.1469 0)
(49.0646 12.072 0)
(49.1124 12.0051 0)
(49.1704 11.9485 0)
(49.2361 11.9036 0)
(49.3068 11.8714 0)
(49.3798 11.8517 0)
(49.4526 11.8438 0)
(49.5232 11.8465 0)
(49.5903 11.8581 0)
(49.6529 11.877 0)
(49.7104 11.9015 0)
(49.7626 11.9302 0)
(49.81 11.9617 0)
(49.8531 11.9949 0)
(49.8919 12.0288 0)
(49.9268 12.0629 0)
(49.9589 12.0965 0)
(49.9886 12.1292 0)
(50.0162 12.1606 0)
(50.0421 12.1906 0)
(50.0669 12.2189 0)
(50.0909 12.2453 0)
(50.1148 12.2697 0)
(50.138 12.2922 0)
(50.163 12.3116 0)
(50.185 12.3302 0)
(50.2159 12.3424 0)
(50.2298 12.36 0)
(50.2825 12.3517 0)
(49.5586 12.9045 -4.64632e-20)
(49.6299 13.15 6.1322e-21)
(49.5875 13.0373 -6.92728e-21)
(49.5876 13.0697 0)
(49.5602 13.0383 0)
(49.5285 13.028 0)
(49.4901 13.0044 0)
(49.4471 12.9822 0)
(49.4009 12.9549 0)
(49.3519 12.9246 0)
(49.3013 12.8899 0)
(49.2497 12.8506 0)
(49.1982 12.8061 0)
(49.1479 12.7559 0)
(49.1 12.6994 0)
(49.0561 12.6366 0)
(49.018 12.5674 0)
(48.9875 12.4923 0)
(48.9666 12.4121 0)
(48.9569 12.3285 0)
(48.9601 12.2434 0)
(48.9769 12.1595 0)
(49.0075 12.0796 0)
(49.0512 12.0066 0)
(49.1065 11.9431 0)
(49.171 11.891 0)
(49.2419 11.8518 0)
(49.3165 11.8256 0)
(49.3921 11.812 0)
(49.4663 11.8101 0)
(49.5373 11.8182 0)
(49.6041 11.8347 0)
(49.6658 11.8577 0)
(49.722 11.8858 0)
(49.7729 11.9174 0)
(49.8192 11.9512 0)
(49.8608 11.9862 0)
(49.8981 12.0217 0)
(49.932 12.057 0)
(49.9632 12.0915 0)
(49.992 12.1249 0)
(50.0187 12.157 0)
(50.0439 12.1874 0)
(50.0682 12.216 0)
(50.0917 12.2428 0)
(50.1152 12.2674 0)
(50.1381 12.2901 0)
(50.1628 12.3097 0)
(50.1845 12.3284 0)
(50.2152 12.3407 0)
(50.2289 12.3584 0)
(50.2814 12.3502 0)
(49.5566 12.9049 2.91474e-20)
(49.6308 13.1499 -2.44835e-22)
(49.5869 13.038 1.8232e-20)
(49.5875 13.0712 -6.56326e-21)
(49.5587 13.042 0)
(49.5268 13.0323 0)
(49.4877 13.0096 0)
(49.4443 12.9884 0)
(49.3973 12.9622 0)
(49.3474 12.9333 0)
(49.2956 12.9 0)
(49.2426 12.8624 0)
(49.1892 12.8196 0)
(49.1366 12.7712 0)
(49.0859 12.7166 0)
(49.0385 12.6555 0)
(48.9962 12.5877 0)
(48.9609 12.5135 0)
(48.9344 12.4335 0)
(48.9187 12.3491 0)
(48.9156 12.262 0)
(48.9262 12.1748 0)
(48.9512 12.0903 0)
(48.9901 12.0114 0)
(49.0418 11.9411 0)
(49.1043 11.8817 0)
(49.1748 11.835 0)
(49.2505 11.8018 0)
(49.3284 11.782 0)
(49.406 11.7747 0)
(49.4809 11.7786 0)
(49.552 11.7921 0)
(49.6182 11.8131 0)
(49.6787 11.8401 0)
(49.7335 11.8715 0)
(49.7832 11.9057 0)
(49.828 11.9416 0)
(49.8681 11.9784 0)
(49.9042 12.0153 0)
(49.937 12.0516 0)
(49.9673 12.087 0)
(49.9951 12.121 0)
(50.021 12.1536 0)
(50.0456 12.1845 0)
(50.0694 12.2134 0)
(50.0925 12.2405 0)
(50.1156 12.2653 0)
(50.1381 12.2881 0)
(50.1625 12.3079 0)
(50.184 12.3267 0)
(50.2146 12.3392 0)
(50.2281 12.3569 0)
(50.2804 12.3488 0)
(49.5546 12.9054 -5.84844e-20)
(49.6317 13.1499 0)
(49.5863 13.0387 -1.8233e-20)
(49.5875 13.0716 6.36658e-21)
(49.5578 13.0441 1.42061e-20)
(49.5252 13.0364 0)
(49.4856 13.0146 0)
(49.4416 12.9943 0)
(49.394 12.9693 0)
(49.3433 12.9416 0)
(49.2904 12.9098 0)
(49.2361 12.8738 0)
(49.181 12.8328 0)
(49.1263 12.7862 0)
(49.0729 12.7336 0)
(49.0223 12.6743 0)
(48.9761 12.6081 0)
(48.936 12.5352 0)
(48.9042 12.4558 0)
(48.8825 12.3711 0)
(48.873 12.2827 0)
(48.8771 12.1927 0)
(48.8959 12.104 0)
(48.9293 12.0196 0)
(48.9767 11.9427 0)
(49.0363 11.8759 0)
(49.1056 11.8215 0)
(49.1817 11.7808 0)
(49.2615 11.754 0)
(49.3422 11.7407 0)
(49.421 11.7397 0)
(49.4964 11.7494 0)
(49.5672 11.7679 0)
(49.6323 11.7933 0)
(49.6914 11.824 0)
(49.7449 11.8584 0)
(49.7932 11.895 0)
(49.8364 11.9329 0)
(49.8751 11.9713 0)
(49.91 12.0094 0)
(49.9419 12.0467 0)
(49.9711 12.0828 0)
(49.998 12.1175 0)
(50.0233 12.1505 0)