/*--------------------------------*- C++ -*----------------------------------*\
  =========                 |
  \\      /  F ield         | OpenFOAM: The Open Source CFD Toolbox
   \\    /   O peration     | Website:  https://openfoam.org
    \\  /    A nd           | Version:  7
     \\/     M anipulation  |
\*---------------------------------------------------------------------------*/
FoamFile
{
    version     2.0;
    format      ascii;
    class       volScalarField;
    location    "2000";
    object      yPlus;
}
// * * * * * * * * * * * * * * * * * * * * * * * * * * * * * * * * * * * * * //

dimensions      [0 0 0 0 0 0 0];

internalField   uniform 0;

boundaryField
{
    inlet-l
    {
        type            calculated;
        value           uniform 0;
    }
    airfoil-l1
    {
        type            calculated;
        value           nonuniform List<scalar> 
71
(
39.9492
38.3861
36.2422
33.8225
31.3842
29.0783
26.9696
25.0828
23.3942
21.8816
20.5236
19.2928
18.1481
17.0749
16.0576
15.0891
14.1685
13.3136
12.5049
11.7031
10.9004
10.0829
9.23443
8.3382
7.36491
6.26926
4.96201
3.2005
1.98652
4.25254
5.6897
6.83714
7.82248
8.70253
9.50992
10.2633
10.975
11.6529
12.3093
12.9514
13.5987
14.2554
14.9091
15.5468
16.161
16.7554
17.3241
17.8743
18.4015
18.9156
19.4144
19.8993
20.3731
20.829
21.2738
21.7069
22.1289
22.5393
22.9333
23.3217
23.6905
24.0472
24.3904
24.7189
25.0326
25.3307
25.6097
25.8743
26.1225
26.3507
26.5616
)
;
    }
    empty-1
    {
        type            empty;
    }
    empty-2
    {
        type            empty;
    }
    wall-l1
    {
        type            calculated;
        value           nonuniform List<scalar> 
45
(
159.699
159.617
159.305
159.044
158.855
158.673
158.484
158.296
158.111
157.94
157.772
157.607
157.454
157.3
157.15
157.01
156.875
156.744
156.616
156.495
156.376
156.256
156.142
156.036
155.934
155.84
155.749
155.659
155.57
155.487
155.406
155.33
155.255
155.186
155.117
155.054
154.994
154.936
154.887
154.84
154.788
154.743
154.699
154.661
154.622
)
;
    }
    airfoil-l2
    {
        type            calculated;
        value           nonuniform List<scalar> 
45
(
27.0295
27.6514
28.1364
28.5234
28.8464
29.1176
29.343
29.533
29.6941
29.8315
29.95
30.0529
30.1402
30.2164
30.2807
30.3357
30.3804
30.4224
30.457
30.4836
30.5063
30.5266
30.5414
30.5501
30.5561
30.5599
30.5592
30.555
30.5475
30.5368
30.5225
30.5035
30.4823
30.4619
30.4329
30.3971
30.3579
30.3147
30.2617
30.1988
30.1243
30.0365
29.9153
29.7981
29.4017
)
;
    }
    empty-3
    {
        type            empty;
    }
    empty-4
    {
        type            empty;
    }
    wall-l2
    {
        type            calculated;
        value           nonuniform List<scalar> 
49
(
154.571
154.641
154.756
154.865
154.997
155.169
155.38
155.626
155.91
156.233
156.597
156.997
157.433
157.905
158.415
158.963
159.548
160.164
160.806
161.47
162.155
162.856
163.57
164.29
165.005
165.705
166.382
167.026
167.624
168.163
168.626
168.995
169.25
169.371
169.334
169.113
168.677
167.993
167.026
165.732
164.066
161.975
159.405
156.297
152.633
148.429
144.129
140.697
140.643
)
;
    }
    outlet-l
    {
        type            calculated;
        value           uniform 0;
    }
    empty-5
    {
        type            empty;
    }
    empty-6
    {
        type            empty;
    }
    outlet-h
    {
        type            calculated;
        value           uniform 0;
    }
    wall-h2
    {
        type            calculated;
        value           nonuniform List<scalar> 
49
(
176.307
176.662
177.047
177.446
177.869
178.323
178.804
179.313
179.857
180.44
181.054
181.7
182.379
183.1
183.862
184.662
185.499
186.373
187.286
188.235
189.225
190.258
191.327
192.415
193.522
194.666
195.857
197.072
198.27
199.449
200.65
201.895
203.136
204.308
205.411
206.504
207.613
208.674
209.606
210.422
211.186
211.894
212.451
212.789
212.952
212.932
212.784
211.719
213.502
)
;
    }
    empty-7
    {
        type            empty;
    }
    empty-8
    {
        type            empty;
    }
    airfoil-h2
    {
        type            calculated;
        value           nonuniform List<scalar> 
45
(
40.57
39.8765
39.2721
38.7225
38.211
37.7345
37.2891
36.8688
36.4667
36.0848
35.716
35.36
35.0176
34.6843
34.3612
34.0424
33.7267
33.4175
33.112
32.8067
32.5054
32.205
31.9024
31.6012
31.2987
30.9935
30.687
30.3741
30.0536
29.7285
29.3971
29.0555
28.7004
28.3293
27.9434
27.5378
27.1082
26.6528
26.1625
25.6326
25.0467
24.4276
23.6762
23.0695
21.4073
)
;
    }
    wall-h1
    {
        type            calculated;
        value           nonuniform List<scalar> 
45
(
174.118
174.213
174.231
174.257
174.298
174.344
174.39
174.431
174.469
174.519
174.557
174.604
174.646
174.69
174.737
174.779
174.824
174.871
174.917
174.962
175.009
175.049
175.098
175.142
175.189
175.235
175.283
175.329
175.379
175.426
175.472
175.519
175.565
175.612
175.657
175.705
175.752
175.796
175.845
175.891
175.943
175.988
176.032
176.081
176.126
)
;
    }
    empty-9
    {
        type            empty;
    }
    empty-10
    {
        type            empty;
    }
    inlet-h
    {
        type            calculated;
        value           uniform 0;
    }
    airfoil-h1
    {
        type            calculated;
        value           nonuniform List<scalar> 
71
(
40.783
41.0735
40.628
39.6524
38.4791
37.3389
36.336
35.4877
34.7787
34.1927
33.7049
33.3133
33.0042
32.7678
32.6007
32.4874
32.4208
32.3916
32.3946
32.4326
32.4925
32.5774
32.6848
32.8072
32.9523
33.1103
33.2914
33.4827
33.6829
33.8924
34.1078
34.3418
34.5728
34.8086
35.0526
35.2994
35.5503
35.803
36.0538
36.31
36.5606
36.8138
37.0649
37.3156
37.5678
37.81
38.0538
38.2906
38.5196
38.7473
38.9697
39.1787
39.3825
39.577
39.7675
39.9494
40.1226
40.2798
40.4306
40.5626
40.6864
40.7983
40.8948
40.9783
41.0447
41.0953
41.1262
41.141
41.1304
41.0848
41.015
)
;
    }
    empty-11
    {
        type            empty;
    }
    empty-12
    {
        type            empty;
    }
}


// ************************************************************************* //
