/*--------------------------------*- C++ -*----------------------------------*\
  =========                 |
  \\      /  F ield         | OpenFOAM: The Open Source CFD Toolbox
   \\    /   O peration     | Website:  https://openfoam.org
    \\  /    A nd           | Version:  7
     \\/     M anipulation  |
\*---------------------------------------------------------------------------*/
FoamFile
{
    version     2.0;
    format      ascii;
    class       surfaceScalarField;
    location    "200";
    object      phi;
}
// * * * * * * * * * * * * * * * * * * * * * * * * * * * * * * * * * * * * * //

dimensions      [0 3 -1 0 0 0 0];

internalField   nonuniform List<scalar> 
45906
(
-0.301248
0.0681778
-0.301099
0.0660251
-0.289496
0.0680767
-0.301017
0.0639341
-0.289401
0.0659306
-0.27807
0.0679892
-0.300965
0.0618985
-0.289316
0.0638484
-0.277993
0.0658532
-0.267122
0.0678947
-0.30093
0.0599222
-0.289248
0.0618307
-0.277922
0.0637772
-0.26704
0.0657709
-0.256579
0.0678032
-0.300905
0.0580064
-0.289194
0.0598686
-0.27786
0.0617686
-0.266964
0.0637019
-0.25649
0.0656816
-0.246286
0.0676976
-0.300886
0.0561775
-0.289151
0.0579634
-0.277806
0.0598144
-0.266895
0.0616993
-0.256401
0.0636129
-0.246178
0.0655746
-0.23635
0.0675745
-0.300871
0.0544081
-0.289116
0.056142
-0.277758
0.0579159
-0.26683
0.0597493
-0.256314
0.0616123
-0.246071
0.0635055
-0.236226
0.0654512
-0.226758
0.067444
-0.300859
0.0526842
-0.289086
0.0543782
-0.277715
0.0560995
-0.266768
0.0578537
-0.256228
0.0596635
-0.245965
0.0615059
-0.236106
0.0633853
-0.226632
0.0653252
-0.217564
0.0673201
-0.300849
0.0510313
-0.28906
0.0526582
-0.277676
0.054339
-0.266707
0.056039
-0.256143
0.0577689
-0.24586
0.0595586
-0.235989
0.0613892
-0.226513
0.0632668
-0.217451
0.065212
-0.208724
0.0672135
-0.300842
0.0494221
-0.289037
0.051008
-0.277639
0.0526212
-0.266648
0.0542792
-0.256059
0.0559548
-0.245757
0.057666
-0.235877
0.0594467
-0.226402
0.0612781
-0.217348
0.0631635
-0.208631
0.0651195
-0.200331
0.0671266
-0.300836
0.0478693
-0.289015
0.0494008
-0.277603
0.050972
-0.266588
0.0525614
-0.255975
0.0541955
-0.245657
0.0558544
-0.235771
0.0575597
-0.226299
0.0593439
-0.217254
0.0611842
-0.208548
0.0630802
-0.200258
0.0650465
-0.192292
0.0670548
-0.300831
0.0463723
-0.288995
0.0478492
-0.277567
0.049365
-0.266527
0.0509117
-0.255892
0.0524781
-0.245559
0.0540982
-0.235671
0.0557543
-0.226205
0.0574654
-0.217169
0.0592596
-0.208474
0.0611098
-0.200191
0.0630132
-0.192231
0.0649854
-0.184594
0.066991
-0.300826
0.0449174
-0.288975
0.0463527
-0.277531
0.0478129
-0.266466
0.0493037
-0.255809
0.0508289
-0.245465
0.0523843
-0.235577
0.0540045
-0.226119
0.0556685
-0.217094
0.0573901
-0.208407
0.0591934
-0.20013
0.0610494
-0.192172
0.0629548
-0.184537
0.0649284
-0.177201
0.0669291
-0.300823
0.0435253
-0.288956
0.0448979
-0.277494
0.0463155
-0.266404
0.0477505
-0.255727
0.0492219
-0.245376
0.0507392
-0.23549
0.0522975
-0.226042
0.0539271
-0.217027
0.0556014
-0.208348
0.0573309
-0.200075
0.0591382
-0.192118
0.060995
-0.184481
0.0628985
-0.177143
0.0648704
-0.170095
0.066866
-0.30082
0.04216
-0.288936
0.0435054
-0.277456
0.0448594
-0.26634
0.0462521
-0.255647
0.04767
-0.24529
0.0491365
-0.23541
0.0506592
-0.225972
0.0522279
-0.216967
0.0538673
-0.208295
0.0555482
-0.200024
0.0572801
-0.192066
0.0590867
-0.184427
0.060941
-0.177085
0.0628408
-0.170034
0.0648099
-0.163256
0.0668012
-0.300818
0.0408477
-0.288915
0.0421394
-0.277416
0.0434654
-0.266276
0.0447951
-0.255568
0.0461732
-0.24521
0.0475893
-0.235337
0.0490633
-0.22591
0.0505968
-0.216914
0.0521745
-0.208247
0.0538189
-0.199977
0.0555007
-0.192017
0.0572309
-0.184374
0.0590343
-0.177029
0.0608852
-0.169975
0.0627813
-0.163193
0.0647478
-0.156692
0.0667355
-0.300815
0.0395735
-0.288894
0.0408261
-0.277374
0.0420979
-0.266211
0.0434004
-0.255491
0.0447183
-0.245134
0.0460974
-0.235271
0.0475227
-0.225854
0.0490075
-0.216866
0.0505488
-0.208202
0.05213
-0.199932
0.053774
-0.19197
0.0554533
-0.184323
0.0571801
-0.176975
0.05898
-0.169917
0.0608279
-0.163133
0.0627211
-0.15663
0.0646854
-0.150378
0.06667
-0.300813
0.0383425
-0.288871
0.0395507
-0.277331
0.0407829
-0.266146
0.0420325
-0.255417
0.0433261
-0.245063
0.0446477
-0.23521
0.046037
-0.225804
0.0474726
-0.216822
0.0489638
-0.20816
0.0505071
-0.199889
0.052087
-0.191924
0.0537281
-0.184274
0.055404
-0.176923
0.0571276
-0.169862
0.0589248
-0.163076
0.0607703
-0.15657
0.0626613
-0.150317
0.0646238
-0.144322
0.0666054
-0.30081
0.0371492
-0.288847
0.0383183
-0.277286
0.039506
-0.26608
0.0407177
-0.255346
0.0419613
-0.244998
0.0432606
-0.235156
0.044593
-0.225758
0.0459918
-0.216782
0.0474324
-0.208121
0.0489243
-0.199848
0.0504656
-0.191879
0.0520423
-0.184226
0.0536802
-0.176872
0.0553534
-0.169809
0.0570747
-0.163021
0.0588699
-0.156513
0.0607135
-0.150258
0.0626026
-0.144262
0.0645635
-0.138509
0.066542
-0.300807
0.0359935
-0.288821
0.0371236
-0.27724
0.0382722
-0.266016
0.0394412
-0.255277
0.0406496
-0.244937
0.0419008
-0.235106
0.0432112
-0.225717
0.044552
-0.216745
0.0459543
-0.208083
0.0473945
-0.199807
0.0488837
-0.191835
0.0504218
-0.18418
0.0519957
-0.176823
0.0536314
-0.169759
0.0553028
-0.162969
0.0570226
-0.156459
0.0588162
-0.150203
0.0606581
-0.144204
0.0625454
-0.138451
0.0645046
-0.132921
0.0664797
-0.300804
0.0348765
-0.288794
0.0359663
-0.277193
0.0370763
-0.265952
0.0382083
-0.255213
0.0393767
-0.244882
0.0405941
-0.235061
0.0418561
-0.22568
0.0431736
-0.216709
0.0445165
-0.208046
0.0459174
-0.199767
0.0473546
-0.191792
0.0488408
-0.184134
0.0503764
-0.176776
0.0519486
-0.16971
0.0535831
-0.162919
0.0552534
-0.156409
0.056972
-0.150151
0.0587641
-0.144151
0.0606043
-0.138395
0.0624895
-0.132864
0.064447
-0.127563
0.0664186
-0.3008
0.0337928
-0.288765
0.0348477
-0.277144
0.0359181
-0.265889
0.0370136
-0.255152
0.0381475
-0.244831
0.0393259
-0.235021
0.0405536
-0.225645
0.0418213
-0.216675
0.0431395
-0.20801
0.0444803
-0.199728
0.045878
-0.19175
0.0473124
-0.18409
0.0487967
-0.176731
0.0503311
-0.169664
0.0519025
-0.162872
0.0535362
-0.156361
0.0552057
-0.150102
0.0569232
-0.1441
0.0587137
-0.138342
0.0605519
-0.132809
0.0624348
-0.127507
0.0643906
-0.122425
0.0663584
-0.300796
0.0327436
-0.288735
0.0337624
-0.277096
0.0347988
-0.265828
0.035857
-0.255095
0.0369567
-0.244785
0.0381012
-0.234984
0.039289
-0.225612
0.0405209
-0.216642
0.0417883
-0.207974
0.0431037
-0.199689
0.0444413
-0.191709
0.0458365
-0.184047
0.0472693
-0.176687
0.0487528
-0.16962
0.0502869
-0.162828
0.051858
-0.156316
0.0534912
-0.150056
0.0551599
-0.144053
0.056876
-0.138293
0.0586648
-0.132758
0.0605009
-0.127453
0.0623813
-0.122369
0.0643352
-0.117481
0.0662992
-0.300791
0.0317263
-0.288703
0.0327117
-0.277046
0.0337132
-0.265769
0.0347396
-0.255043
0.0358041
-0.244743
0.0369146
-0.23495
0.0380674
-0.225581
0.0392581
-0.21661
0.0404886
-0.207938
0.0417527
-0.19965
0.043065
-0.191668
0.0444004
-0.184005
0.0457945
-0.176644
0.0472269
-0.169578
0.0487104
-0.162785
0.0502445
-0.156274
0.0518154
-0.150013
0.0534482
-0.144009
0.0551158
-0.138248
0.0568306
-0.132711
0.0586173
-0.127403
0.0604511
-0.122317
0.0623289
-0.117427
0.0642806
-0.112743
0.0662408
-0.300785
0.0307433
-0.288669
0.0316929
-0.276997
0.0326624
-0.265712
0.0336563
-0.254994
0.0346907
-0.244704
0.0357657
-0.234919
0.0368834
-0.225552
0.0380378
-0.216578
0.0392262
-0.207903
0.0404532
-0.199612
0.0417143
-0.191627
0.0430247
-0.183964
0.0443592
-0.176603
0.0457532
-0.169537
0.0471859
-0.162745
0.0486697
-0.156233
0.050204
-0.149972
0.0517748
-0.143968
0.053407
-0.138206
0.0550735
-0.132667
0.0567867
-0.127357
0.0585713
-0.122268
0.0604026
-0.117375
0.0622775
-0.112689
0.064227
-0.108195
0.0661831
-0.300779
0.029788
-0.288635
0.0307085
-0.276948
0.0316439
-0.265657
0.032608
-0.254948
0.0336111
-0.244669
0.0346558
-0.23489
0.0357367
-0.225523
0.0368547
-0.216546
0.0380062
-0.207868
0.0391909
-0.199573
0.0404151
-0.191588
0.0416746
-0.183924
0.0429844
-0.176563
0.044319
-0.169497
0.0457135
-0.162706
0.0471467
-0.156194
0.048631
-0.149934
0.0501655
-0.143929
0.0517362
-0.138166
0.0533676
-0.132626
0.055033
-0.127315
0.0567443
-0.122223
0.0585266
-0.117328
0.0603551
-0.112639
0.062227
-0.108142
0.0641741
-0.103827
0.0661261
-0.300771
0.0288656
-0.288599
0.029752
-0.2769
0.0306601
-0.265606
0.0315921
-0.254907
0.0325666
-0.244638
0.0335794
-0.234863
0.0346286
-0.225495
0.0357088
-0.216515
0.0368233
-0.207833
0.0379711
-0.199536
0.0391532
-0.191548
0.0403759
-0.183884
0.0416349
-0.176524
0.042945
-0.169458
0.0442803
-0.162668
0.0456755
-0.156157
0.0471095
-0.149897
0.0485944
-0.143893
0.0501291
-0.13813
0.0516995
-0.132589
0.0533302
-0.127276
0.0549941
-0.122183
0.0567035
-0.117284
0.0584832
-0.112592
0.0603088
-0.108092
0.0621774
-0.103775
0.064122
-0.0996406
0.0660697
-0.300763
0.0279695
-0.288562
0.0288286
-0.276852
0.0297044
-0.265557
0.0306112
-0.254869
0.0315544
-0.244609
0.0325376
-0.234837
0.0335537
-0.225468
0.0346012
-0.216484
0.0356775
-0.207798
0.0367884
-0.199498
0.0379336
-0.19151
0.0391145
-0.183845
0.0403369
-0.176485
0.0415963
-0.16942
0.042907
-0.162631
0.0442432
-0.156121
0.0456394
-0.149862
0.0470743
-0.143858
0.0485598
-0.138095
0.0500947
-0.132554
0.0516648
-0.12724
0.0532946
-0.122145
0.054957
-0.117245
0.0566641
-0.11255
0.058441
-0.108047
0.0602635
-0.103727
0.0621287
-0.0995892
0.0640706
-0.0956193
0.0660138
-0.300753
0.0271023
-0.288524
0.0279317
-0.276806
0.0287821
-0.265511
0.0296584
-0.254835
0.0305768
-0.244582
0.0315278
-0.234812
0.0325132
-0.225441
0.0335267
-0.216453
0.0345701
-0.207763
0.0356428
-0.199461
0.0367514
-0.191472
0.0378955
-0.183806
0.039076
-0.176447
0.0402988
-0.169383
0.0415589
-0.162594
0.0428707
-0.156086
0.044208
-0.149828
0.0456054
-0.143825
0.0470412
-0.138063
0.0485273
-0.132522
0.0500624
-0.127208
0.0516321
-0.122112
0.0532608
-0.117209
0.0549215
-0.112512
0.0566262
-0.108006
0.0584001
-0.103682
0.0602192
-0.0995412
0.0620807
-0.0955685
0.0640198
-0.0917637
0.0659585
-0.300742
0.0262626
-0.288485
0.0270638
-0.27676
0.0278865
-0.265468
0.0287391
-0.254804
0.0296273
-0.244558
0.0305523
-0.234789
0.0315043
-0.225414
0.0324865
-0.216422
0.0334958
-0.207729
0.0345358
-0.199425
0.0356063
-0.191434
0.0367137
-0.183769
0.0378575
-0.176409
0.0390384
-0.169346
0.0402619
-0.162558
0.041523
-0.156051
0.0428361
-0.149795
0.0441748
-0.143793
0.0455734
-0.138032
0.0470102
-0.132491
0.048497
-0.127178
0.0500322
-0.122081
0.0516014
-0.117177
0.0532289
-0.112478
0.0548875
-0.10797
0.0565896
-0.103643
0.0583603
-0.0994978
0.0601759
-0.0955213
0.0620334
-0.0917135
0.0639696
-0.0880538
0.0659035
-0.30073
0.0254479
-0.288446
0.0262236
-0.276717
0.0270202
-0.265428
0.0278464
-0.254776
0.0287108
-0.244535
0.0296046
-0.234766
0.0305297
-0.225388
0.031478
-0.216391
0.0324559
-0.207695
0.0334619
-0.199389
0.0344997
-0.191397
0.0355691
-0.183731
0.0366762
-0.176372
0.0378202
-0.169309
0.0390018
-0.162523
0.0402263
-0.156017
0.0414888
-0.149762
0.0428033
-0.143762
0.0441436
-0.138002
0.0455436
-0.132463
0.0469815
-0.12715
0.0484689
-0.122053
0.0500042
-0.117149
0.0515727
-0.112448
0.0531987
-0.107937
0.0548552
-0.103607
0.0565544
-0.0994591
0.0583216
-0.0954788
0.0601334
-0.0916669
0.0619869
-0.0880041
0.0639199
-0.0845045
0.065849
-0.300717
0.0246593
-0.288407
0.0254086
-0.276675
0.0261817
-0.26539
0.026983
-0.25475
0.0278209
-0.244514
0.0286897
-0.234744
0.0295826
-0.225362
0.0305036
-0.216361
0.0314477
-0.207661
0.0324224
-0.199353
0.0334263
-0.19136
0.034463
-0.183694
0.035532
-0.176335
0.0366392
-0.169273
0.0377838
-0.162487
0.0389664
-0.155983
0.0401923
-0.149729
0.0414564
-0.143731
0.0427727
-0.137973
0.0441146
-0.132435
0.0455161
-0.127123
0.0469551
-0.122027
0.0484431
-0.117123
0.0499782
-0.112421
0.0515459
-0.107909
0.0531702
-0.103576
0.0548243
-0.0994252
0.0565204
-0.0954411
0.0582839
-0.0916253
0.0600917
-0.0879581
0.0619409
-0.0844553
0.0638707
-0.0810909
0.0657948
-0.300703
0.0238942
-0.288368
0.0246199
-0.276635
0.0253685
-0.265356
0.0261475
-0.254727
0.02696
-0.244494
0.0278012
-0.234723
0.0286684
-0.225336
0.0295569
-0.216331
0.0304738
-0.207628
0.0314148
-0.199318
0.0323875
-0.191324
0.0333902
-0.183657
0.0344264
-0.176298
0.0354953
-0.169237
0.036603
-0.162452
0.0377485
-0.155949
0.0389324
-0.149697
0.04016
-0.143701
0.041426
-0.137945
0.0427442
-0.132409
0.0440879
-0.127098
0.0454909
-0.122003
0.0469311
-0.117099
0.0484195
-0.112398
0.0499543
-0.107884
0.051521
-0.10355
0.0531435
-0.0993958
0.0547949
-0.0954084
0.0564877
-0.0915886
0.0582473
-0.0879172
0.0600509
-0.0844099
0.0618955
-0.0810422
0.063822
-0.077823
0.0657409
-0.300688
0.0231527
-0.288328
0.023855
-0.276597
0.0245818
-0.265325
0.0253371
-0.254706
0.0261266
-0.244475
0.0269414
-0.234702
0.0277803
-0.225311
0.0286431
-0.216302
0.0295276
-0.207596
0.0304415
-0.199284
0.0313805
-0.191288
0.0323519
-0.183621
0.033354
-0.176262
0.0343899
-0.169201
0.0354592
-0.162417
0.0365676
-0.155915
0.0377144
-0.149665
0.0389
-0.14367
0.0401295
-0.137916
0.0413976
-0.132382
0.0427179
-0.127074
0.0440636
-0.12198
0.0454682
-0.117077
0.0469093
-0.112376
0.0483981
-0.107862
0.0499325
-0.103527
0.0514979
-0.0993706
0.0531183
-0.0953803
0.0547669
-0.091557
0.0564561
-0.0878815
0.0582115
-0.0843698
0.0600107
-0.0809973
0.0618506
-0.0777747
0.0637737
-0.0746757
0.0656872
-0.300672
0.022436
-0.28829
0.0231138
-0.276561
0.0238189
-0.265296
0.024553
-0.254687
0.0253182
-0.244458
0.026109
-0.234682
0.026921
-0.225286
0.0277554
-0.216273
0.0286143
-0.207564
0.0294959
-0.19925
0.0304078
-0.191253
0.0313455
-0.183585
0.0323161
-0.176226
0.0333178
-0.169164
0.0343539
-0.162381
0.0354238
-0.155881
0.0365334
-0.149632
0.0376818
-0.14364
0.0388694
-0.137888
0.0401011
-0.132356
0.0413715
-0.12705
0.042694
-0.121958
0.0440417
-0.117057
0.0454478
-0.112357
0.0468898
-0.107843
0.0483788
-0.103507
0.0499126
-0.0993493
0.0514765
-0.0953567
0.0530947
-0.0915302
0.0547401
-0.087851
0.0564256
-0.0843349
0.0581767
-0.0809579
0.0599713
-0.0777303
0.0618063
-0.0746278
0.0637258
-0.071664
0.0656337
-0.300655
0.0217402
-0.288251
0.0223977
-0.276527
0.0230799
-0.26527
0.0237927
-0.25467
0.024536
-0.244441
0.0253015
-0.234662
0.0260892
-0.225262
0.0268966
-0.216245
0.0277273
-0.207533
0.0285833
-0.199217
0.029463
-0.191219
0.0303734
-0.18355
0.0313101
-0.17619
0.0322802
-0.169129
0.0332818
-0.162346
0.0343184
-0.155846
0.0353894
-0.149599
0.0365005
-0.143609
0.0376509
-0.137859
0.0388407
-0.13233
0.0400749
-0.127026
0.0413478
-0.121937
0.0426726
-0.117038
0.0440222
-0.112339
0.0454298
-0.107826
0.0468727
-0.10349
0.0483617
-0.0993313
0.0498947
-0.0953371
0.0514569
-0.0915081
0.0530725
-0.0878255
0.0547147
-0.0843054
0.0563961
-0.0809239
0.0581426
-0.0776915
0.0599325
-0.0745839
0.0617624
-0.0716165
0.0636783
-0.0687729
0.0655804
-0.300636
0.0210652
-0.288214
0.0217026
-0.276495
0.0223658
-0.265246
0.023056
-0.254655
0.0237772
-0.244425
0.02452
-0.234643
0.0252821
-0.225238
0.0260653
-0.216217
0.0268691
-0.207503
0.0276971
-0.199185
0.0285511
-0.191185
0.0294292
-0.183515
0.0303385
-0.176154
0.0312745
-0.169093
0.0322444
-0.16231
0.0332463
-0.155812
0.0342838
-0.149566
0.0353562
-0.143577
0.0364691
-0.13783
0.0376217
-0.132303
0.038814
-0.127002
0.0400509
-0.121915
0.0413263
-0.117019
0.0426535
-0.112322
0.0440052
-0.10781
0.0454141
-0.103475
0.0468577
-0.0993162
0.0483466
-0.095321
0.0498785
-0.09149
0.0514389
-0.0878047
0.0530517
-0.0842811
0.0546904
-0.0808954
0.0563676
-0.0776583
0.0581094
-0.0745458
0.0598943
-0.071573
0.061719
-0.0687258
0.0636311
-0.0659974
0.0655272
-0.300617
0.0204126
-0.288177
0.0210286
-0.276465
0.0216728
-0.265224
0.0223442
-0.254641
0.0230419
-0.24441
0.0237619
-0.234624
0.0245011
-0.225214
0.0252588
-0.21619
0.0260385
-0.207474
0.0268398
-0.199154
0.0276657
-0.191152
0.0285181
-0.183481
0.0293949
-0.176119
0.0303033
-0.169057
0.0312388
-0.162275
0.0322088
-0.155777
0.0332115
-0.149532
0.0342501
-0.143545
0.0353242
-0.1378
0.0364393
-0.132276
0.0375945
-0.126977
0.0387895
-0.121894
0.0400292
-0.117
0.0413074
-0.112305
0.042637
-0.107795
0.0439905
-0.103461
0.0454008
-0.0993034
0.0468449
-0.0953078
0.0483334
-0.0914757
0.0498642
-0.0877883
0.0514224
-0.0842617
0.0530323
-0.0808722
0.0546672
-0.0776308
0.0563401
-0.0745133
0.058077
-0.0715355
0.0598568
-0.0686828
0.061676
-0.0659506
0.0635843
-0.0633324
0.0654741
-0.300596
0.0197794
-0.288141
0.0203769
-0.276437
0.0210009
-0.265205
0.0216533
-0.254628
0.0223313
-0.244395
0.0230272
-0.234605
0.0237434
-0.225192
0.0244784
-0.216165
0.0252328
-0.207445
0.02601
-0.199123
0.0268091
-0.19112
0.0276333
-0.183447
0.0284843
-0.176084
0.02936
-0.169022
0.0302679
-0.162239
0.0312033
-0.155742
0.0321738
-0.149498
0.0331774
-0.143513
0.0342176
-0.13777
0.0352938
-0.132248
0.0364113
-0.126952
0.0375693
-0.121871
0.0387673
-0.11698
0.0400099
-0.112289
0.0412908
-0.107781
0.0426229
-0.103449
0.0439783
-0.0992923
0.0453897
-0.0952971
0.0468342
-0.0914644
0.0483222
-0.0877756
0.0498515
-0.0842467
0.0514074
-0.080854
0.053014
-0.0776086
0.054645
-0.0744867
0.0563134
-0.0715038
0.0580453
-0.0686458
0.0598199
-0.065908
0.0616334
-0.063286
0.0635379
-0.0607779
0.0654211
-0.300575
0.0191659
-0.288107
0.019745
-0.276412
0.0203512
-0.265187
0.0209833
-0.254616
0.0216415
-0.244381
0.0223171
-0.234587
0.0230092
-0.22517
0.0237214
-0.216139
0.0244532
-0.207418
0.0252051
-0.199093
0.0259802
-0.191088
0.0267775
-0.183414
0.0276001
-0.17605
0.0284499
-0.168986
0.0293249
-0.162204
0.0302324
-0.155707
0.0311681
-0.149464
0.0321393
-0.14348
0.0331443
-0.137739
0.0341864
-0.132219
0.0352649
-0.126926
0.0363853
-0.121848
0.0375462
-0.11696
0.0387473
-0.112272
0.039993
-0.107767
0.0412768
-0.103437
0.0426112
-0.0992824
0.0439684
-0.0952882
0.0453808
-0.0914557
0.0468255
-0.0877661
0.0483127
-0.0842355
0.0498404
-0.0808403
0.0513937
-0.0775916
0.052997
-0.0744655
0.0546239
-0.071478
0.0562876
-0.0686148
0.0580143
-0.0658717
0.0597836
-0.0632438
0.0615913
-0.0607319
0.0634918
-0.058324
0.0653682
-0.300553
0.0185707
-0.288074
0.0191328
-0.276388
0.0197213
-0.265171
0.0203354
-0.254605
0.0209724
-0.244367
0.0216278
-0.23457
0.0222997
-0.225148
0.0229879
-0.216115
0.0236971
-0.207391
0.0244264
-0.199064
0.0251762
-0.191057
0.0259493
-0.183381
0.026745
-0.176016
0.0275662
-0.168952
0.028415
-0.162169
0.0292896
-0.155671
0.0301971
-0.149429
0.0311334
-0.143446
0.0321057
-0.137707
0.0331124
-0.13219
0.0341567
-0.126899
0.0352378
-0.121824
0.0363612
-0.116939
0.0375253
-0.112254
0.0387297
-0.107753
0.0399785
-0.103426
0.0412652
-0.0992732
0.0426019
-0.0952806
0.0439608
-0.091449
0.0453741
-0.0877593
0.0468187
-0.0842278
0.048305
-0.0808307
0.0498308
-0.0775792
0.0513813
-0.0744496
0.0529811
-0.0714578
0.0546037
-0.0685898
0.0562626
-0.0658414
0.0579839
-0.0632081
0.0597478
-0.0606901
0.0615495
-0.0582783
0.0634461
-0.0559654
0.0653153
-0.30053
0.0179951
-0.288042
0.018539
-0.276366
0.0191109
-0.265157
0.0197071
-0.254595
0.0203254
-0.244354
0.0209592
-0.234553
0.0216109
-0.225128
0.0222791
-0.216092
0.0229644
-0.207365
0.0236712
-0.199036
0.0243983
-0.191027
0.0251461
-0.183349
0.0259175
-0.175982
0.0267117
-0.168917
0.0275318
-0.162134
0.0283799
-0.155636
0.0292542
-0.149394
0.0301621
-0.143412
0.0310992
-0.137674
0.032073
-0.132159
0.0330817
-0.126871
0.0341285
-0.121799
0.0352126
-0.116917
0.0363392
-0.112235
0.0375067
-0.107738
0.0387145
-0.103414
0.0399666
-0.099264
0.041256
-0.0952737
0.042595
-0.0914436
0.0439554
-0.0877546
0.0453694
-0.0842229
0.0468138
-0.0808246
0.0482989
-0.077571
0.0498226
-0.0744384
0.0513702
-0.0714429
0.0529662
-0.0685706
0.0545845
-0.0658172
0.0562384
-0.0631784
0.0579543
-0.060655
0.0597126
-0.0582369
0.0615082
-0.0559201
0.0634008
-0.0537123
0.0652625
-0.300506
0.0174377
-0.288012
0.0179648
-0.276346
0.0185189
-0.265144
0.0190982
-0.254586
0.0196977
-0.244341
0.0203126
-0.234537
0.0209429
-0.225108
0.021591
-0.216069
0.0222565
-0.20734
0.0229394
-0.199009
0.023644
-0.190998
0.0243691
-0.183318
0.0251151
-0.17595
0.0258848
-0.168883
0.0266777
-0.162099
0.027497
-0.155601
0.0283446
-0.149359
0.029219
-0.143377
0.0301275
-0.137641
0.0310659
-0.132127
0.0320414
-0.126842
0.0330524
-0.121773
0.034102
-0.116894
0.0351893
-0.112216
0.0363193
-0.107721
0.0374904
-0.103401
0.0387017
-0.0992545
0.039957
-0.095267
0.0412493
-0.091439
0.0425904
-0.0877514
0.0439522
-0.0842201
0.0453666
-0.0808214
0.0468106
-0.0775664
0.0482943
-0.0744316
0.0498157
-0.0714329
0.0513601
-0.0685566
0.0529523
-0.0657987
0.054566
-0.0631549
0.0562149
-0.0606259
0.0579252
-0.0582023
0.059678
-0.0558792
0.0614673
-0.0536674
0.0633559
-0.0515446
0.0652096
-0.300482
0.0168961
-0.287983
0.0174091
-0.276328
0.0179465
-0.265133
0.0185076
-0.254577
0.0190895
-0.244329
0.0196854
-0.234521
0.0202969
-0.225089
0.0209238
-0.216047
0.0215693
-0.207316
0.0222324
-0.198983
0.0229131
-0.19097
0.0236156
-0.183288
0.0243388
-0.175918
0.0250831
-0.16885
0.0258514
-0.162064
0.0266432
-0.155566
0.0274618
-0.149324
0.0283093
-0.143342
0.0291841
-0.137607
0.0300935
-0.132095
0.0310334
-0.126811
0.032011
-0.121745
0.0330246
-0.116869
0.0340773
-0.112194
0.035168
-0.107704
0.0363017
-0.103387
0.0374765
-0.0992441
0.0386914
-0.0952598
0.0399499
-0.0914346
0.0412449
-0.087749
0.042588
-0.0842189
0.043951
-0.0808205
0.0453657
-0.0775649
0.046809
-0.0744284
0.0482911
-0.0714272
0.04981
-0.0685476
0.0513512
-0.0657857
0.0529393
-0.0631373
0.0545483
-0.0606032
0.0561922
-0.0581739
0.0578968
-0.0558452
0.059644
-0.0536269
0.0614268
-0.0515001
0.0633114
-0.0494623
0.0651568
-0.300457
0.0163714
-0.287956
0.0168691
-0.276311
0.0173923
-0.265123
0.0179364
-0.254569
0.0184994
-0.244317
0.0190777
-0.234506
0.0196703
-0.22507
0.0202785
-0.216026
0.0209029
-0.207293
0.0215461
-0.198957
0.022207
-0.190942
0.0228857
-0.183258
0.0235862
-0.175887
0.0243075
-0.168817
0.0250502
-0.16203
0.0258174
-0.155531
0.0266083
-0.149288
0.0274265
-0.143307
0.0282741
-0.137572
0.0291496
-0.132061
0.0300602
-0.12678
0.0310019
-0.121716
0.0319819
-0.116843
0.0329984
-0.112171
0.0340544
-0.107684
0.0351487
-0.103372
0.0362863
-0.0992325
0.0374649
-0.0952519
0.0386834
-0.0914298
0.0399451
-0.0877469
0.0412427
-0.0842187
0.0425878
-0.0808213
0.0439518
-0.0775657
0.0453666
-0.0744283
0.046809
-0.0714254
0.0482893
-0.0685431
0.0498054
-0.0657777
0.0513431
-0.0631251
0.0529271
-0.0605862
0.0545314
-0.0581518
0.0561701
-0.0558174
0.057869
-0.0535934
0.0596105
-0.05146
0.0613868
-0.0494182
0.0632674
-0.0474653
0.0651041
-0.300431
0.0158637
-0.287931
0.0163461
-0.276296
0.0168538
-0.265114
0.0173833
-0.254561
0.0179287
-0.244306
0.018488
-0.234491
0.0190631
-0.225053
0.0196527
-0.216006
0.0202585
-0.20727
0.0208806
-0.198933
0.0215217
-0.190916
0.0221804
-0.18323
0.022857
-0.175856
0.0235557
-0.168785
0.0242754
-0.161997
0.0250167
-0.155496
0.0257827
-0.149253
0.0265731
-0.143272
0.0273912
-0.137537
0.0282392
-0.132027
0.0291155
-0.126747
0.0300277
-0.121685
0.0309715
-0.116816
0.0319542
-0.112147
0.0329739
-0.107664
0.0340335
-0.103355
0.0351317
-0.0992194
0.0362731
-0.0952427
0.0374557
-0.0914243
0.0386778
-0.0877445
0.0399427
-0.0842188
0.0412428
-0.0808231
0.0425896
-0.0775684
0.0439544
-0.0744308
0.0453691
-0.0714268
0.0468103
-0.0685425
0.0482886
-0.0657742
0.0498019
-0.063118
0.051336
-0.0605749
0.0529157
-0.0581356
0.0545152
-0.0557959
0.0561486
-0.0535662
0.0578418
-0.0514271
0.0595776
-0.0493786
0.0613471
-0.0474217
0.0632238
-0.0455536
0.0650513
-0.300405
0.0153704
-0.287907
0.0158402
-0.276282
0.0163321
-0.265106
0.0168458
-0.254554
0.017376
-0.244295
0.0179177
-0.234477
0.0184741
-0.225036
0.0190463
-0.215987
0.0196335
-0.207249
0.0202371
-0.198909
0.0208571
-0.19089
0.021496
-0.183202
0.0221527
-0.175826
0.0228273
-0.168753
0.0235242
-0.161964
0.0242424
-0.155462
0.0249824
-0.149218
0.0257477
-0.143236
0.0265377
-0.137502
0.0273558
-0.131993
0.0282045
-0.126714
0.0290821
-0.121654
0.0299961
-0.116786
0.0309423
-0.112121
0.031928
-0.107641
0.0329511
-0.103336
0.0340145
-0.0992045
0.0351167
-0.0952318
0.0362623
-0.0914174
0.0374488
-0.0877413
0.0386746
-0.0842187
0.0399426
-0.0808253
0.0412451
-0.0775721
0.0425934
-0.0744352
0.0439588
-0.0714308
0.0453731
-0.0685452
0.0468131
-0.0657747
0.0482891
-0.0631154
0.0497994
-0.0605686
0.0513297
-0.058125
0.052905
-0.0557804
0.0544997
-0.0535454
0.0561278
-0.0514005
0.0578152
-0.0493463
0.0595453
-0.0473825
0.061308
-0.0455105
0.0631807
-0.0437122
0.0649986
-0.300378
0.0148942
-0.287886
0.0153487
-0.276269
0.0158274
-0.265099
0.0163251
-0.254547
0.0168389
-0.244284
0.0173655
-0.234464
0.0179044
-0.22502
0.0184579
-0.215969
0.019028
-0.207229
0.0196131
-0.198887
0.0202145
-0.190865
0.0208323
-0.183175
0.0214691
-0.175797
0.0221238
-0.168723
0.0227966
-0.161931
0.0234918
-0.155428
0.0242086
-0.149183
0.0249477
-0.143201
0.0257123
-0.137466
0.0265021
-0.131958
0.0273207
-0.12668
0.0281703
-0.121621
0.0290494
-0.116756
0.0299655
-0.112093
0.0309145
-0.107616
0.0319034
-0.103315
0.0329302
-0.0991876
0.0339976
-0.0952191
0.035104
-0.0914089
0.0362538
-0.0877367
0.0374443
-0.0842177
0.0386736
-0.0808274
0.0399446
-0.0775764
0.0412494
-0.0744409
0.042599
-0.0714368
0.0439648
-0.0685506
0.0453786
-0.0657786
0.046817
-0.0631169
0.0482906
-0.0605669
0.0497977
-0.0581194
0.0513242
-0.0557704
0.0528951
-0.0535305
0.0544847
-0.0513803
0.0561076
-0.0493202
0.0577892
-0.0473508
0.0595136
-0.0454717
0.0612693
-0.0436696
0.0631381
-0.0419461
0.064946
-0.300351
0.0144323
-0.287866
0.0148742
-0.276257
0.015337
-0.265093
0.0158213
-0.25454
0.0163185
-0.244274
0.0168288
-0.234451
0.0173528
-0.225004
0.017889
-0.215951
0.0184405
-0.207209
0.0190084
-0.198865
0.0195914
-0.190841
0.0201907
-0.183149
0.0208064
-0.175769
0.0214411
-0.168693
0.0220939
-0.1619
0.022765
-0.155395
0.0234586
-0.149149
0.0241742
-0.143166
0.0249124
-0.13743
0.0256767
-0.131922
0.0264666
-0.126645
0.0272857
-0.121587
0.0281366
-0.116724
0.0290175
-0.112063
0.0299361
-0.10759
0.030888
-0.103292
0.0318804
-0.0991685
0.0329111
-0.0952042
0.0339827
-0.0913983
0.0350935
-0.0877304
0.0362475
-0.0842155
0.037442
-0.0808287
0.0386749
-0.0775806
0.0399488
-0.0744471
0.0412556
-0.0714442
0.0426064
-0.0685582
0.0439724
-0.0657853
0.0453853
-0.063122
0.046822
-0.0605693
0.0482931
-0.0581185
0.0497968
-0.0557655
0.0513193
-0.0535211
0.0528857
-0.051366
0.0544704
-0.0493006
0.0560879
-0.0473253
0.0577637
-0.0454406
0.0594824
-0.0436314
0.061231
-0.041904
0.063096
-0.0402602
0.0648934
-0.300324
0.0139835
-0.287848
0.0144141
-0.276247
0.0148636
-0.265087
0.0153316
-0.254534
0.015815
-0.244265
0.0163089
-0.234439
0.0168167
-0.22499
0.0173381
-0.215935
0.0178723
-0.20719
0.0184217
-0.198844
0.0189876
-0.190818
0.0195684
-0.183124
0.0201656
-0.175742
0.0207793
-0.168664
0.0214121
-0.161869
0.022063
-0.155362
0.0227324
-0.149115
0.0234247
-0.143131
0.0241392
-0.137395
0.0248768
-0.131886
0.0256408
-0.126609
0.0264311
-0.121553
0.0272512
-0.116691
0.0281035
-0.112032
0.0289866
-0.107561
0.0299078
-0.103267
0.030863
-0.0991472
0.0318591
-0.0951871
0.0328939
-0.0913855
0.0339699
-0.0877221
0.0350851
-0.0842114
0.0362435
-0.0808287
0.037442
-0.077584
0.0386784
-0.0744533
0.039955
-0.0714523
0.0412637
-0.0685672
0.0426154
-0.0657943
0.0439814
-0.0631299
0.0453933
-0.0605754
0.046828
-0.0581218
0.0482964
-0.0557654
0.0497966
-0.0535169
0.051315
-0.0513572
0.0528769
-0.0492868
0.0544566
-0.0473062
0.0560688
-0.0454157
0.0577388
-0.0436008
0.0594519
-0.0418663
0.0611933
-0.0402187
0.0630544
-0.0386296
0.064841
-0.300296
0.0135504
-0.287831
0.0139671
-0.276237
0.0144044
-0.265083
0.0148588
-0.254528
0.0153256
-0.244256
0.0158058
-0.234427
0.0162973
-0.224976
0.0168027
-0.215919
0.0173223
-0.207172
0.0178544
-0.198824
0.0184018
-0.190796
0.0189655
-0.1831
0.0195443
-0.175716
0.0201395
-0.168635
0.0207511
-0.161839
0.0213819
-0.15533
0.0220311
-0.149081
0.022699
-0.143096
0.0233901
-0.137359
0.0241037
-0.13185
0.0248409
-0.126573
0.025605
-0.121517
0.0263958
-0.116657
0.0272171
-0.112
0.0280711
-0.107531
0.0289566
-0.10324
0.0298808
-0.0991237
0.0308395
-0.0951676
0.0318396
-0.0913703
0.0328787
-0.0877114
0.0339592
-0.0842053
0.035079
-0.0808269
0.0362417
-0.0775862
0.0374442
-0.0744588
0.0386839
-0.0714604
0.0399631
-0.0685771
0.0412735
-0.0658049
0.042626
-0.0631402
0.0439917
-0.0605844
0.0454024
-0.0581287
0.046835
-0.0557694
0.0483004
-0.0535173
0.0497971
-0.0513535
0.0513114
-0.0492785
0.0528686
-0.0472929
0.0544433
-0.0453972
0.0560503
-0.0435765
0.0577145
-0.0418363
0.0594219
-0.0401815
0.0611561
-0.0385887
0.0630134
-0.0370743
0.0647887
-0.300268
0.0131291
-0.287816
0.0135357
-0.276228
0.0139581
-0.265079
0.0144002
-0.254522
0.0148531
-0.244247
0.0153169
-0.234416
0.0157948
-0.224962
0.0162841
-0.215904
0.0167876
-0.207155
0.0173052
-0.198805
0.0178354
-0.190775
0.0183807
-0.183077
0.0189424
-0.175691
0.0195191
-0.168608
0.0201121
-0.161809
0.0207218
-0.155299
0.0213508
-0.149049
0.0219983
-0.143062
0.0226648
-0.137324
0.0233548
-0.131814
0.0240678
-0.126537
0.0248047
-0.121481
0.0255691
-0.116622
0.0263608
-0.111967
0.0271835
-0.1075
0.0280396
-0.103211
0.0289277
-0.099098
0.0298551
-0.0951456
0.0308176
-0.0913526
0.0318218
-0.0876982
0.0328655
-0.0841967
0.0339506
-0.0808229
0.035075
-0.0775866
0.0362421
-0.0744631
0.0374484
-0.071468
0.0386914
-0.068587
0.0399731
-0.0658164
0.041285
-0.0631522
0.042638
-0.0605959
0.0440032
-0.0581388
0.0454124
-0.0557771
0.0468427
-0.053522
0.0483051
-0.0513545
0.0497981
-0.0492753
0.0513082
-0.0472851
0.0528608
-0.0453844
0.0544305
-0.0435584
0.0560323
-0.0418125
0.0576907
-0.0401521
0.0593926
-0.038552
0.0611194
-0.0370338
0.062973
-0.0355741
0.0647365
-0.30024
0.0127209
-0.287803
0.0131161
-0.27622
0.0135275
-0.265075
0.0139546
-0.254517
0.0143947
-0.244239
0.0148448
-0.234406
0.0153064
-0.22495
0.0157822
-0.215889
0.0162697
-0.207139
0.0167714
-0.198787
0.017287
-0.190755
0.0178152
-0.183055
0.0183585
-0.175667
0.018918
-0.168582
0.0194927
-0.161781
0.0200837
-0.155269
0.0206914
-0.149017
0.0213187
-0.143028
0.0219646
-0.137289
0.0226299
-0.131779
0.023319
-0.126501
0.0240315
-0.121445
0.0247684
-0.116586
0.0255333
-0.111932
0.0263261
-0.107467
0.0271505
-0.10318
0.0280089
-0.0990703
0.0288999
-0.0951213
0.0298308
-0.0913323
0.0307972
-0.0876822
0.0318059
-0.0841854
0.0328542
-0.0808163