/*--------------------------------*- C++ -*----------------------------------*\
  =========                 |
  \\      /  F ield         | OpenFOAM: The Open Source CFD Toolbox
   \\    /   O peration     | Website:  https://openfoam.org
    \\  /    A nd           | Version:  7
     \\/     M anipulation  |
\*---------------------------------------------------------------------------*/
FoamFile
{
    version     2.0;
    format      ascii;
    class       volScalarField;
    location    "200";
    object      yPlus;
}
// * * * * * * * * * * * * * * * * * * * * * * * * * * * * * * * * * * * * * //

dimensions      [0 0 0 0 0 0 0];

internalField   uniform 0;

boundaryField
{
    inlet-l
    {
        type            calculated;
        value           uniform 0;
    }
    airfoil-l1
    {
        type            calculated;
        value           nonuniform 0();
    }
    empty-1
    {
        type            empty;
    }
    empty-2
    {
        type            empty;
    }
    wall-l1
    {
        type            calculated;
        value           nonuniform List<scalar> 
67
(
116.472
116.387
116.118
115.902
115.738
115.584
115.418
115.256
115.1
114.952
114.806
114.664
114.532
114.403
114.274
114.148
114.034
113.921
113.807
113.699
113.6
113.503
113.405
113.316
113.231
113.149
113.071
112.99
112.92
112.853
112.786
112.726
112.666
112.612
112.554
112.507
112.461
112.417
112.378
112.342
112.308
112.276
112.249
112.224
112.203
112.182
112.165
112.152
112.141
112.133
112.128
112.123
112.124
112.125
112.13
112.137
112.146
112.157
112.173
112.183
112.203
112.223
112.246
112.273
112.3
112.324
112.385
)
;
    }
    airfoil-l2
    {
        type            calculated;
        value           nonuniform List<scalar> 
66
(
23.6156
23.8153
23.9825
24.1239
24.2455
24.3505
24.4469
24.5342
24.61
24.6781
24.7382
24.7931
24.8471
24.8943
24.9377
24.9778
25.0149
25.0494
25.083
25.1144
25.1411
25.1701
25.1948
25.2193
25.2435
25.2638
25.2828
25.3019
25.3197
25.3341
25.3515
25.3655
25.3786
25.3911
25.4047
25.4208
25.4334
25.4408
25.4516
25.4681
25.4796
25.4927
25.5074
25.5195
25.532
25.5469
25.5636
25.5783
25.5938
25.6107
25.6302
25.6539
25.678
25.7011
25.726
25.7536
25.784
25.8181
25.8574
25.9032
25.9551
26.0137
26.09
26.1634
26.352
26.2868
)
;
    }
    empty-3
    {
        type            empty;
    }
    empty-4
    {
        type            empty;
    }
    wall-l2
    {
        type            calculated;
        value           nonuniform List<scalar> 
74
(
112.209
112.006
111.814
111.591
111.359
111.137
110.925
110.717
110.515
110.321
110.136
109.959
109.793
109.639
109.496
109.366
109.25
109.148
109.062
108.992
108.939
108.902
108.884
108.882
108.899
108.933
108.985
109.054
109.139
109.239
109.354
109.481
109.621
109.77
109.927
110.09
110.256
110.424
110.59
110.751
110.905
111.049
111.178
111.29
111.382
111.449
111.487
111.493
111.462
111.39
111.273
111.106
110.883
110.599
110.249
109.826
109.324
108.736
108.053
107.266
106.366
105.34
104.176
102.858
101.368
99.6858
97.7873
95.6479
93.2423
90.5727
87.6645
84.8222
82.652
82.7119
)
;
    }
    outlet-l
    {
        type            calculated;
        value           uniform 0;
    }
    empty-5
    {
        type            empty;
    }
    empty-6
    {
        type            empty;
    }
    outlet-h
    {
        type            calculated;
        value           nonuniform 0();
    }
    wall-h2
    {
        type            calculated;
        value           nonuniform 0();
    }
    empty-7
    {
        type            empty;
    }
    empty-8
    {
        type            empty;
    }
    airfoil-h2
    {
        type            calculated;
        value           nonuniform 0();
    }
    wall-h1
    {
        type            calculated;
        value           nonuniform 0();
    }
    empty-9
    {
        type            empty;
    }
    empty-10
    {
        type            empty;
    }
    inlet-h
    {
        type            calculated;
        value           nonuniform 0();
    }
    airfoil-h1
    {
        type            calculated;
        value           nonuniform 0();
    }
    empty-11
    {
        type            empty;
    }
    empty-12
    {
        type            empty;
    }
    procBoundary1to0
    {
        type            processor;
        value           uniform 0;
    }
    procBoundary1to2
    {
        type            processor;
        value           uniform 0;
    }
}


// ************************************************************************* //
